<event>
 4    1  0.2153371E-005  0.5167528E+03  0.7818608E-02  0.1009496E+00
          2   -1    0    0  501    0  0.00000000000E+00  0.00000000000E+00  0.56832522689E+03  0.56832522689E+03  0.25500000000E-02 0.  1.
         -2   -1    0    0    0  501 -0.00000000000E+00 -0.00000000000E+00 -0.11746506011E+03  0.11746506013E+03  0.25500000000E-02 0. -1.
    5000001    1    1    2    0    0  0.18555814861E+02 -0.98576546347E+02  0.31504571644E+02  0.21540239504E+03  0.18800000000E+03 0.  0.
   -5000001    1    1    2    0    0 -0.18555814861E+02  0.98576546347E+02  0.41935559514E+03  0.47038789199E+03  0.18800000000E+03 0.  0.
<mgrwt>
<rscale>  0 0.51675277E+03</rscale>
<asrwt>0</asrwt>
<pdfrwt beam="1">  1        2 0.81189316E-01 0.51675277E+03</pdfrwt>
<pdfrwt beam="2">  1       -2 0.16780723E-01 0.51675277E+03</pdfrwt>
<totfact> 0.16699994E+03</totfact>
</mgrwt>
</event>
<event>
 4    1  0.2153371E-005  0.1017537E+04  0.7818608E-02  0.9289517E-01
          2   -1    0    0  501    0  0.00000000000E+00  0.00000000000E+00  0.28535531882E+03  0.28535531883E+03  0.25500000000E-02 0.  1.
         -2   -1    0    0    0  501 -0.00000000000E+00 -0.00000000000E+00 -0.90709800092E+03  0.90709800092E+03  0.25500000000E-02 0. -1.
    5000001    1    1    2    0    0 -0.12377371569E+03 -0.45562701577E+03 -0.28251884199E+03  0.58144372581E+03  0.18800000000E+03 0.  0.
   -5000001    1    1    2    0    0  0.12377371569E+03  0.45562701577E+03 -0.33922384011E+03  0.61100959395E+03  0.18800000000E+03 0.  0.
<mgrwt>
<rscale>  0 0.10175367E+04</rscale>
<asrwt>0</asrwt>
<pdfrwt beam="1">  1        2 0.40765046E-01 0.10175367E+04</pdfrwt>
<pdfrwt beam="2">  1       -2 0.12958543E+00 0.10175367E+04</pdfrwt>
<totfact> 0.55071620E+01</totfact>
</mgrwt>
</event>
<event>
 4    1  0.2153371E-005  0.6389746E+03  0.7818608E-02  0.9827690E-01
         -2   -1    0    0    0  501 -0.00000000000E+00  0.00000000000E+00  0.16860556165E+03  0.16860556167E+03  0.25500000000E-02 0. -1.
          2   -1    0    0  501    0  0.00000000000E+00 -0.00000000000E+00 -0.60539012688E+03  0.60539012689E+03  0.25500000000E-02 0.  1.
    5000001    1    1    2    0    0  0.25669441680E+03  0.16372740503E+02 -0.18952213370E+03  0.37070571807E+03  0.18800000000E+03 0.  0.
   -5000001    1    1    2    0    0 -0.25669441680E+03 -0.16372740503E+02 -0.24726243153E+03  0.40328997048E+03  0.18800000000E+03 0.  0.
<mgrwt>
<rscale>  0 0.63897462E+03</rscale>
<asrwt>0</asrwt>
<pdfrwt beam="1">  1        2 0.86484303E-01 0.63897462E+03</pdfrwt>
<pdfrwt beam="2">  1       -2 0.24086509E-01 0.63897462E+03</pdfrwt>
<totfact> 0.82557062E+02</totfact>
</mgrwt>
</event>
<event>
 4    1  0.2153371E-005  0.4658061E+03  0.7818608E-02  0.1023111E+00
         -2   -1    0    0    0  501 -0.00000000000E+00  0.00000000000E+00  0.10808264613E+03  0.10808264616E+03  0.25500000000E-02 0. -1.
          2   -1    0    0  501    0  0.00000000000E+00 -0.00000000000E+00 -0.50187363484E+03  0.50187363485E+03  0.25500000000E-02 0.  1.
    5000001    1    1    2    0    0 -0.13219124401E+03  0.32395530663E+02 -0.17150961576E+03  0.28858888353E+03  0.18800000000E+03 0.  0.
   -5000001    1    1    2    0    0  0.13219124401E+03 -0.32395530663E+02 -0.22228137296E+03  0.32136739748E+03  0.18800000000E+03 0.  0.
<mgrwt>
<rscale>  0 0.46580610E+03</rscale>
<asrwt>0</asrwt>
<pdfrwt beam="1">  1        2 0.71696232E-01 0.46580610E+03</pdfrwt>
<pdfrwt beam="2">  1       -2 0.15440378E-01 0.46580610E+03</pdfrwt>
<totfact> 0.22143924E+03</totfact>
</mgrwt>
</event>
<event>
 4    1  0.2153371E-005  0.1253828E+04  0.7818608E-02  0.9067004E-01
          2   -1    0    0  501    0  0.00000000000E+00  0.00000000000E+00  0.11535239307E+04  0.11535239307E+04  0.25500000000E-02 0.  1.
         -2   -1    0    0    0  501 -0.00000000000E+00 -0.00000000000E+00 -0.34071328733E+03  0.34071328734E+03  0.25500000000E-02 0. -1.
    5000001    1    1    2    0    0  0.59509425649E+03 -0.27365404699E+02  0.46936364454E+03  0.78136564443E+03  0.18800000000E+03 0.  0.
   -5000001    1    1    2    0    0 -0.59509425649E+03  0.27365404699E+02  0.34344699888E+03  0.71287157365E+03  0.18800000000E+03 0.  0.
<mgrwt>
<rscale>  0 0.12538276E+04</rscale>
<asrwt>0</asrwt>
<pdfrwt beam="1">  1        2 0.16478913E+00 0.12538276E+04</pdfrwt>
<pdfrwt beam="2">  1       -2 0.48673327E-01 0.12538276E+04</pdfrwt>
<totfact> 0.89347214E+01</totfact>
</mgrwt>
</event>
<event>
 4    1  0.2153371E-005  0.5618116E+03  0.7818608E-02  0.9987964E-01
          2   -1    0    0  501    0  0.00000000000E+00  0.00000000000E+00  0.23809836311E+03  0.23809836312E+03  0.25500000000E-02 0.  1.
         -2   -1    0    0    0  501 -0.00000000000E+00 -0.00000000000E+00 -0.33140952510E+03  0.33140952511E+03  0.25500000000E-02 0. -1.
    5000001    1    1    2    0    0 -0.11776546309E+03 -0.12377742917E+03  0.74880593563E+02  0.26484081928E+03  0.18800000000E+03 0.  0.
   -5000001    1    1    2    0    0  0.11776546309E+03  0.12377742917E+03 -0.16819175556E+03  0.30466706895E+03  0.18800000000E+03 0.  0.
<mgrwt>
<rscale>  0 0.56181159E+03</rscale>
<asrwt>0</asrwt>
<pdfrwt beam="1">  1        2 0.34014052E-01 0.56181159E+03</pdfrwt>
<pdfrwt beam="2">  1       -2 0.47344218E-01 0.56181159E+03</pdfrwt>
<totfact> 0.65709812E+02</totfact>
</mgrwt>
</event>
<event>
 4    1  0.2153371E-005  0.6171220E+03  0.7818608E-02  0.9870507E-01
         -2   -1    0    0    0  501 -0.00000000000E+00  0.00000000000E+00  0.11443067184E+04  0.11443067184E+04  0.25500000000E-02 0. -1.
          2   -1    0    0  501    0  0.00000000000E+00 -0.00000000000E+00 -0.83203109158E+02  0.83203109197E+02  0.25500000000E-02 0.  1.
    5000001    1    1    2    0    0  0.15448047000E+03 -0.12875049089E+03  0.80777794892E+03  0.85339915589E+03  0.18800000000E+03 0.  0.
   -5000001    1    1    2    0    0 -0.15448047000E+03  0.12875049089E+03  0.25332566035E+03  0.37411067173E+03  0.18800000000E+03 0.  0.
<mgrwt>
<rscale>  0 0.61712195E+03</rscale>
<asrwt>0</asrwt>
<pdfrwt beam="1">  1        2 0.11886159E-01 0.61712195E+03</pdfrwt>
<pdfrwt beam="2">  1       -2 0.16347238E+00 0.61712195E+03</pdfrwt>
<totfact> 0.12919226E+02</totfact>
</mgrwt>
</event>
<event>
 4    1  0.2153371E-005  0.8930083E+03  0.7818608E-02  0.9434364E-01
          2   -1    0    0  501    0  0.00000000000E+00  0.00000000000E+00  0.26133128269E+04  0.26133128269E+04  0.25500000000E-02 0.  1.
         -2   -1    0    0    0  501 -0.00000000000E+00 -0.00000000000E+00 -0.76288594449E+02  0.76288594492E+02  0.25500000000E-02 0. -1.
    5000001    1    1    2    0    0  0.99409830113E+01 -0.18988541749E+03  0.23455006919E+04  0.23606932860E+04  0.18800000000E+03 0.  0.
   -5000001    1    1    2    0    0 -0.99409830113E+01  0.18988541749E+03  0.19152354050E+03  0.32890813533E+03  0.18800000000E+03 0.  0.
<mgrwt>
<rscale>  0 0.89300831E+03</rscale>
<asrwt>0</asrwt>
<pdfrwt beam="1">  1        2 0.37333029E+00 0.89300831E+03</pdfrwt>
<pdfrwt beam="2">  1       -2 0.10898374E-01 0.89300831E+03</pdfrwt>
<totfact> 0.23407002E+02</totfact>
</mgrwt>
</event>
<event>
 4    1  0.2153371E-005  0.7330574E+03  0.7818608E-02  0.9662312E-01
         -2   -1    0    0    0  501 -0.00000000000E+00  0.00000000000E+00  0.61488778515E+02  0.61488778567E+02  0.25500000000E-02 0.  1.
          2   -1    0    0  501    0  0.00000000000E+00 -0.00000000000E+00 -0.21848423723E+04  0.21848423723E+04  0.25500000000E-02 0. -1.
    5000001    1    1    2    0    0  0.29247740999E+03  0.11599035556E+03 -0.10665130535E+04  0.11277370665E+04  0.18800000000E+03 0.  0.
   -5000001    1    1    2    0    0 -0.29247740999E+03 -0.11599035556E+03 -0.10568405403E+04  0.11185940844E+04  0.18800000000E+03 0.  0.
<mgrwt>
<rscale>  0 0.73305740E+03</rscale>
<asrwt>0</asrwt>
<pdfrwt beam="1">  1        2 0.31212029E+00 0.73305740E+03</pdfrwt>
<pdfrwt beam="2">  1       -2 0.87841126E-02 0.73305740E+03</pdfrwt>
<totfact> 0.55919553E+02</totfact>
</mgrwt>
</event>
<event>
 4    1  0.2153371E-005  0.5169927E+03  0.7818608E-02  0.1009436E+00
          2   -1    0    0  501    0  0.00000000000E+00  0.00000000000E+00  0.59431799267E+03  0.59431799268E+03  0.25500000000E-02 0.  1.
         -2   -1    0    0    0  501 -0.00000000000E+00 -0.00000000000E+00 -0.11243198668E+03  0.11243198671E+03  0.25500000000E-02 0. -1.
    5000001    1    1    2    0    0 -0.49553478982E+02  0.14278543790E+03  0.36796104651E+03  0.43998018172E+03  0.18800000000E+03 0.  0.
   -5000001    1    1    2    0    0  0.49553478982E+02 -0.14278543790E+03  0.11392495948E+03  0.26676979767E+03  0.18800000000E+03 0.  0.
<mgrwt>
<rscale>  0 0.51699266E+03</rscale>
<asrwt>0</asrwt>
<pdfrwt beam="1">  1        2 0.84902570E-01 0.51699266E+03</pdfrwt>
<pdfrwt beam="2">  1       -2 0.16061713E-01 0.51699266E+03</pdfrwt>
<totfact> 0.17075017E+03</totfact>
</mgrwt>
</event>
<event>
 4    1  0.2153371E-005  0.5596452E+03  0.7818608E-02  0.9992858E-01
         -2   -1    0    0    0  501 -0.00000000000E+00  0.00000000000E+00  0.72997285587E+02  0.72997285631E+02  0.25500000000E-02 0. -1.
          2   -1    0    0  501    0  0.00000000000E+00 -0.00000000000E+00 -0.10726521444E+04  0.10726521444E+04  0.25500000000E-02 0.  1.
    5000001    1    1    2    0    0 -0.15067210486E+03 -0.87225995721E+02 -0.73003500185E+03  0.77369603944E+03  0.18800000000E+03 0.  0.
   -5000001    1    1    2    0    0  0.15067210486E+03  0.87225995721E+02 -0.26961985698E+03  0.37195339061E+03  0.18800000000E+03 0.  0.
<mgrwt>
<rscale>  0 0.55964523E+03</rscale>
<asrwt>0</asrwt>
<pdfrwt beam="1">  1        2 0.15323601E+00 0.55964523E+03</pdfrwt>
<pdfrwt beam="2">  1       -2 0.10428184E-01 0.55964523E+03</pdfrwt>
<totfact> 0.16346432E+03</totfact>
</mgrwt>
</event>
<event>
 4    1  0.2153371E-005  0.7422024E+03  0.7818608E-02  0.9647664E-01
          2   -1    0    0  501    0  0.00000000000E+00  0.00000000000E+00  0.95010020090E+03  0.95010020091E+03  0.25500000000E-02 0.  1.
         -2   -1    0    0    0  501 -0.00000000000E+00 -0.00000000000E+00 -0.14494904584E+03  0.14494904586E+03  0.25500000000E-02 0. -1.
    5000001    1    1    2    0    0 -0.15283856634E+03  0.23657170223E+03  0.62655703325E+03  0.71221030151E+03  0.18800000000E+03 0.  0.
   -5000001    1    1    2    0    0  0.15283856634E+03 -0.23657170223E+03  0.17859412181E+03  0.38283894526E+03  0.18800000000E+03 0.  0.
<mgrwt>
<rscale>  0 0.74220245E+03</rscale>
<asrwt>0</asrwt>
<pdfrwt beam="1">  1        2 0.13572860E+00 0.74220245E+03</pdfrwt>
<pdfrwt beam="2">  1       -2 0.20707007E-01 0.74220245E+03</pdfrwt>
<totfact> 0.60800183E+02</totfact>
</mgrwt>
</event>
<event>
 4    1  0.2153371E-005  0.7684882E+03  0.7818608E-02  0.9606784E-01
         -2   -1    0    0    0  501 -0.00000000000E+00  0.00000000000E+00  0.58256954223E+03  0.58256954223E+03  0.25500000000E-02 0. -1.
          2   -1    0    0  501    0  0.00000000000E+00 -0.00000000000E+00 -0.25343502935E+03  0.25343502937E+03  0.25500000000E-02 0.  1.
    5000001    1    1    2    0    0 -0.23091282634E+03 -0.17468200855E+03 -0.18971158915E+02  0.34574331859E+03  0.18800000000E+03 0.  0.
   -5000001    1    1    2    0    0  0.23091282634E+03  0.17468200855E+03  0.34810567179E+03  0.49026125301E+03  0.18800000000E+03 0.  0.
<mgrwt>
<rscale>  0 0.76848820E+03</rscale>
<asrwt>0</asrwt>
<pdfrwt beam="1">  1        2 0.36205004E-01 0.76848820E+03</pdfrwt>
<pdfrwt beam="2">  1       -2 0.83224220E-01 0.76848820E+03</pdfrwt>
<totfact> 0.18351998E+02</totfact>
</mgrwt>
</event>
<event>
 4    1  0.2153371E-005  0.5890810E+03  0.7818608E-02  0.9928322E-01
          2   -1    0    0  501    0  0.00000000000E+00  0.00000000000E+00  0.23212225452E+04  0.23212225452E+04  0.25500000000E-02 0.  1.
         -2   -1    0    0    0  501 -0.00000000000E+00 -0.00000000000E+00 -0.37374310628E+02  0.37374310715E+02  0.25500000000E-02 0. -1.
    5000001    1    1    2    0    0  0.19644347910E+03 -0.10575197622E+03  0.13038984644E+04  0.13361394862E+04  0.18800000000E+03 0.  0.
   -5000001    1    1    2    0    0 -0.19644347910E+03  0.10575197622E+03  0.97994977017E+03  0.10224573698E+04  0.18800000000E+03 0.  0.
<mgrwt>
<rscale>  0 0.58908095E+03</rscale>
<asrwt>0</asrwt>
<pdfrwt beam="1">  1        2 0.33160340E+00 0.58908095E+03</pdfrwt>
<pdfrwt beam="2">  1       -2 0.53391844E-02 0.58908095E+03</pdfrwt>
<totfact> 0.10585934E+03</totfact>
</mgrwt>
</event>
<event>
 4    1  0.2153371E-005  0.7174124E+03  0.7818608E-02  0.9687910E-01
          2   -1    0    0  501    0  0.00000000000E+00  0.00000000000E+00  0.45480736444E+03  0.45480736445E+03  0.25500000000E-02 0.  1.
         -2   -1    0    0    0  501 -0.00000000000E+00 -0.00000000000E+00 -0.28291125506E+03  0.28291125507E+03  0.25500000000E-02 0. -1.
    5000001    1    1    2    0    0  0.26945937959E+03 -0.88078436992E+02 -0.31116016056E+02  0.34158216400E+03  0.18800000000E+03 0.  0.
   -5000001    1    1    2    0    0 -0.26945937959E+03  0.88078436992E+02  0.20301212544E+03  0.39613645551E+03  0.18800000000E+03 0.  0.
<mgrwt>
<rscale>  0 0.71741236E+03</rscale>
<asrwt>0</asrwt>
<pdfrwt beam="1">  1        2 0.64972480E-01 0.71741236E+03</pdfrwt>
<pdfrwt beam="2">  1       -2 0.40415894E-01 0.71741236E+03</pdfrwt>
<totfact> 0.43641687E+02</totfact>
</mgrwt>
</event>
<event>
 4    1  0.2153371E-005  0.8588188E+03  0.7818608E-02  0.9478577E-01
         -2   -1    0    0    0  501 -0.00000000000E+00  0.00000000000E+00  0.83798404112E+02  0.83798404151E+02  0.25500000000E-02 0. -1.
          2   -1    0    0  501    0  0.00000000000E+00 -0.00000000000E+00 -0.22004289163E+04  0.22004289163E+04  0.25500000000E-02 0.  1.
    5000001    1    1    2    0    0  0.31661757957E+03 -0.22085662436E+03 -0.10452605054E+04  0.11300167540E+04  0.18800000000E+03 0.  0.
   -5000001    1    1    2    0    0 -0.31661757957E+03  0.22085662436E+03 -0.10713700067E+04  0.11542105664E+04  0.18800000000E+03 0.  0.
<mgrwt>
<rscale>  0 0.85881880E+03</rscale>
<asrwt>0</asrwt>
<pdfrwt beam="1">  1        2 0.31434695E+00 0.85881880E+03</pdfrwt>
<pdfrwt beam="2">  1       -2 0.11971202E-01 0.85881880E+03</pdfrwt>
<totfact> 0.32828529E+02</totfact>
</mgrwt>
</event>
<event>
 4    1  0.2153371E-005  0.5728764E+03  0.7818608E-02  0.9963334E-01
         -2   -1    0    0    0  501 -0.00000000000E+00  0.00000000000E+00  0.64284168999E+02  0.64284169050E+02  0.25500000000E-02 0. -1.
          2   -1    0    0  501    0  0.00000000000E+00 -0.00000000000E+00 -0.12763147674E+04  0.12763147674E+04  0.25500000000E-02 0.  1.
    5000001    1    1    2    0    0  0.15203324443E+03  0.39247160969E+02 -0.95349254777E+03  0.98445237859E+03  0.18800000000E+03 0.  0.
   -5000001    1    1    2    0    0 -0.15203324443E+03 -0.39247160969E+02 -0.25853805064E+03  0.35614655787E+03  0.18800000000E+03 0.  0.
<mgrwt>
<rscale>  0 0.57287637E+03</rscale>
<asrwt>0</asrwt>
<pdfrwt beam="1">  1        2 0.18233067E+00 0.57287637E+03</pdfrwt>
<pdfrwt beam="2">  1       -2 0.91834535E-02 0.57287637E+03</pdfrwt>
<totfact> 0.15397211E+03</totfact>
</mgrwt>
</event>
<event>
 4    1  0.2153371E-005  0.8680051E+03  0.7818608E-02  0.9466485E-01
         -2   -1    0    0    0  501 -0.00000000000E+00  0.00000000000E+00  0.70926512678E+02  0.70926512723E+02  0.25500000000E-02 0. -1.
          2   -1    0    0  501    0  0.00000000000E+00 -0.00000000000E+00 -0.26556810513E+04  0.26556810513E+04  0.25500000000E-02 0.  1.
    5000001    1    1    2    0    0  0.22192685293E+03 -0.12634025705E+03 -0.22231628203E+04  0.22456647822E+04  0.18800000000E+03 0.  0.
   -5000001    1    1    2    0    0 -0.22192685293E+03  0.12634025705E+03 -0.36159171835E+03  0.48094278182E+03  0.18800000000E+03 0.  0.
<mgrwt>
<rscale>  0 0.86800506E+03</rscale>
<asrwt>0</asrwt>
<pdfrwt beam="1">  1        2 0.37938295E+00 0.86800506E+03</pdfrwt>
<pdfrwt beam="2">  1       -2 0.10132361E-01 0.86800506E+03</pdfrwt>
<totfact> 0.25109519E+02</totfact>
</mgrwt>
</event>
<event>
 4    1  0.2153371E-005  0.4048263E+03  0.7818608E-02  0.1042121E+00
          2   -1    0    0  501    0  0.00000000000E+00  0.00000000000E+00  0.79925803395E+03  0.79925803396E+03  0.25500000000E-02 0.  1.
         -2   -1    0    0    0  501 -0.00000000000E+00 -0.00000000000E+00 -0.51261404464E+02  0.51261404528E+02  0.25500000000E-02 0. -1.
    5000001    1    1    2    0    0  0.14923954466E+02 -0.73454873201E+02  0.38021178529E+03  0.43072420931E+03  0.18800000000E+03 0.  0.
   -5000001    1    1    2    0    0 -0.14923954466E+02  0.73454873201E+02  0.36778484420E+03  0.41979522917E+03  0.18800000000E+03 0.  0.
<mgrwt>
<rscale>  0 0.40482633E+03</rscale>
<asrwt>0</asrwt>
<pdfrwt beam="1">  1        2 0.11417971E+00 0.40482633E+03</pdfrwt>
<pdfrwt beam="2">  1       -2 0.73230584E-02 0.40482633E+03</pdfrwt>
<totfact> 0.42659357E+03</totfact>
</mgrwt>
</event>
<event>
 4    1  0.2153371E-005  0.8485744E+03  0.7818608E-02  0.9492252E-01
          2   -1    0    0  501    0  0.00000000000E+00  0.00000000000E+00  0.33332888825E+03  0.33332888826E+03  0.25500000000E-02 0.  1.
         -2   -1    0    0    0  501 -0.00000000000E+00 -0.00000000000E+00 -0.54006611850E+03  0.54006611851E+03  0.25500000000E-02 0. -1.
    5000001    1    1    2    0    0 -0.20265089484E+03  0.26400825511E+03 -0.29289565529E+03  0.48155955897E+03  0.18800000000E+03 0.  0.
   -5000001    1    1    2    0    0  0.20265089484E+03 -0.26400825511E+03  0.86158425034E+02  0.39183544780E+03  0.18800000000E+03 0.  0.
<mgrwt>
<rscale>  0 0.84857443E+03</rscale>
<asrwt>0</asrwt>
<pdfrwt beam="1">  1        2 0.47618413E-01 0.84857443E+03</pdfrwt>
<pdfrwt beam="2">  1       -2 0.77152302E-01 0.84857443E+03</pdfrwt>
<totfact> 0.15992405E+02</totfact>
</mgrwt>
</event>
<event>
 4    1  0.2153371E-005  0.1024883E+04  0.7818608E-02  0.9281667E-01
         -2   -1    0    0    0  501 -0.00000000000E+00  0.00000000000E+00  0.87777461186E+02  0.87777461223E+02  0.25500000000E-02 0. -1.
          2   -1    0    0  501    0  0.00000000000E+00 -0.00000000000E+00 -0.29916141855E+04  0.29916141855E+04  0.25500000000E-02 0.  1.
    5000001    1    1    2    0    0 -0.24201320928E+03  0.38591371849E+03 -0.10296371700E+04  0.11414887180E+04  0.18800000000E+03 0.  0.
   -5000001    1    1    2    0    0  0.24201320928E+03 -0.38591371849E+03 -0.18741995543E+04  0.19379029287E+04  0.18800000000E+03 0.  0.
<mgrwt>
<rscale>  0 0.10248830E+04</rscale>
<asrwt>0</asrwt>
<pdfrwt beam="1">  1        2 0.42737339E+00 0.10248830E+04</pdfrwt>
<pdfrwt beam="2">  1       -2 0.12539639E-01 0.10248830E+04</pdfrwt>
<totfact> 0.11486714E+02</totfact>
</mgrwt>
</event>
<event>
 4    1  0.2153371E-005  0.6196919E+03  0.7818608E-02  0.9865373E-01
         -2   -1    0    0    0  501 -0.00000000000E+00  0.00000000000E+00  0.45286670407E+02  0.45286670479E+02  0.25500000000E-02 0. -1.
          2   -1    0    0  501    0  0.00000000000E+00 -0.00000000000E+00 -0.21199288264E+04  0.21199288264E+04  0.25500000000E-02 0.  1.
    5000001    1    1    2    0    0  0.15489247328E+03 -0.95959187983E+02 -0.45831797400E+03  0.52782497983E+03  0.18800000000E+03 0.  0.
   -5000001    1    1    2    0    0 -0.15489247328E+03  0.95959187983E+02 -0.16163241820E+04  0.16373905170E+04  0.18800000000E+03 0.  0.
<mgrwt>
<rscale>  0 0.61969192E+03</rscale>
<asrwt>0</asrwt>
<pdfrwt beam="1">  1        2 0.30284691E+00 0.61969192E+03</pdfrwt>
<pdfrwt beam="2">  1       -2 0.64695257E-02 0.61969192E+03</pdfrwt>
<totfact> 0.98846708E+02</totfact>
</mgrwt>
</event>
<event>
 4    1  0.2153371E-005  0.8388843E+03  0.7818608E-02  0.9505379E-01
          2   -1    0    0  501    0  0.00000000000E+00  0.00000000000E+00  0.63699784780E+03  0.63699784781E+03  0.25500000000E-02 0.  1.
         -2   -1    0    0    0  501 -0.00000000000E+00 -0.00000000000E+00 -0.27618890065E+03  0.27618890066E+03  0.25500000000E-02 0. -1.
    5000001    1    1    2    0    0 -0.25109472186E+03 -0.23250135933E+03  0.13592288500E+02  0.39068426093E+03  0.18800000000E+03 0.  0.
   -5000001    1    1    2    0    0  0.25109472186E+03  0.23250135933E+03  0.34721665865E+03  0.52250248753E+03  0.18800000000E+03 0.  0.
<mgrwt>
<rscale>  0 0.83888434E+03</rscale>
<asrwt>0</asrwt>
<pdfrwt beam="1">  1        2 0.90999692E-01 0.83888434E+03</pdfrwt>
<pdfrwt beam="2">  1       -2 0.39455557E-01 0.83888434E+03</pdfrwt>
<totfact> 0.30791752E+02</totfact>
</mgrwt>
</event>
<event>
 4    1  0.2153371E-005  0.5067485E+03  0.7818608E-02  0.1012032E+00
         -2   -1    0    0    0  501 -0.00000000000E+00  0.00000000000E+00  0.32045039087E+02  0.32045039189E+02  0.25500000000E-02 0. -1.
          2   -1    0    0  501    0  0.00000000000E+00 -0.00000000000E+00 -0.20033841183E+04  0.20033841183E+04  0.25500000000E-02 0.  1.
    5000001    1    1    2    0    0 -0.62136075328E+02  0.13310983907E+03 -0.13282731680E+04  0.13495305591E+04  0.18800000000E+03 0.  0.
   -5000001    1    1    2    0    0  0.62136075328E+02 -0.13310983907E+03 -0.64306591124E+03  0.68589859842E+03  0.18800000000E+03 0.  0.
<mgrwt>
<rscale>  0 0.50674855E+03</rscale>
<asrwt>0</asrwt>
<pdfrwt beam="1">  1        2 0.28619765E+00 0.50674855E+03</pdfrwt>
<pdfrwt beam="2">  1       -2 0.45778640E-02 0.50674855E+03</pdfrwt>
<totfact> 0.19482483E+03</totfact>
</mgrwt>
</event>
<event>
 4    1  0.2153371E-005  0.6821600E+03  0.7818608E-02  0.9748237E-01
          2   -1    0    0  501    0  0.00000000000E+00  0.00000000000E+00  0.17823650943E+04  0.17823650943E+04  0.25500000000E-02 0.  1.
         -2   -1    0    0    0  501 -0.00000000000E+00 -0.00000000000E+00 -0.65270330548E+02  0.65270330597E+02  0.25500000000E-02 0. -1.
    5000001    1    1    2    0    0  0.25698531984E+03 -0.74794845406E+02  0.11205293079E+04  0.11672898754E+04  0.18800000000E+03 0.  0.
   -5000001    1    1    2    0    0 -0.25698531984E+03  0.74794845406E+02  0.59656545588E+03  0.68034554946E+03  0.18800000000E+03 0.  0.
<mgrwt>
<rscale>  0 0.68215998E+03</rscale>
<asrwt>0</asrwt>
<pdfrwt beam="1">  1        2 0.25462360E+00 0.68215998E+03</pdfrwt>
<pdfrwt beam="2">  1       -2 0.93243325E-02 0.68215998E+03</pdfrwt>
<totfact> 0.81403740E+02</totfact>
</mgrwt>
</event>
<event>
 4    1  0.2153371E-005  0.5008303E+03  0.7818608E-02  0.1013562E+00
          2   -1    0    0  501    0  0.00000000000E+00  0.00000000000E+00  0.13813679128E+04  0.13813679128E+04  0.25500000000E-02 0. -1.
         -2   -1    0    0    0  501 -0.00000000000E+00 -0.00000000000E+00 -0.45395400723E+02  0.45395400794E+02  0.25500000000E-02 0.  1.
    5000001    1    1    2    0    0  0.12374242925E+03 -0.74129625199E+02  0.43731540351E+03  0.49738933672E+03  0.18800000000E+03 0.  0.
   -5000001    1    1    2    0    0 -0.12374242925E+03  0.74129625199E+02  0.89865710858E+03  0.92937397690E+03  0.18800000000E+03 0.  0.
<mgrwt>
<rscale>  0 0.50083031E+03</rscale>
<asrwt>0</asrwt>
<pdfrwt beam="1">  1        2 0.19733822E+00 0.50083031E+03</pdfrwt>
<pdfrwt beam="2">  1       -2 0.64850591E-02 0.50083031E+03</pdfrwt>
<totfact> 0.23512945E+03</totfact>
</mgrwt>
</event>
<event>
 4    1  0.2153371E-005  0.4092542E+03  0.7818608E-02  0.1040622E+00
          2   -1    0    0  501    0  0.00000000000E+00  0.00000000000E+00  0.12314851979E+04  0.12314851979E+04  0.25500000000E-02 0.  1.
         -2   -1    0    0    0  501 -0.00000000000E+00 -0.00000000000E+00 -0.34001420890E+02  0.34001420985E+02  0.25500000000E-02 0. -1.
    5000001    1    1    2    0    0  0.31848517466E+02  0.67543276364E+02  0.50334310528E+03  0.54247092446E+03  0.18800000000E+03 0.  0.
   -5000001    1    1    2    0    0 -0.31848517466E+02 -0.67543276364E+02  0.69414067174E+03  0.72301569444E+03  0.18800000000E+03 0.  0.
<mgrwt>
<rscale>  0 0.40925418E+03</rscale>
<asrwt>0</asrwt>
<pdfrwt beam="1">  1        2 0.17592644E+00 0.40925418E+03</pdfrwt>
<pdfrwt beam="2">  1       -2 0.48573462E-02 0.40925418E+03</pdfrwt>
<totfact> 0.44302147E+03</totfact>
</mgrwt>
</event>
<event>
 4    1  0.2153371E-005  0.5334197E+03  0.7818608E-02  0.1005406E+00
          2   -1    0    0  501    0  0.00000000000E+00  0.00000000000E+00  0.23686980729E+04  0.23686980729E+04  0.25500000000E-02 0.  1.
         -2   -1    0    0    0  501 -0.00000000000E+00 -0.00000000000E+00 -0.30030905489E+02  0.30030905597E+02  0.25500000000E-02 0. -1.
    5000001    1    1    2    0    0 -0.16104034937E+03 -0.43685360154E+02  0.76843545062E+03  0.80850445057E+03  0.18800000000E+03 0.  0.
   -5000001    1    1    2    0    0  0.16104034937E+03  0.43685360154E+02  0.15702317168E+04  0.15902245280E+04  0.18800000000E+03 0.  0.
<mgrwt>
<rscale>  0 0.53341972E+03</rscale>
<asrwt>0</asrwt>
<pdfrwt beam="1">  1        2 0.33838553E+00 0.53341972E+03</pdfrwt>
<pdfrwt beam="2">  1       -2 0.42901282E-02 0.53341972E+03</pdfrwt>
<totfact> 0.14097802E+03</totfact>
</mgrwt>
</event>
<event>
 4    1  0.2153371E-005  0.4572886E+03  0.7818608E-02  0.1025571E+00
         -2   -1    0    0    0  501 -0.00000000000E+00  0.00000000000E+00  0.22033449726E+02  0.22033449873E+02  0.25500000000E-02 0. -1.
          2   -1    0    0  501    0  0.00000000000E+00 -0.00000000000E+00 -0.23726748952E+04  0.23726748952E+04  0.25500000000E-02 0.  1.
    5000001    1    1    2    0    0 -0.12512339704E+03  0.22579701752E+02 -0.10301477290E+04  0.10548526205E+04  0.18800000000E+03 0.  0.
   -5000001    1    1    2    0    0  0.12512339704E+03 -0.22579701752E+02 -0.13204937164E+04  0.13398557245E+04  0.18800000000E+03 0.  0.
<mgrwt>
<rscale>  0 0.45728859E+03</rscale>
<asrwt>0</asrwt>
<pdfrwt beam="1">  1        2 0.33895339E+00 0.45728859E+03</pdfrwt>
<pdfrwt beam="2">  1       -2 0.31476372E-02 0.45728859E+03</pdfrwt>
<totfact> 0.22598080E+03</totfact>
</mgrwt>
</event>
<event>
 4    1  0.2153371E-005  0.4461378E+03  0.7818608E-02  0.1028880E+00
          2   -1    0    0  501    0  0.00000000000E+00  0.00000000000E+00  0.43549834193E+03  0.43549834194E+03  0.25500000000E-02 0.  1.
         -2   -1    0    0    0  501 -0.00000000000E+00 -0.00000000000E+00 -0.11425928021E+03  0.11425928024E+03  0.25500000000E-02 0. -1.
    5000001    1    1    2    0    0  0.42993954323E+02  0.10582743367E+03  0.11504588535E+03  0.24824882993E+03  0.18800000000E+03 0.  0.
   -5000001    1    1    2    0    0 -0.42993954323E+02 -0.10582743367E+03  0.20619317637E+03  0.30150879225E+03  0.18800000000E+03 0.  0.
<mgrwt>
<rscale>  0 0.44613777E+03</rscale>
<asrwt>0</asrwt>
<pdfrwt beam="1">  1        2 0.62214048E-01 0.44613777E+03</pdfrwt>
<pdfrwt beam="2">  1       -2 0.16322755E-01 0.44613777E+03</pdfrwt>
<totfact> 0.23621523E+03</totfact>
</mgrwt>
</event>
<event>
 4    1  0.2153371E-005  0.9431728E+03  0.7818608E-02  0.9373166E-01
          2   -1    0    0  501    0  0.00000000000E+00  0.00000000000E+00  0.16542039393E+04  0.16542039393E+04  0.25500000000E-02 0.  1.
         -2   -1    0    0    0  501 -0.00000000000E+00 -0.00000000000E+00 -0.13444155256E+03  0.13444155258E+03  0.25500000000E-02 0. -1.
    5000001    1    1    2    0    0  0.37007109570E+03  0.55537904378E+02  0.34869317097E+03  0.54494770591E+03  0.18800000000E+03 0.  0.
   -5000001    1    1    2    0    0 -0.37007109570E+03 -0.55537904378E+02  0.11710692158E+04  0.12436977860E+04  0.18800000000E+03 0.  0.
<mgrwt>
<rscale>  0 0.94317283E+03</rscale>
<asrwt>0</asrwt>
<pdfrwt beam="1">  1        2 0.23631485E+00 0.94317283E+03</pdfrwt>
<pdfrwt beam="2">  1       -2 0.19205936E-01 0.94317283E+03</pdfrwt>
<totfact> 0.27808369E+02</totfact>
</mgrwt>
</event>
<event>
 4    1  0.2153371E-005  0.4093522E+03  0.7818608E-02  0.1040589E+00
         -2   -1    0    0    0  501 -0.00000000000E+00  0.00000000000E+00  0.51036486963E+02  0.51036487026E+02  0.25500000000E-02 0. -1.
          2   -1    0    0  501    0  0.00000000000E+00 -0.00000000000E+00 -0.82083034436E+03  0.82083034436E+03  0.25500000000E-02 0.  1.
    5000001    1    1    2    0    0  0.73145994266E+02  0.34461106955E+02 -0.37803067346E+03  0.42987102071E+03  0.18800000000E+03 0.  0.
   -5000001    1    1    2    0    0 -0.73145994266E+02 -0.34461106955E+02 -0.39176318394E+03  0.44199581068E+03  0.18800000000E+03 0.  0.
<mgrwt>
<rscale>  0 0.40935216E+03</rscale>
<asrwt>0</asrwt>
<pdfrwt beam="1">  1        2 0.11726147E+00 0.40935216E+03</pdfrwt>
<pdfrwt beam="2">  1       -2 0.72909272E-02 0.40935216E+03</pdfrwt>
<totfact> 0.41539361E+03</totfact>
</mgrwt>
</event>
<event>
 4    1  0.2153371E-005  0.7403674E+03  0.7818608E-02  0.9650585E-01
          2   -1    0    0  501    0  0.00000000000E+00  0.00000000000E+00  0.16758633928E+04  0.16758633928E+04  0.25500000000E-02 0.  1.
         -2   -1    0    0    0  501 -0.00000000000E+00 -0.00000000000E+00 -0.81770377825E+02  0.81770377865E+02  0.25500000000E-02 0. -1.
    5000001    1    1    2    0    0  0.18611080901E+03  0.24476132442E+03  0.99773947202E+03  0.10608361764E+04  0.18800000000E+03 0.  0.
   -5000001    1    1    2    0    0 -0.18611080901E+03 -0.24476132442E+03  0.59635354294E+03  0.69679759424E+03  0.18800000000E+03 0.  0.
<mgrwt>
<rscale>  0 0.74036743E+03</rscale>
<asrwt>0</asrwt>
<pdfrwt beam="1">  1        2 0.23940905E+00 0.74036743E+03</pdfrwt>
<pdfrwt beam="2">  1       -2 0.11681483E-01 0.74036743E+03</pdfrwt>
<totfact> 0.63666535E+02</totfact>
</mgrwt>
</event>
<event>
 4    1  0.2153371E-005  0.6881362E+03  0.7818608E-02  0.9737739E-01
          2   -1    0    0  501    0  0.00000000000E+00  0.00000000000E+00  0.25606438343E+04  0.25606438343E+04  0.25500000000E-02 0. -1.
         -2   -1    0    0    0  501 -0.00000000000E+00 -0.00000000000E+00 -0.46231674793E+02  0.46231674864E+02  0.25500000000E-02 0.  1.
    5000001    1    1    2    0    0  0.24933794907E+03  0.11923680478E+03  0.94823145052E+03  0.10054221562E+04  0.18800000000E+03 0.  0.
   -5000001    1    1    2    0    0 -0.24933794907E+03 -0.11923680478E+03  0.15661807090E+04  0.16014533530E+04  0.18800000000E+03 0.  0.
<mgrwt>
<rscale>  0 0.68813619E+03</rscale>
<asrwt>0</asrwt>
<pdfrwt beam="1">  1        2 0.36580628E+00 0.68813619E+03</pdfrwt>
<pdfrwt beam="2">  1       -2 0.66045247E-02 0.68813619E+03</pdfrwt>
<totfact> 0.56788680E+02</totfact>
</mgrwt>
</event>
<event>
 4    1  0.2153371E-005  0.5555821E+03  0.7818608E-02  0.1000210E+00
         -2   -1    0    0    0  501 -0.00000000000E+00  0.00000000000E+00  0.61195119237E+02  0.61195119290E+02  0.25500000000E-02 0. -1.
          2   -1    0    0  501    0  0.00000000000E+00 -0.00000000000E+00 -0.12610135778E+04  0.12610135778E+04  0.25500000000E-02 0.  1.
    5000001    1    1    2    0    0  0.16711023874E+03 -0.11142885232E+03 -0.50830293302E+03  0.57797758844E+03  0.18800000000E+03 0.  0.
   -5000001    1    1    2    0    0 -0.16711023874E+03  0.11142885232E+03 -0.69151552551E+03  0.74423110862E+03  0.18800000000E+03 0.  0.
<mgrwt>
<rscale>  0 0.55558213E+03</rscale>
<asrwt>0</asrwt>
<pdfrwt beam="1">  1        2 0.18014478E+00 0.55558213E+03</pdfrwt>
<pdfrwt beam="2">  1       -2 0.87421606E-02 0.55558213E+03</pdfrwt>
<totfact> 0.16994765E+03</totfact>
</mgrwt>
</event>
<event>
 4    1  0.2153371E-005  0.4629609E+03  0.7818608E-02  0.1023926E+00
         -2   -1    0    0    0  501 -0.00000000000E+00  0.00000000000E+00  0.45469033738E+02  0.45469033810E+02  0.25500000000E-02 0. -1.
          2   -1    0    0  501    0  0.00000000000E+00 -0.00000000000E+00 -0.11784547492E+04  0.11784547492E+04  0.25500000000E-02 0.  1.
    5000001    1    1    2    0    0 -0.82689250326E+02 -0.44410072009E+02 -0.82320879475E+03  0.84960372314E+03  0.18800000000E+03 0.  0.
   -5000001    1    1    2    0    0  0.82689250326E+02  0.44410072009E+02 -0.30977692068E+03  0.37432005985E+03  0.18800000000E+03 0.  0.
<mgrwt>
<rscale>  0 0.46296090E+03</rscale>
<asrwt>0</asrwt>
<pdfrwt beam="1">  1        2 0.16835066E+00 0.46296090E+03</pdfrwt>
<pdfrwt beam="2">  1       -2 0.64955770E-02 0.46296090E+03</pdfrwt>
<totfact> 0.30234053E+03</totfact>
</mgrwt>
</event>
<event>
 4    1  0.2153371E-005  0.6644826E+03  0.7818608E-02  0.9779977E-01
         -2   -1    0    0    0  501 -0.00000000000E+00  0.00000000000E+00  0.10600146643E+03  0.10600146646E+03  0.25500000000E-02 0. -1.
          2   -1    0    0  501    0  0.00000000000E+00 -0.00000000000E+00 -0.10413468689E+04  0.10413468689E+04  0.25500000000E-02 0.  1.
    5000001    1    1    2    0    0  0.20017404903E+03 -0.12888432926E+03 -0.23371261208E+03  0.38294438928E+03  0.18800000000E+03 0.  0.
   -5000001    1    1    2    0    0 -0.20017404903E+03  0.12888432926E+03 -0.70163279037E+03  0.76440394607E+03  0.18800000000E+03 0.  0.
<mgrwt>
<rscale>  0 0.66448264E+03</rscale>
<asrwt>0</asrwt>
<pdfrwt beam="1">  1        2 0.14876383E+00 0.66448264E+03</pdfrwt>
<pdfrwt beam="2">  1       -2 0.15143067E-01 0.66448264E+03</pdfrwt>
<totfact> 0.91797859E+02</totfact>
</mgrwt>
</event>
<event>
 4    1  0.2153371E-005  0.3998711E+03  0.7818608E-02  0.1043824E+00
          2   -1    0    0  501    0  0.00000000000E+00  0.00000000000E+00  0.20148264294E+03  0.20148264295E+03  0.25500000000E-02 0. -1.
         -2   -1    0    0    0  501 -0.00000000000E+00 -0.00000000000E+00 -0.19840033099E+03  0.19840033101E+03  0.25500000000E-02 0.  1.
    5000001    1    1    2    0    0 -0.35193765758E+02 -0.41028862925E+02 -0.39791105186E+02  0.19962289646E+03  0.18800000000E+03 0.  0.
   -5000001    1    1    2    0    0  0.35193765758E+02  0.41028862925E+02  0.42873417134E+02  0.20026007749E+03  0.18800000000E+03 0.  0.
<mgrwt>
<rscale>  0 0.39987109E+03</rscale>
<asrwt>0</asrwt>
<pdfrwt beam="1">  1        2 0.28783235E-01 0.39987109E+03</pdfrwt>
<pdfrwt beam="2">  1       -2 0.28342905E-01 0.39987109E+03</pdfrwt>
<totfact> 0.20988938E+03</totfact>
</mgrwt>
</event>
<event>
 4    1  0.2153371E-005  0.4983647E+03  0.7818608E-02  0.1014207E+00
          2   -1    0    0  501    0  0.00000000000E+00  0.00000000000E+00  0.54458239704E+03  0.54458239705E+03  0.25500000000E-02 0.  1.
         -2   -1    0    0    0  501 -0.00000000000E+00 -0.00000000000E+00 -0.11401735202E+03  0.11401735205E+03  0.25500000000E-02 0. -1.
    5000001    1    1    2    0    0 -0.97754539478E+02  0.11805295727E+03  0.29068332148E+03  0.37859377186E+03  0.18800000000E+03 0.  0.
   -5000001    1    1    2    0    0  0.97754539478E+02 -0.11805295727E+03  0.13988172354E+03  0.28000597724E+03  0.18800000000E+03 0.  0.
<mgrwt>
<rscale>  0 0.49836470E+03</rscale>
<asrwt>0</asrwt>
<pdfrwt beam="1">  1        2 0.77797485E-01 0.49836470E+03</pdfrwt>
<pdfrwt beam="2">  1       -2 0.16288193E-01 0.49836470E+03</pdfrwt>
<totfact> 0.18448809E+03</totfact>
</mgrwt>
</event>
<event>
 4    1  0.2153371E-005  0.6231522E+03  0.7818608E-02  0.9858504E-01
         -2   -1    0    0    0  501 -0.00000000000E+00  0.00000000000E+00  0.56212012398E+02  0.56212012456E+02  0.25500000000E-02 0.  1.
          2   -1    0    0  501    0  0.00000000000E+00 -0.00000000000E+00 -0.17270268312E+04  0.17270268312E+04  0.25500000000E-02 0. -1.
    5000001    1    1    2    0    0  0.16118864926E+03  0.16731425438E+03 -0.10874889520E+04  0.11278085215E+04  0.18800000000E+03 0.  0.
   -5000001    1    1    2    0    0 -0.16118864926E+03 -0.16731425438E+03 -0.58332586677E+03  0.65543032216E+03  0.18800000000E+03 0.  0.
<mgrwt>
<rscale>  0 0.62315216E+03</rscale>
<asrwt>0</asrwt>
<pdfrwt beam="1">  1        2 0.24671808E+00 0.62315216E+03</pdfrwt>
<pdfrwt beam="2">  1       -2 0.80302886E-02 0.62315216E+03</pdfrwt>
<totfact> 0.11071692E+03</totfact>
</mgrwt>
</event>
<event>
 4    1  0.2153371E-005  0.5087751E+03  0.7818608E-02  0.1011514E+00
          2   -1    0    0  501    0  0.00000000000E+00  0.00000000000E+00  0.34032203766E+04  0.34032203766E+04  0.25500000000E-02 0.  1.
         -2   -1    0    0    0  501 -0.00000000000E+00 -0.00000000000E+00 -0.19015230911E+02  0.19015231081E+02  0.25500000000E-02 0. -1.
    5000001    1    1    2    0    0 -0.28647809859E+02 -0.16816239834E+03  0.18025741625E+04  0.18203617499E+04  0.18800000000E+03 0.  0.
   -5000001    1    1    2    0    0  0.28647809859E+02  0.16816239834E+03  0.15816309831E+04  0.16018738577E+04  0.18800000000E+03 0.  0.
<mgrwt>
<rscale>  0 0.50877508E+03</rscale>
<asrwt>0</asrwt>
<pdfrwt beam="1">  1        2 0.48617441E+00 0.50877508E+03</pdfrwt>
<pdfrwt beam="2">  1       -2 0.27164612E-02 0.50877508E+03</pdfrwt>
<totfact> 0.78961239E+02</totfact>
</mgrwt>
</event>
<event>
 4    1  0.2153371E-005  0.5692998E+03  0.7818608E-02  0.9971229E-01
         -2   -1    0    0    0  501 -0.00000000000E+00  0.00000000000E+00  0.75161161647E+02  0.75161161691E+02  0.25500000000E-02 0. -1.
          2   -1    0    0  501    0  0.00000000000E+00 -0.00000000000E+00 -0.10780243116E+04  0.10780243116E+04  0.25500000000E-02 0.  1.
    5000001    1    1    2    0    0  0.19033427233E+03 -0.94571132946E+02 -0.54720904353E+03  0.61640292970E+03  0.18800000000E+03 0.  0.
   -5000001    1    1    2    0    0 -0.19033427233E+03  0.94571132946E+02 -0.45565410639E+03  0.53678254357E+03  0.18800000000E+03 0.  0.
<mgrwt>
<rscale>  0 0.56929978E+03</rscale>
<asrwt>0</asrwt>
<pdfrwt beam="1">  1        2 0.15400346E+00 0.56929978E+03</pdfrwt>
<pdfrwt beam="2">  1       -2 0.10737309E-01 0.56929978E+03</pdfrwt>
<totfact> 0.15472820E+03</totfact>
</mgrwt>
</event>
<event>
 4    1  0.2153371E-005  0.7200077E+03  0.7818608E-02  0.9683615E-01
          2   -1    0    0  501    0  0.00000000000E+00  0.00000000000E+00  0.84286832389E+03  0.84286832389E+03  0.25500000000E-02 0.  1.
         -2   -1    0    0    0  501 -0.00000000000E+00 -0.00000000000E+00 -0.15376396077E+03  0.15376396079E+03  0.25500000000E-02 0. -1.
    5000001    1    1    2    0    0 -0.22633532746E+03 -0.39396302216E+02  0.62646321199E+03  0.69323870713E+03  0.18800000000E+03 0.  0.
   -5000001    1    1    2    0    0  0.22633532746E+03  0.39396302216E+02  0.62641151122E+02  0.30339357755E+03  0.18800000000E+03 0.  0.
<mgrwt>
<rscale>  0 0.72000770E+03</rscale>
<asrwt>0</asrwt>
<pdfrwt beam="1">  1        2 0.12040976E+00 0.72000770E+03</pdfrwt>
<pdfrwt beam="2">  1       -2 0.21966280E-01 0.72000770E+03</pdfrwt>
<totfact> 0.64407245E+02</totfact>
</mgrwt>
</event>
<event>
 4    1  0.2153371E-005  0.4267737E+03  0.7818608E-02  0.1034884E+00
         -2   -1    0    0    0  501 -0.00000000000E+00  0.00000000000E+00  0.52225825465E+02  0.52225825527E+02  0.25500000000E-02 0. -1.
          2   -1    0    0  501    0  0.00000000000E+00 -0.00000000000E+00 -0.87186646888E+03  0.87186646888E+03  0.25500000000E-02 0.  1.
    5000001    1    1    2    0    0  0.20376466954E+01  0.92117316057E+02 -0.49910294999E+03  0.54123701519E+03  0.18800000000E+03 0.  0.
   -5000001    1    1    2    0    0 -0.20376466954E+01 -0.92117316057E+02 -0.32053769342E+03  0.38285527922E+03  0.18800000000E+03 0.  0.
<mgrwt>
<rscale>  0 0.42677369E+03</rscale>
<asrwt>0</asrwt>
<pdfrwt beam="1">  1        2 0.12455234E+00 0.42677369E+03</pdfrwt>
<pdfrwt beam="2">  1       -2 0.74608328E-02 0.42677369E+03</pdfrwt>
<totfact> 0.37088219E+03</totfact>
</mgrwt>
</event>
<event>
 4    1  0.2153371E-005  0.5052999E+03  0.7818608E-02  0.1012405E+00
          2   -1    0    0  501    0  0.00000000000E+00  0.00000000000E+00  0.43364710529E+03  0.43364710529E+03  0.25500000000E-02 0.  1.
         -2   -1    0    0    0  501 -0.00000000000E+00 -0.00000000000E+00 -0.14719800560E+03  0.14719800562E+03  0.25500000000E-02 0. -1.
    5000001    1    1    2    0    0 -0.13777009373E+03 -0.96768746755E+02  0.12946885263E+03  0.28363880707E+03  0.18800000000E+03 0.  0.
   -5000001    1    1    2    0    0  0.13777009373E+03  0.96768746755E+02  0.15698024706E+03  0.29720630384E+03  0.18800000000E+03 0.  0.
<mgrwt>
<rscale>  0 0.50529987E+03</rscale>
<asrwt>0</asrwt>
<pdfrwt beam="1">  1        2 0.61949587E-01 0.50529987E+03</pdfrwt>
<pdfrwt beam="2">  1       -2 0.21028286E-01 0.50529987E+03</pdfrwt>
<totfact> 0.15379717E+03</totfact>
</mgrwt>
</event>
<event>
 4    1  0.2153371E-005  0.5456922E+03  0.7818608E-02  0.1002496E+00
         -2   -1    0    0    0  501 -0.00000000000E+00  0.00000000000E+00  0.46391579354E+02  0.46391579424E+02  0.25500000000E-02 0. -1.
          2   -1    0    0  501    0  0.00000000000E+00 -0.00000000000E+00 -0.16047090253E+04  0.16047090253E+04  0.25500000000E-02 0.  1.
    5000001    1    1    2    0    0 -0.12970087010E+03 -0.14478881694E+03 -0.88887398523E+03  0.92910014468E+03  0.18800000000E+03 0.  0.
   -5000001    1    1    2    0    0  0.12970087010E+03  0.14478881694E+03 -0.66944346071E+03  0.72200046005E+03  0.18800000000E+03 0.  0.
<mgrwt>
<rscale>  0 0.54569217E+03</rscale>
<asrwt>0</asrwt>
<pdfrwt beam="1">  1        2 0.22924411E+00 0.54569217E+03</pdfrwt>
<pdfrwt beam="2">  1       -2 0.66273695E-02 0.54569217E+03</pdfrwt>
<totfact> 0.17376515E+03</totfact>
</mgrwt>
</event>
<event>
 4    1  0.2153371E-005  0.4586391E+03  0.7818608E-02  0.1025177E+00
         -2   -1    0    0    0  501 -0.00000000000E+00  0.00000000000E+00  0.14658263231E+02  0.14658263453E+02  0.25500000000E-02 0. -1.
          2   -1    0    0  501    0  0.00000000000E+00 -0.00000000000E+00 -0.35875637090E+04  0.35875637090E+04  0.25500000000E-02 0.  1.
    5000001    1    1    2    0    0 -0.10879957559E+03 -0.43941069033E+02 -0.13234379686E+04  0.13418644573E+04  0.18800000000E+03 0.  0.
   -5000001    1    1    2    0    0  0.10879957559E+03  0.43941069033E+02 -0.22494674772E+04  0.22603575151E+04  0.18800000000E+03 0.  0.
<mgrwt>
<rscale>  0 0.45863909E+03</rscale>
<asrwt>0</asrwt>
<pdfrwt beam="1">  1        2 0.51250854E+00 0.45863909E+03</pdfrwt>
<pdfrwt beam="2">  1       -2 0.20940399E-02 0.45863909E+03</pdfrwt>
<totfact> 0.91438420E+02</totfact>
</mgrwt>
</event>
<event>
 4    1  0.2153371E-005  0.4557513E+03  0.7818608E-02  0.1026021E+00
          2   -1    0    0  501    0  0.00000000000E+00  0.00000000000E+00  0.18376635988E+03  0.18376635990E+03  0.25500000000E-02 0.  1.
         -2   -1    0    0    0  501 -0.00000000000E+00 -0.00000000000E+00 -0.28257243200E+03  0.28257243201E+03  0.25500000000E-02 0. -1.
    5000001    1    1    2    0    0  0.42998444779E+02 -0.51642131961E+02 -0.16180731953E+03  0.25698518381E+03  0.18800000000E+03 0.  0.
   -5000001    1    1    2    0    0 -0.42998444779E+02  0.51642131961E+02  0.63001247408E+02  0.20935360809E+03  0.18800000000E+03 0.  0.
<mgrwt>
<rscale>  0 0.45575128E+03</rscale>
<asrwt>0</asrwt>
<pdfrwt beam="1">  1        2 0.26252337E-01 0.45575128E+03</pdfrwt>
<pdfrwt beam="2">  1       -2 0.40367490E-01 0.45575128E+03</pdfrwt>
<totfact> 0.12017828E+03</totfact>
</mgrwt>
</event>
<event>
 4    1  0.2153371E-005  0.5815398E+03  0.7818608E-02  0.9944463E-01
         -2   -1    0    0    0  501 -0.00000000000E+00  0.00000000000E+00  0.23094683954E+03  0.23094683955E+03  0.25500000000E-02 0. -1.
          2   -1    0    0  501    0  0.00000000000E+00 -0.00000000000E+00 -0.36608916561E+03  0.36608916562E+03  0.25500000000E-02 0.  1.
    5000001    1    1    2    0    0 -0.18554756154E+03  0.61793750206E+02  0.39892678777E+02  0.27419298127E+03  0.18800000000E+03 0.  0.
   -5000001    1    1    2    0    0  0.18554756154E+03 -0.61793750206E+02 -0.17503500486E+03  0.32284302390E+03  0.18800000000E+03 0.  0.
<mgrwt>
<rscale>  0 0.58153980E+03</rscale>
<asrwt>0</asrwt>
<pdfrwt beam="1">  1        2 0.52298452E-01 0.58153980E+03</pdfrwt>
<pdfrwt beam="2">  1       -2 0.32992406E-01 0.58153980E+03</pdfrwt>
<totfact> 0.82185685E+02</totfact>
</mgrwt>
</event>
<event>
 4    1  0.2153371E-005  0.4451884E+03  0.7818608E-02  0.1029167E+00
          2   -1    0    0  501    0  0.00000000000E+00  0.00000000000E+00  0.10037682801E+04  0.10037682801E+04  0.25500000000E-02 0.  1.
         -2   -1    0    0    0  501 -0.00000000000E+00 -0.00000000000E+00 -0.49362171936E+02  0.49362172002E+02  0.25500000000E-02 0. -1.
    5000001    1    1    2    0    0 -0.77902768356E+02  0.83519331683E+02  0.39663895733E+03  0.45355350572E+03  0.18800000000E+03 0.  0.
   -5000001    1    1    2    0    0  0.77902768356E+02 -0.83519331683E+02  0.55776715083E+03  0.59957694638E+03  0.18800000000E+03 0.  0.
<mgrwt>
<rscale>  0 0.44518842E+03</rscale>
<asrwt>0</asrwt>
<pdfrwt beam="1">  1        2 0.14339545E+00 0.44518842E+03</pdfrwt>
<pdfrwt beam="2">  1       -2 0.70517398E-02 0.44518842E+03</pdfrwt>
<totfact> 0.33542998E+03</totfact>
</mgrwt>
</event>
<event>
 4    1  0.2153371E-005  0.5712354E+03  0.7818608E-02  0.9966949E-01
          2   -1    0    0  501    0  0.00000000000E+00  0.00000000000E+00  0.20706453413E+04  0.20706453413E+04  0.25500000000E-02 0.  1.
         -2   -1    0    0    0  501 -0.00000000000E+00 -0.00000000000E+00 -0.39397118560E+02  0.39397118642E+02  0.25500000000E-02 0. -1.
    5000001    1    1    2    0    0  0.78939477525E+02 -0.18481469593E+03  0.12980397184E+04  0.13268907353E+04  0.18800000000E+03 0.  0.
   -5000001    1    1    2    0    0 -0.78939477525E+02  0.18481469593E+03  0.73320850437E+03  0.78315172465E+03  0.18800000000E+03 0.  0.
<mgrwt>
<rscale>  0 0.57123536E+03</rscale>
<asrwt>0</asrwt>
<pdfrwt beam="1">  1        2 0.29580657E+00 0.57123536E+03</pdfrwt>
<pdfrwt beam="2">  1       -2 0.56281581E-02 0.57123536E+03</pdfrwt>
<totfact> 0.13052498E+03</totfact>
</mgrwt>
</event>
<event>
 4    1  0.2153371E-005  0.5672186E+03  0.7818608E-02  0.9975852E-01
          2   -1    0    0  501    0  0.00000000000E+00  0.00000000000E+00  0.12691240702E+04  0.12691240702E+04  0.25500000000E-02 0.  1.
         -2   -1    0    0    0  501 -0.00000000000E+00 -0.00000000000E+00 -0.63377765974E+02  0.63377766025E+02  0.25500000000E-02 0. -1.
    5000001    1    1    2    0    0 -0.39506749546E+02  0.16941411232E+03  0.88893724285E+03  0.92510288425E+03  0.18800000000E+03 0.  0.
   -5000001    1    1    2    0    0  0.39506749546E+02 -0.16941411232E+03  0.31680906142E+03  0.40739895203E+03  0.18800000000E+03 0.  0.
<mgrwt>
<rscale>  0 0.56721865E+03</rscale>
<asrwt>0</asrwt>
<pdfrwt beam="1">  1        2 0.18130343E+00 0.56721865E+03</pdfrwt>
<pdfrwt beam="2">  1       -2 0.90539672E-02 0.56721865E+03</pdfrwt>
<totfact> 0.15898212E+03</totfact>
</mgrwt>
</event>
<event>
 4    1  0.2153371E-005  0.6579039E+03  0.7818608E-02  0.9792060E-01
          2   -1    0    0  501    0  0.00000000000E+00  0.00000000000E+00  0.15607134340E+03  0.15607134342E+03  0.25500000000E-02 0.  1.
         -2   -1    0    0    0  501 -0.00000000000E+00 -0.00000000000E+00 -0.69333278693E+03  0.69333278694E+03  0.25500000000E-02 0. -1.
    5000001    1    1    2    0    0  0.54157270987E+02 -0.20572722570E+03 -0.54107294831E+02  0.28901263078E+03  0.18800000000E+03 0.  0.
   -5000001    1    1    2    0    0 -0.54157270987E+02  0.20572722570E+03 -0.48315414870E+03  0.56039149958E+03  0.18800000000E+03 0.  0.
<mgrwt>
<rscale>  0 0.65790388E+03</rscale>
<asrwt>0</asrwt>
<pdfrwt beam="1">  1        2 0.22295907E-01 0.65790388E+03</pdfrwt>
<pdfrwt beam="2">  1       -2 0.99047539E-01 0.65790388E+03</pdfrwt>
<totfact> 0.21370403E+02</totfact>
</mgrwt>
</event>
<event>
 4    1  0.2153371E-005  0.7883742E+03  0.7818608E-02  0.9576999E-01
         -2   -1    0    0    0  501 -0.00000000000E+00  0.00000000000E+00  0.26343753922E+03  0.26343753923E+03  0.25500000000E-02 0. -1.
          2   -1    0    0  501    0  0.00000000000E+00 -0.00000000000E+00 -0.58983043562E+03  0.58983043563E+03  0.25500000000E-02 0.  1.
    5000001    1    1    2    0    0  0.25099085769E+02  0.25589306305E+03  0.88143321621E+02  0.33049125400E+03  0.18800000000E+03 0.  0.
   -5000001    1    1    2    0    0 -0.25099085769E+02 -0.25589306305E+03 -0.41453621802E+03  0.52277672086E+03  0.18800000000E+03 0.  0.
<mgrwt>
<rscale>  0 0.78837422E+03</rscale>
<asrwt>0</asrwt>
<pdfrwt beam="1">  1        2 0.84261491E-01 0.78837422E+03</pdfrwt>
<pdfrwt beam="2">  1       -2 0.37633934E-01 0.78837422E+03</pdfrwt>
<totfact> 0.37054087E+02</totfact>
</mgrwt>
</event>
<event>
 4    1  0.2153371E-005  0.4774780E+03  0.7818608E-02  0.1019831E+00
         -2   -1    0    0    0  501 -0.00000000000E+00  0.00000000000E+00  0.25270221298E+03  0.25270221299E+03  0.25500000000E-02 0. -1.
          2   -1    0    0  501    0  0.00000000000E+00 -0.00000000000E+00 -0.22554732397E+03  0.22554732399E+03  0.25500000000E-02 0.  1.
    5000001    1    1    2    0    0  0.13961227178E+03 -0.38366304906E+02 -0.12708973804E+02  0.23763223224E+03  0.18800000000E+03 0.  0.
   -5000001    1    1    2    0    0 -0.13961227178E+03  0.38366304906E+02  0.39863862813E+02  0.24061730474E+03  0.18800000000E+03 0.  0.
<mgrwt>
<rscale>  0 0.47747799E+03</rscale>
<asrwt>0</asrwt>
<pdfrwt beam="1">  1        2 0.32221046E-01 0.47747799E+03</pdfrwt>
<pdfrwt beam="2">  1       -2 0.36100316E-01 0.47747799E+03</pdfrwt>
<totfact> 0.11837630E+03</totfact>
</mgrwt>
</event>
<event>
 4    1  0.2153371E-005  0.7021165E+03  0.7818608E-02  0.9713619E-01
         -2   -1    0    0    0  501 -0.00000000000E+00  0.00000000000E+00  0.10520177250E+03  0.10520177253E+03  0.25500000000E-02 0. -1.
          2   -1    0    0  501    0  0.00000000000E+00 -0.00000000000E+00 -0.11714812899E+04  0.11714812899E+04  0.25500000000E-02 0.  1.
    5000001    1    1    2    0    0  0.88633760438E+02  0.11016676340E+03 -0.10069730457E+04  0.10340848002E+04  0.18800000000E+03 0.  0.
   -5000001    1    1    2    0    0 -0.88633760438E+02 -0.11016676340E+03 -0.59306471700E+02  0.24259826222E+03  0.18800000000E+03 0.  0.
<mgrwt>
<rscale>  0 0.70211654E+03</rscale>
<asrwt>0</asrwt>
<pdfrwt beam="1">  1        2 0.16735446E+00 0.70211654E+03</pdfrwt>
<pdfrwt beam="2">  1       -2 0.15028825E-01 0.70211654E+03</pdfrwt>
<totfact> 0.77971562E+02</totfact>
</mgrwt>
</event>
<event>
 4    1  0.2153371E-005  0.4307484E+03  0.7818608E-02  0.1033624E+00
          2   -1    0    0  501    0  0.00000000000E+00  0.00000000000E+00  0.91360753272E+03  0.91360753272E+03  0.25500000000E-02 0.  1.
         -2   -1    0    0    0  501 -0.00000000000E+00 -0.00000000000E+00 -0.50772405672E+02  0.50772405736E+02  0.25500000000E-02 0. -1.
    5000001    1    1    2    0    0  0.54553595159E+02 -0.89796764571E+02  0.42787860082E+03  0.47902364316E+03  0.18800000000E+03 0.  0.
   -5000001    1    1    2    0    0 -0.54553595159E+02  0.89796764571E+02  0.43495652623E+03  0.48535629530E+03  0.18800000000E+03 0.  0.
<mgrwt>
<rscale>  0 0.43074843E+03</rscale>
<asrwt>0</asrwt>
<pdfrwt beam="1">  1        2 0.13051535E+00 0.43074843E+03</pdfrwt>
<pdfrwt beam="2">  1       -2 0.72532012E-02 0.43074843E+03</pdfrwt>
<totfact> 0.36460044E+03</totfact>
</mgrwt>
</event>
<event>
 4    1  0.2153371E-005  0.4264819E+03  0.7818608E-02  0.1034977E+00
         -2   -1    0    0    0  501 -0.00000000000E+00  0.00000000000E+00  0.34200164985E+02  0.34200165081E+02  0.25500000000E-02 0. -1.
          2   -1    0    0  501    0  0.00000000000E+00 -0.00000000000E+00 -0.13295755940E+04  0.13295755940E+04  0.25500000000E-02 0.  1.
    5000001    1    1    2    0    0 -0.54799860495E+02  0.84056823459E+02 -0.67227711768E+03  0.70524399837E+03  0.18800000000E+03 0.  0.
   -5000001    1    1    2    0    0  0.54799860495E+02 -0.84056823459E+02 -0.62309831133E+03  0.65853176071E+03  0.18800000000E+03 0.  0.
<mgrwt>
<rscale>  0 0.42648191E+03</rscale>
<asrwt>0</asrwt>
<pdfrwt beam="1">  1        2 0.18993934E+00 0.42648191E+03</pdfrwt>
<pdfrwt beam="2">  1       -2 0.48857387E-02 0.42648191E+03</pdfrwt>
<totfact> 0.38880471E+03</totfact>
</mgrwt>
</event>
<event>
 4    1  0.2153371E-005  0.1487560E+04  0.7818608E-02  0.8892768E-01
         -2   -1    0    0    0  501 -0.00000000000E+00  0.00000000000E+00  0.22467517864E+03  0.22467517866E+03  0.25500000000E-02 0. -1.
          2   -1    0    0  501    0  0.00000000000E+00 -0.00000000000E+00 -0.24622599422E+04  0.24622599422E+04  0.25500000000E-02 0.  1.
    5000001    1    1    2    0    0  0.60495603012E+03  0.16397140637E+03 -0.48016345172E+03  0.81163992069E+03  0.18800000000E+03 0.  0.
   -5000001    1    1    2    0    0 -0.60495603012E+03 -0.16397140637E+03 -0.17574213118E+04  0.18752952002E+04  0.18800000000E+03 0.  0.
<mgrwt>
<rscale>  0 0.14875600E+04</rscale>
<asrwt>0</asrwt>
<pdfrwt beam="1">  1        2 0.35175140E+00 0.14875600E+04</pdfrwt>
<pdfrwt beam="2">  1       -2 0.32096456E-01 0.14875600E+04</pdfrwt>
<totfact> 0.40426654E+01</totfact>
</mgrwt>
</event>
<event>
 4    1  0.2153371E-005  0.4329668E+03  0.7818608E-02  0.1032927E+00
         -2   -1    0    0    0  501 -0.00000000000E+00  0.00000000000E+00  0.19721184043E+02  0.19721184208E+02  0.25500000000E-02 0. -1.
          2   -1    0    0  501    0  0.00000000000E+00 -0.00000000000E+00 -0.23763814350E+04  0.23763814350E+04  0.25500000000E-02 0.  1.
    5000001    1    1    2    0    0  0.50143960028E+02 -0.93690660495E+02 -0.10946382669E+04  0.11157371070E+04  0.18800000000E+03 0.  0.
   -5000001    1    1    2    0    0 -0.50143960028E+02  0.93690660495E+02 -0.12620219840E+04  0.12803655122E+04  0.18800000000E+03 0.  0.
<mgrwt>
<rscale>  0 0.43296677E+03</rscale>
<asrwt>0</asrwt>
<pdfrwt beam="1">  1        2 0.33948288E+00 0.43296677E+03</pdfrwt>
<pdfrwt beam="2">  1       -2 0.28173135E-02 0.43296677E+03</pdfrwt>
<totfact> 0.26631261E+03</totfact>
</mgrwt>
</event>
<event>
 4    1  0.2153371E-005  0.5906665E+03  0.7818608E-02  0.9924962E-01
          2   -1    0    0  501    0  0.00000000000E+00  0.00000000000E+00  0.10666226858E+04  0.10666226858E+04  0.25500000000E-02 0.  1.
         -2   -1    0    0    0  501 -0.00000000000E+00 -0.00000000000E+00 -0.81773739917E+02  0.81773739957E+02  0.25500000000E-02 0. -1.
    5000001    1    1    2    0    0  0.74516662855E+02  0.20178691701E+03  0.63800928222E+03  0.69904973866E+03  0.18800000000E+03 0.  0.
   -5000001    1    1    2    0    0 -0.74516662855E+02 -0.20178691701E+03  0.34683966365E+03  0.44934668709E+03  0.18800000000E+03 0.  0.
<mgrwt>
<rscale>  0 0.59066649E+03</rscale>
<asrwt>0</asrwt>
<pdfrwt beam="1">  1        2 0.15237466E+00 0.59066649E+03</pdfrwt>
<pdfrwt beam="2">  1       -2 0.11681964E-01 0.59066649E+03</pdfrwt>
<totfact> 0.13684264E+03</totfact>
</mgrwt>
</event>
<event>
 4    1  0.2153371E-005  0.6844094E+03  0.7818608E-02  0.9744272E-01
          2   -1    0    0  501    0  0.00000000000E+00  0.00000000000E+00  0.36311821355E+04  0.36311821355E+04  0.25500000000E-02 0.  1.
         -2   -1    0    0    0  501 -0.00000000000E+00 -0.00000000000E+00 -0.32249568047E+02  0.32249568147E+02  0.25500000000E-02 0. -1.
    5000001    1    1    2    0    0  0.15184111656E+03 -0.79638908268E+02  0.30243084985E+04  0.30349932413E+04  0.18800000000E+03 0.  0.
   -5000001    1    1    2    0    0 -0.15184111656E+03  0.79638908268E+02  0.57462406894E+03  0.62843846237E+03  0.18800000000E+03 0.  0.
<mgrwt>
<rscale>  0 0.68440940E+03</rscale>
<asrwt>0</asrwt>
<pdfrwt beam="1">  1        2 0.51874048E+00 0.68440940E+03</pdfrwt>
<pdfrwt beam="2">  1       -2 0.46070796E-02 0.68440940E+03</pdfrwt>
<totfact> 0.25219884E+02</totfact>
</mgrwt>
</event>
<event>
 4    1  0.2153371E-005  0.5417107E+03  0.7818608E-02  0.1003431E+00
          2   -1    0    0  501    0  0.00000000000E+00  0.00000000000E+00  0.50100591359E+03  0.50100591360E+03  0.25500000000E-02 0.  1.
         -2   -1    0    0    0  501 -0.00000000000E+00 -0.00000000000E+00 -0.14643064921E+03  0.14643064923E+03  0.25500000000E-02 0. -1.
    5000001    1    1    2    0    0 -0.17376225240E+03 -0.85912961698E+02  0.20247891552E+03  0.33751454572E+03  0.18800000000E+03 0.  0.
   -5000001    1    1    2    0    0  0.17376225240E+03  0.85912961698E+02  0.15209634887E+03  0.30992201710E+03  0.18800000000E+03 0.  0.
<mgrwt>
<rscale>  0 0.54171070E+03</rscale>
<asrwt>0</asrwt>
<pdfrwt beam="1">  1        2 0.71572274E-01 0.54171070E+03</pdfrwt>
<pdfrwt beam="2">  1       -2 0.20918664E-01 0.54171070E+03</pdfrwt>
<totfact> 0.13198856E+03</totfact>
</mgrwt>
</event>
<event>
 4    1  0.2153371E-005  0.6045817E+03  0.7818608E-02  0.9895946E-01
         -2   -1    0    0    0  501 -0.00000000000E+00  0.00000000000E+00  0.62284553832E+03  0.62284553832E+03  0.25500000000E-02 0. -1.
          2   -1    0    0  501    0  0.00000000000E+00 -0.00000000000E+00 -0.14671334854E+03  0.14671334856E+03  0.25500000000E-02 0.  1.
    5000001    1    1    2    0    0  0.22444622042E+03  0.71027157830E+02  0.20650509070E+03  0.36525239972E+03  0.18800000000E+03 0.  0.
   -5000001    1    1    2    0    0 -0.22444622042E+03 -0.71027157830E+02  0.26962709908E+03  0.40430648717E+03  0.18800000000E+03 0.  0.
<mgrwt>
<rscale>  0 0.60458169E+03</rscale>
<asrwt>0</asrwt>
<pdfrwt beam="1">  1        2 0.20959049E-01 0.60458169E+03</pdfrwt>
<pdfrwt beam="2">  1       -2 0.88977935E-01 0.60458169E+03</pdfrwt>
<totfact> 0.29496986E+02</totfact>
</mgrwt>
</event>
<event>
 4    1  0.2153371E-005  0.5526862E+03  0.7818608E-02  0.1000874E+00
         -2   -1    0    0    0  501 -0.00000000000E+00  0.00000000000E+00  0.31703996743E+02  0.31703996845E+02  0.25500000000E-02 0. -1.
          2   -1    0    0  501    0  0.00000000000E+00 -0.00000000000E+00 -0.24087025850E+04  0.24087025850E+04  0.25500000000E-02 0.  1.
    5000001    1    1    2    0    0  0.15030809557E+03  0.10361906913E+03 -0.15757614315E+04  0.15974033692E+04  0.18800000000E+03 0.  0.
   -5000001    1    1    2    0    0 -0.15030809557E+03 -0.10361906913E+03 -0.80123715678E+03  0.84300321262E+03  0.18800000000E+03 0.  0.
<mgrwt>
<rscale>  0 0.55268616E+03</rscale>
<asrwt>0</asrwt>
<pdfrwt beam="1">  1        2 0.34410025E+00 0.55268616E+03</pdfrwt>
<pdfrwt beam="2">  1       -2 0.45291439E-02 0.55268616E+03</pdfrwt>
<totfact> 0.12361771E+03</totfact>
</mgrwt>
</event>
<event>
 4    1  0.2153371E-005  0.4666540E+03  0.7818608E-02  0.1022869E+00
         -2   -1    0    0    0  501 -0.00000000000E+00  0.00000000000E+00  0.22236297527E+03  0.22236297528E+03  0.25500000000E-02 0. -1.
          2   -1    0    0  501    0  0.00000000000E+00 -0.00000000000E+00 -0.24483161234E+03  0.24483161236E+03  0.25500000000E-02 0.  1.
    5000001    1    1    2    0    0 -0.10773279578E+03  0.62827130403E+02 -0.70833796990E+02  0.23646359212E+03  0.18800000000E+03 0.  0.
   -5000001    1    1    2    0    0  0.10773279578E+03 -0.62827130403E+02  0.48365159914E+02  0.23073099552E+03  0.18800000000E+03 0.  0.
<mgrwt>
<rscale>  0 0.46665399E+03</rscale>
<asrwt>0</asrwt>
<pdfrwt beam="1">  1        2 0.34975945E-01 0.46665399E+03</pdfrwt>
<pdfrwt beam="2">  1       -2 0.31766139E-01 0.46665399E+03</pdfrwt>
<totfact> 0.13738218E+03</totfact>
</mgrwt>
</event>
<event>
 4    1  0.2153371E-005  0.6016969E+03  0.7818608E-02  0.9901892E-01
         -2   -1    0    0    0  501 -0.00000000000E+00  0.00000000000E+00  0.89054205196E+02  0.89054205233E+02  0.25500000000E-02 0. -1.
          2   -1    0    0  501    0  0.00000000000E+00 -0.00000000000E+00 -0.10163450405E+04  0.10163450405E+04  0.25500000000E-02 0.  1.
    5000001    1    1    2    0    0  0.20431314051E+03 -0.34554000433E+02 -0.26049468308E+03  0.38228172628E+03  0.18800000000E+03 0.  0.
   -5000001    1    1    2    0    0 -0.20431314051E+03  0.34554000433E+02 -0.66679615227E+03  0.72311751950E+03  0.18800000000E+03 0.  0.
<mgrwt>
<rscale>  0 0.60169693E+03</rscale>
<asrwt>0</asrwt>
<pdfrwt beam="1">  1        2 0.14519214E+00 0.60169693E+03</pdfrwt>
<pdfrwt beam="2">  1       -2 0.12722030E-01 0.60169693E+03</pdfrwt>
<totfact> 0.12737386E+03</totfact>
</mgrwt>
</event>
<event>
 4    1  0.2153371E-005  0.4560200E+03  0.7818608E-02  0.1025942E+00
         -2   -1    0    0    0  501 -0.00000000000E+00  0.00000000000E+00  0.90042508619E+02  0.90042508655E+02  0.25500000000E-02 0. -1.
          2   -1    0    0  501    0  0.00000000000E+00 -0.00000000000E+00 -0.57737788301E+03  0.57737788302E+03  0.25500000000E-02 0.  1.
    5000001    1    1    2    0    0 -0.86180544439E+02 -0.59410538516E+02 -0.13328782250E+03  0.25311329865E+03  0.18800000000E+03 0.  0.
   -5000001    1    1    2    0    0  0.86180544439E+02  0.59410538516E+02 -0.35404755190E+03  0.41430709302E+03  0.18800000000E+03 0.  0.
<mgrwt>
<rscale>  0 0.45601997E+03</rscale>
<asrwt>0</asrwt>
<pdfrwt beam="1">  1        2 0.82482553E-01 0.45601997E+03</pdfrwt>
<pdfrwt beam="2">  1       -2 0.12863216E-01 0.45601997E+03</pdfrwt>
<totfact> 0.25558875E+03</totfact>
</mgrwt>
</event>
<event>
 4    1  0.2153371E-005  0.4444057E+03  0.7818608E-02  0.1029404E+00
          2   -1    0    0  501    0  0.00000000000E+00  0.00000000000E+00  0.36914134843E+03  0.36914134844E+03  0.25500000000E-02 0.  1.
         -2   -1    0    0    0  501 -0.00000000000E+00 -0.00000000000E+00 -0.13375395905E+03  0.13375395908E+03  0.25500000000E-02 0. -1.
    5000001    1    1    2    0    0 -0.89230990710E+02 -0.28433190754E+02  0.19976100105E+03  0.28986043810E+03  0.18800000000E+03 0.  0.
   -5000001    1    1    2    0    0  0.89230990710E+02  0.28433190754E+02  0.35626388335E+02  0.21303486941E+03  0.18800000000E+03 0.  0.
<mgrwt>
<rscale>  0 0.44440575E+03</rscale>
<asrwt>0</asrwt>
<pdfrwt beam="1">  1        2 0.52734479E-01 0.44440575E+03</pdfrwt>
<pdfrwt beam="2">  1       -2 0.19107708E-01 0.44440575E+03</pdfrwt>
<totfact> 0.21670084E+03</totfact>
</mgrwt>
</event>
<event>
 4    1  0.2153371E-005  0.4386627E+03  0.7818608E-02  0.1031158E+00
          2   -1    0    0  501    0  0.00000000000E+00  0.00000000000E+00  0.17946227872E+04  0.17946227872E+04  0.25500000000E-02 0.  1.
         -2   -1    0    0    0  501 -0.00000000000E+00 -0.00000000000E+00 -0.26805763725E+02  0.26805763846E+02  0.25500000000E-02 0. -1.
    5000001    1    1    2    0    0 -0.98668135462E+02 -0.17667930992E+02  0.11002503951E+04  0.11206883994E+04  0.18800000000E+03 0.  0.
   -5000001    1    1    2    0    0  0.98668135462E+02  0.17667930992E+02  0.66756662835E+03  0.70074015157E+03  0.18800000000E+03 0.  0.
<mgrwt>
<rscale>  0 0.43866267E+03</rscale>
<asrwt>0</asrwt>
<pdfrwt beam="1">  1        2 0.25637472E+00 0.43866267E+03</pdfrwt>
<pdfrwt beam="2">  1       -2 0.38293942E-02 0.43866267E+03</pdfrwt>
<totfact> 0.32611209E+03</totfact>
</mgrwt>
</event>
<event>
 4    1  0.2153371E-005  0.6007967E+03  0.7818608E-02  0.9903755E-01
         -2   -1    0    0    0  501 -0.00000000000E+00  0.00000000000E+00  0.23995111777E+02  0.23995111912E+02  0.25500000000E-02 0.  1.
          2   -1    0    0  501    0  0.00000000000E+00 -0.00000000000E+00 -0.37607308820E+04  0.37607308820E+04  0.25500000000E-02 0. -1.
    5000001    1    1    2    0    0 -0.14613069915E+03  0.18308222557E+03 -0.18978315469E+04  0.19214530603E+04  0.18800000000E+03 0.  0.
   -5000001    1    1    2    0    0  0.14613069915E+03 -0.18308222557E+03 -0.18389042233E+04  0.18632729336E+04  0.18800000000E+03 0.  0.
<mgrwt>
<rscale>  0 0.60079666E+03</rscale>
<asrwt>0</asrwt>
<pdfrwt beam="1">  1        2 0.53724689E+00 0.60079666E+03</pdfrwt>
<pdfrwt beam="2">  1       -2 0.34278755E-02 0.60079666E+03</pdfrwt>
<totfact> 0.33375757E+02</totfact>
</mgrwt>
</event>
<event>
 4    1  0.2153371E-005  0.5649588E+03  0.7818608E-02  0.9980897E-01
          2   -1    0    0  501    0  0.00000000000E+00  0.00000000000E+00  0.10415868196E+04  0.10415868196E+04  0.25500000000E-02 0.  1.
         -2   -1    0    0    0  501 -0.00000000000E+00 -0.00000000000E+00 -0.76608685997E+02  0.76608686039E+02  0.25500000000E-02 0. -1.
    5000001    1    1    2    0    0  0.19907686102E+03  0.64785909748E+02  0.53184300333E+03  0.60168911482E+03  0.18800000000E+03 0.  0.
   -5000001    1    1    2    0    0 -0.19907686102E+03 -0.64785909748E+02  0.43313513030E+03  0.51650639085E+03  0.18800000000E+03 0.  0.
<mgrwt>
<rscale>  0 0.56495875E+03</rscale>
<asrwt>0</asrwt>
<pdfrwt beam="1">  1        2 0.14879811E+00 0.56495875E+03</pdfrwt>
<pdfrwt beam="2">  1       -2 0.10944098E-01 0.56495875E+03</pdfrwt>
<totfact> 0.15762659E+03</totfact>
</mgrwt>
</event>
<event>
 4    1  0.2153371E-005  0.5035773E+03  0.7818608E-02  0.1012849E+00
         -2   -1    0    0    0  501 -0.00000000000E+00  0.00000000000E+00  0.39724613594E+02  0.39724613676E+02  0.25500000000E-02 0.  1.
          2   -1    0    0  501    0  0.00000000000E+00 -0.00000000000E+00 -0.15959252376E+04  0.15959252376E+04  0.25500000000E-02 0. -1.
    5000001    1    1    2    0    0 -0.12098045728E+03  0.11262933821E+03 -0.69022991997E+03  0.73422270551E+03  0.18800000000E+03 0.  0.
   -5000001    1    1    2    0    0  0.12098045728E+03 -0.11262933821E+03 -0.86597070400E+03  0.90142714573E+03  0.18800000000E+03 0.  0.
<mgrwt>
<rscale>  0 0.50357726E+03</rscale>
<asrwt>0</asrwt>
<pdfrwt beam="1">  1        2 0.22798928E+00 0.50357726E+03</pdfrwt>
<pdfrwt beam="2">  1       -2 0.56749458E-02 0.50357726E+03</pdfrwt>
<totfact> 0.22403073E+03</totfact>
</mgrwt>
</event>
<event>
 4    1  0.2153371E-005  0.7076258E+03  0.7818608E-02  0.9704279E-01
         -2   -1    0    0    0  501 -0.00000000000E+00  0.00000000000E+00  0.36534913097E+02  0.36534913186E+02  0.25500000000E-02 0. -1.
          2   -1    0    0  501    0  0.00000000000E+00 -0.00000000000E+00 -0.34264092378E+04  0.34264092378E+04  0.25500000000E-02 0.  1.
    5000001    1    1    2    0    0 -0.16954318450E+02  0.24359207961E+03 -0.84428260308E+03  0.89876674617E+03  0.18800000000E+03 0.  0.
   -5000001    1    1    2    0    0  0.16954318450E+02 -0.24359207961E+03 -0.25455917216E+04  0.25641774048E+04  0.18800000000E+03 0.  0.
<mgrwt>
<rscale>  0 0.70762579E+03</rscale>
<asrwt>0</asrwt>
<pdfrwt beam="1">  1        2 0.48948683E+00 0.70762579E+03</pdfrwt>
<pdfrwt beam="2">  1       -2 0.52192755E-02 0.70762579E+03</pdfrwt>
<totfact> 0.27488364E+02</totfact>
</mgrwt>
</event>
<event>
 4    1  0.2153371E-005  0.5249511E+03  0.7818608E-02  0.1007464E+00
         -2   -1    0    0    0  501 -0.00000000000E+00  0.00000000000E+00  0.24315793230E+03  0.24315793232E+03  0.25500000000E-02 0.  1.
          2   -1    0    0  501    0  0.00000000000E+00 -0.00000000000E+00 -0.28332787467E+03  0.28332787468E+03  0.25500000000E-02 0. -1.
    5000001    1    1    2    0    0  0.23820360366E+02  0.16130467650E+03  0.63602439802E+02  0.25685770103E+03  0.18800000000E+03 0.  0.
   -5000001    1    1    2    0    0 -0.23820360366E+02 -0.16130467650E+03 -0.10377238217E+03  0.26962810597E+03  0.18800000000E+03 0.  0.
<mgrwt>
<rscale>  0 0.52495112E+03</rscale>
<asrwt>0</asrwt>
<pdfrwt beam="1">  1        2 0.40475410E-01 0.52495112E+03</pdfrwt>
<pdfrwt beam="2">  1       -2 0.34736848E-01 0.52495112E+03</pdfrwt>
<totfact> 0.98960057E+02</totfact>
</mgrwt>
</event>
<event>
 4    1  0.2153371E-005  0.5867416E+03  0.7818608E-02  0.9933301E-01
         -2   -1    0    0    0  501 -0.00000000000E+00  0.00000000000E+00  0.84578014939E+02  0.84578014978E+02  0.25500000000E-02 0. -1.
          2   -1    0    0  501    0  0.00000000000E+00 -0.00000000000E+00 -0.10175981102E+04  0.10175981102E+04  0.25500000000E-02 0.  1.
    5000001    1    1    2    0    0 -0.14327049979E+03 -0.14191696311E+03 -0.27814192471E+03  0.39162966028E+03  0.18800000000E+03 0.  0.
   -5000001    1    1    2    0    0  0.14327049979E+03  0.14191696311E+03 -0.65487817057E+03  0.71054646492E+03  0.18800000000E+03 0.  0.
<mgrwt>
<rscale>  0 0.58674161E+03</rscale>
<asrwt>0</asrwt>
<pdfrwt beam="1">  1        2 0.14537115E+00 0.58674161E+03</pdfrwt>
<pdfrwt beam="2">  1       -2 0.12082574E-01 0.58674161E+03</pdfrwt>
<totfact> 0.13849256E+03</totfact>
</mgrwt>
</event>
<event>
 4    1  0.2153371E-005  0.7936193E+03  0.7818608E-02  0.9569299E-01
         -2   -1    0    0    0  501 -0.00000000000E+00  0.00000000000E+00  0.22074810086E+03  0.22074810088E+03  0.25500000000E-02 0. -1.
          2   -1    0    0  501    0  0.00000000000E+00 -0.00000000000E+00 -0.71329212494E+03  0.71329212495E+03  0.25500000000E-02 0.  1.
    5000001    1    1    2    0    0 -0.31041023244E+03  0.29984092671E+02 -0.43184158647E+03  0.56487583948E+03  0.18800000000E+03 0.  0.
   -5000001    1    1    2    0    0  0.31041023244E+03 -0.29984092671E+02 -0.60702437605E+02  0.36916438635E+03  0.18800000000E+03 0.  0.
<mgrwt>
<rscale>  0 0.79361926E+03</rscale>
<asrwt>0</asrwt>
<pdfrwt beam="1">  1        2 0.10189887E+00 0.79361926E+03</pdfrwt>
<pdfrwt beam="2">  1       -2 0.31535443E-01 0.79361926E+03</pdfrwt>
<totfact> 0.41184294E+02</totfact>
</mgrwt>
</event>
<event>
 4    1  0.2153371E-005  0.7772992E+03  0.7818608E-02  0.9593470E-01
          2   -1    0    0  501    0  0.00000000000E+00  0.00000000000E+00  0.46500278528E+03  0.46500278529E+03  0.25500000000E-02 0.  1.
         -2   -1    0    0    0  501 -0.00000000000E+00 -0.00000000000E+00 -0.32483357256E+03  0.32483357257E+03  0.25500000000E-02 0. -1.
    5000001    1    1    2    0    0  0.30190018467E+03 -0.12254559923E+03 -0.29181226075E+02  0.37730185443E+03  0.18800000000E+03 0.  0.
   -5000001    1    1    2    0    0 -0.30190018467E+03  0.12254559923E+03  0.16935043880E+03  0.41253450343E+03  0.18800000000E+03 0.  0.
<mgrwt>
<rscale>  0 0.77729921E+03</rscale>
<asrwt>0</asrwt>
<pdfrwt beam="1">  1        2 0.66428970E-01 0.77729921E+03</pdfrwt>
<pdfrwt beam="2">  1       -2 0.46404796E-01 0.77729921E+03</pdfrwt>
<totfact> 0.32325768E+02</totfact>
</mgrwt>
</event>
<event>
 4    1  0.2153371E-005  0.7660851E+03  0.7818608E-02  0.9610448E-01
         -2   -1    0    0    0  501 -0.00000000000E+00  0.00000000000E+00  0.61550184563E+02  0.61550184616E+02  0.25500000000E-02 0. -1.
          2   -1    0    0  501    0  0.00000000000E+00 -0.00000000000E+00 -0.23837720585E+04  0.23837720585E+04  0.25500000000E-02 0.  1.
    5000001    1    1    2    0    0 -0.29648516297E+03 -0.15180279195E+03 -0.12273065178E+04  0.12855243398E+04  0.18800000000E+03 0.  0.
   -5000001    1    1    2    0    0  0.29648516297E+03  0.15180279195E+03 -0.10949153561E+04  0.11597979034E+04  0.18800000000E+03 0.  0.
<mgrwt>
<rscale>  0 0.76608514E+03</rscale>
<asrwt>0</asrwt>
<pdfrwt beam="1">  1        2 0.34053881E+00 0.76608514E+03</pdfrwt>
<pdfrwt beam="2">  1       -2 0.87928850E-02 0.76608514E+03</pdfrwt>
<totfact> 0.44106405E+02</totfact>
</mgrwt>
</event>
<event>
 4    1  0.2153371E-005  0.7666775E+03  0.7818608E-02  0.9609543E-01
          2   -1    0    0  501    0  0.00000000000E+00  0.00000000000E+00  0.92542118272E+03  0.92542118273E+03  0.25500000000E-02 0.  1.
         -2   -1    0    0    0  501 -0.00000000000E+00 -0.00000000000E+00 -0.15879102922E+03  0.15879102924E+03  0.25500000000E-02 0. -1.
    5000001    1    1    2    0    0  0.32321337839E+03 -0.32041110092E+02  0.27276477772E+03  0.46393765171E+03  0.18800000000E+03 0.  0.
   -5000001    1    1    2    0    0 -0.32321337839E+03  0.32041110092E+02  0.49386537578E+03  0.62027456026E+03  0.18800000000E+03 0.  0.
<mgrwt>
<rscale>  0 0.76667746E+03</rscale>
<asrwt>0</asrwt>
<pdfrwt beam="1">  1        2 0.13220303E+00 0.76667746E+03</pdfrwt>
<pdfrwt beam="2">  1       -2 0.22684432E-01 0.76667746E+03</pdfrwt>
<totfact> 0.53603946E+02</totfact>
</mgrwt>
</event>
<event>
 4    1  0.2153371E-005  0.6952685E+03  0.7818608E-02  0.9725358E-01
          2   -1    0    0  501    0  0.00000000000E+00  0.00000000000E+00  0.15326480291E+04  0.15326480291E+04  0.25500000000E-02 0.  1.
         -2   -1    0    0    0  501 -0.00000000000E+00 -0.00000000000E+00 -0.78850179607E+02  0.78850179648E+02  0.25500000000E-02 0. -1.
    5000001    1    1    2    0    0 -0.20024588434E+03 -0.32704824768E+02  0.23885025769E+03  0.36546062080E+03  0.18800000000E+03 0.  0.
   -5000001    1    1    2    0    0  0.20024588434E+03  0.32704824768E+02  0.12149475918E+04  0.12460375880E+04  0.18800000000E+03 0.  0.
<mgrwt>
<rscale>  0 0.69526850E+03</rscale>
<asrwt>0</asrwt>
<pdfrwt beam="1">  1        2 0.21894971E+00 0.69526850E+03</pdfrwt>
<pdfrwt beam="2">  1       -2 0.11264312E-01 0.69526850E+03</pdfrwt>
<totfact> 0.80337183E+02</totfact>
</mgrwt>
</event>
<event>
 4    1  0.2153371E-005  0.4788597E+03  0.7818608E-02  0.1019449E+00
         -2   -1    0    0    0  501 -0.00000000000E+00  0.00000000000E+00  0.47436006548E+02  0.47436006616E+02  0.25500000000E-02 0. -1.
          2   -1    0    0  501    0  0.00000000000E+00 -0.00000000000E+00 -0.12085049928E+04  0.12085049928E+04  0.25500000000E-02 0.  1.
    5000001    1    1    2    0    0  0.14720176294E+03  0.87290247916E+01 -0.54006414630E+03  0.59055722585E+03  0.18800000000E+03 0.  0.
   -5000001    1    1    2    0    0 -0.14720176294E+03 -0.87290247916E+01 -0.62100483998E+03  0.66538377359E+03  0.18800000000E+03 0.  0.
<mgrwt>
<rscale>  0 0.47885969E+03</rscale>
<asrwt>0</asrwt>
<pdfrwt beam="1">  1        2 0.17264355E+00 0.47885969E+03</pdfrwt>
<pdfrwt beam="2">  1       -2 0.67765731E-02 0.47885969E+03</pdfrwt>
<totfact> 0.27224682E+03</totfact>
</mgrwt>
</event>
<event>
 4    1  0.2153371E-005  0.9454119E+03  0.7818608E-02  0.9370529E-01
          2   -1    0    0  501    0  0.00000000000E+00  0.00000000000E+00  0.41771150714E+03  0.41771150714E+03  0.25500000000E-02 0.  1.
         -2   -1    0    0    0  501 -0.00000000000E+00 -0.00000000000E+00 -0.53494076268E+03  0.53494076269E+03  0.25500000000E-02 0. -1.
    5000001    1    1    2    0    0  0.30530186056E+03 -0.10966538146E+03  0.23146359984E+03  0.44063036664E+03  0.18800000000E+03 0.  0.
   -5000001    1    1    2    0    0 -0.30530186056E+03  0.10966538146E+03 -0.34869285539E+03  0.51202190320E+03  0.18800000000E+03 0.  0.
<mgrwt>
<rscale>  0 0.94541189E+03</rscale>
<asrwt>0</asrwt>
<pdfrwt beam="1">  1        2 0.59673072E-01 0.94541189E+03</pdfrwt>
<pdfrwt beam="2">  1       -2 0.76420109E-01 0.94541189E+03</pdfrwt>
<totfact> 0.12640109E+02</totfact>
</mgrwt>
</event>
<event>
 4    1  0.2153371E-005  0.4867888E+03  0.7818608E-02  0.1017286E+00
          2   -1    0    0  501    0  0.00000000000E+00  0.00000000000E+00  0.33825310827E+04  0.33825310827E+04  0.25500000000E-02 0. -1.
         -2   -1    0    0    0  501 -0.00000000000E+00 -0.00000000000E+00 -0.17513759829E+02  0.17513760015E+02  0.25500000000E-02 0.  1.
    5000001    1    1    2    0    0 -0.68297107304E+02 -0.13227180153E+03  0.19735690272E+04  0.19880842612E+04  0.18800000000E+03 0.  0.
   -5000001    1    1    2    0    0  0.68297107304E+02  0.13227180153E+03  0.13914482957E+04  0.14119605816E+04  0.18800000000E+03 0.  0.
<mgrwt>
<rscale>  0 0.48678881E+03</rscale>
<asrwt>0</asrwt>
<pdfrwt beam="1">  1        2 0.48321926E+00 0.48678881E+03</pdfrwt>
<pdfrwt beam="2">  1       -2 0.25019630E-02 0.48678881E+03</pdfrwt>
<totfact> 0.92105128E+02</totfact>
</mgrwt>
</event>
<event>
 4    1  0.2153371E-005  0.5355330E+03  0.7818608E-02  0.1004899E+00
         -2   -1    0    0    0  501 -0.00000000000E+00  0.00000000000E+00  0.32376627120E+03  0.32376627121E+03  0.25500000000E-02 0. -1.
          2   -1    0    0  501    0  0.00000000000E+00 -0.00000000000E+00 -0.22145261409E+03  0.22145261411E+03  0.25500000000E-02 0.  1.
    5000001    1    1    2    0    0 -0.16517651205E+03 -0.88495247829E+02  0.87010217946E+02  0.27933755037E+03  0.18800000000E+03 0.  0.
   -5000001    1    1    2    0    0  0.16517651205E+03  0.88495247829E+02  0.15303439163E+02  0.26588133494E+03  0.18800000000E+03 0.  0.
<mgrwt>
<rscale>  0 0.53553296E+03</rscale>
<asrwt>0</asrwt>
<pdfrwt beam="1">  1        2 0.31636088E-01 0.53553296E+03</pdfrwt>
<pdfrwt beam="2">  1       -2 0.46252324E-01 0.53553296E+03</pdfrwt>
<totfact> 0.74649650E+02</totfact>
</mgrwt>
</event>
<event>
 4    1  0.2153371E-005  0.6236067E+03  0.7818608E-02  0.9857605E-01
         -2   -1    0    0    0  501 -0.00000000000E+00  0.00000000000E+00  0.18372328602E+03  0.18372328603E+03  0.25500000000E-02 0. -1.
          2   -1    0    0  501    0  0.00000000000E+00 -0.00000000000E+00 -0.52917260495E+03  0.52917260496E+03  0.25500000000E-02 0.  1.
    5000001    1    1    2    0    0  0.21430555194E+03 -0.87846154755E+02 -0.68993809986E+02  0.30618289030E+03  0.18800000000E+03 0.  0.
   -5000001    1    1    2    0    0 -0.21430555194E+03  0.87846154755E+02 -0.27645550895E+03  0.40671300069E+03  0.18800000000E+03 0.  0.
<mgrwt>
<rscale>  0 0.62360670E+03</rscale>
<asrwt>0</asrwt>
<pdfrwt beam="1">  1        2 0.75596086E-01 0.62360670E+03</pdfrwt>
<pdfrwt beam="2">  1       -2 0.26246184E-01 0.62360670E+03</pdfrwt>
<totfact> 0.82768070E+02</totfact>
</mgrwt>
</event>
<event>
 4    1  0.2153371E-005  0.6228734E+03  0.7818608E-02  0.9859055E-01
         -2   -1    0    0    0  501 -0.00000000000E+00  0.00000000000E+00  0.53732376492E+02  0.53732376553E+02  0.25500000000E-02 0. -1.
          2   -1    0    0  501    0  0.00000000000E+00 -0.00000000000E+00 -0.18051095609E+04  0.18051095609E+04  0.25500000000E-02 0.  1.
    5000001    1    1    2    0    0  0.22771920513E+02  0.16198738295E+03 -0.14331250205E+04  0.14546304675E+04  0.18800000000E+03 0.  0.
   -5000001    1    1    2    0    0 -0.22771920513E+02 -0.16198738295E+03 -0.31825216385E+03  0.40421146989E+03  0.18800000000E+03 0.  0.
<mgrwt>
<rscale>  0 0.62287343E+03</rscale>
<asrwt>0</asrwt>
<pdfrwt beam="1">  1        2 0.25787276E+00 0.62287343E+03</pdfrwt>
<pdfrwt beam="2">  1       -2 0.76760549E-02 0.62287343E+03</pdfrwt>
<totfact> 0.10860826E+03</totfact>
</mgrwt>
</event>
<event>
 4    1  0.2153371E-005  0.5205797E+03  0.7818608E-02  0.1008543E+00
          2   -1    0    0  501    0  0.00000000000E+00  0.00000000000E+00  0.64399193061E+03  0.64399193062E+03  0.25500000000E-02 0.  1.
         -2   -1    0    0    0  501 -0.00000000000E+00 -0.00000000000E+00 -0.10520443018E+03  0.10520443021E+03  0.25500000000E-02 0. -1.
    5000001    1    1    2    0    0 -0.15191713621E+03  0.96468239302E+02  0.26266399134E+03  0.36975844793E+03  0.18800000000E+03 0.  0.
   -5000001    1    1    2    0    0  0.15191713621E+03 -0.96468239302E+02  0.27612350910E+03  0.37943791290E+03  0.18800000000E+03 0.  0.
<mgrwt>
<rscale>  0 0.52057969E+03</rscale>
<asrwt>0</asrwt>
<pdfrwt beam="1">  1        2 0.91998851E-01 0.52057969E+03</pdfrwt>
<pdfrwt beam="2">  1       -2 0.15029204E-01 0.52057969E+03</pdfrwt>
<totfact> 0.17372758E+03</totfact>
</mgrwt>
</event>
<event>
 4    1  0.2153371E-005  0.4708489E+03  0.7818608E-02  0.1021681E+00
          2   -1    0    0  501    0  0.00000000000E+00  0.00000000000E+00  0.14947845033E+04  0.14947845033E+04  0.25500000000E-02 0.  1.
         -2   -1    0    0    0  501 -0.00000000000E+00 -0.00000000000E+00 -0.37078708620E+02  0.37078708708E+02  0.25500000000E-02 0. -1.
    5000001    1    1    2    0    0 -0.93399982961E+02 -0.85462232610E+02  0.93598352933E+03  0.96303505502E+03  0.18800000000E+03 0.  0.
   -5000001    1    1    2    0    0  0.93399982961E+02  0.85462232610E+02  0.52172226532E+03  0.56882815696E+03  0.18800000000E+03 0.  0.
<mgrwt>
<rscale>  0 0.47084893E+03</rscale>
<asrwt>0</asrwt>
<pdfrwt beam="1">  1        2 0.21354069E+00 0.47084893E+03</pdfrwt>
<pdfrwt beam="2">  1       -2 0.52969572E-02 0.47084893E+03</pdfrwt>
<totfact> 0.28116509E+03</totfact>
</mgrwt>
</event>
<event>
 4    1  0.2153371E-005  0.9259809E+03  0.7818608E-02  0.9393674E-01
          2   -1    0    0  501    0  0.00000000000E+00  0.00000000000E+00  0.12427811870E+03  0.12427811873E+03  0.25500000000E-02 0.  1.
         -2   -1    0    0    0  501 -0.00000000000E+00 -0.00000000000E+00 -0.17248424064E+04  0.17248424064E+04  0.25500000000E-02 0. -1.
    5000001    1    1    2    0    0 -0.89945315483E+02  0.34298656247E+03 -0.12612500241E+04  0.13235654745E+04  0.18800000000E+03 0.  0.
   -5000001    1    1    2    0    0  0.89945315483E+02 -0.34298656247E+03 -0.33931426353E+03  0.52555505063E+03  0.18800000000E+03 0.  0.
<mgrwt>
<rscale>  0 0.92598093E+03</rscale>
<asrwt>0</asrwt>
<pdfrwt beam="1">  1        2 0.17754018E-01 0.92598093E+03</pdfrwt>
<pdfrwt beam="2">  1       -2 0.24640604E+00 0.92598093E+03</pdfrwt>
<totfact> 0.22420594E+01</totfact>
</mgrwt>
</event>
<event>
 4    1  0.2153371E-005  0.7167445E+03  0.7818608E-02  0.9689018E-01
          2   -1    0    0  501    0  0.00000000000E+00  0.00000000000E+00  0.52385120000E+03  0.52385120001E+03  0.25500000000E-02 0. -1.
         -2   -1    0    0    0  501 -0.00000000000E+00 -0.00000000000E+00 -0.24516630343E+03  0.24516630345E+03  0.25500000000E-02 0.  1.
    5000001    1    1    2    0    0  0.46188672628E+02  0.24101161683E+03  0.33385593369E+03  0.45499865647E+03  0.18800000000E+03 0.  0.
   -5000001    1    1    2    0    0 -0.46188672628E+02 -0.24101161683E+03 -0.55171037120E+02  0.31401884699E+03  0.18800000000E+03 0.  0.
<mgrwt>
<rscale>  0 0.71674448E+03</rscale>
<asrwt>0</asrwt>
<pdfrwt beam="1">  1        2 0.74835886E-01 0.71674448E+03</pdfrwt>
<pdfrwt beam="2">  1       -2 0.35023758E-01 0.71674448E+03</pdfrwt>
<totfact> 0.48939914E+02</totfact>
</mgrwt>
</event>
<event>
 4    1  0.2153371E-005  0.5358209E+03  0.7818608E-02  0.1004830E+00
          2   -1    0    0  501    0  0.00000000000E+00  0.00000000000E+00  0.88370241831E+03  0.88370241831E+03  0.25500000000E-02 0.  1.
         -2   -1    0    0    0  501 -0.00000000000E+00 -0.00000000000E+00 -0.81221914869E+02  0.81221914909E+02  0.25500000000E-02 0. -1.
    5000001    1    1    2    0    0 -0.11014150375E+03  0.11912925819E+03  0.22017743785E+03  0.33188105572E+03  0.18800000000E+03 0.  0.
   -5000001    1    1    2    0    0  0.11014150375E+03 -0.11912925819E+03  0.58230306559E+03  0.63304327751E+03  0.18800000000E+03 0.  0.
<mgrwt>
<rscale>  0 0.53582088E+03</rscale>
<asrwt>0</asrwt>
<pdfrwt beam="1">  1        2 0.12624320E+00 0.53582088E+03</pdfrwt>
<pdfrwt beam="2">  1       -2 0.11603131E-01 0.53582088E+03</pdfrwt>
<totfact> 0.17959444E+03</totfact>
</mgrwt>
</event>
<event>
 4    1  0.2153371E-005  0.6888093E+03  0.7818608E-02  0.9736564E-01
         -2   -1    0    0    0  501 -0.00000000000E+00  0.00000000000E+00  0.34411337317E+03  0.34411337318E+03  0.25500000000E-02 0. -1.
          2   -1    0    0  501    0  0.00000000000E+00 -0.00000000000E+00 -0.34469616007E+03  0.34469616008E+03  0.25500000000E-02 0.  1.
    5000001    1    1    2    0    0 -0.26459301368E+03  0.11438651200E+03 -0.13588817141E+02  0.34441601729E+03  0.18800000000E+03 0.  0.
   -5000001    1    1    2    0    0  0.26459301368E+03 -0.11438651200E+03  0.13006030243E+02  0.34439351596E+03  0.18800000000E+03 0.  0.
<mgrwt>
<rscale>  0 0.68880929E+03</rscale>
<asrwt>0</asrwt>
<pdfrwt beam="1">  1        2 0.49242309E-01 0.68880929E+03</pdfrwt>
<pdfrwt beam="2">  1       -2 0.49159053E-01 0.68880929E+03</pdfrwt>
<totfact> 0.40340998E+02</totfact>
</mgrwt>
</event>
<event>
 4    1  0.2153371E-005  0.1265054E+04  0.7818608E-02  0.9057746E-01
         -2   -1    0    0    0  501 -0.00000000000E+00  0.00000000000E+00  0.35893277218E+03  0.35893277219E+03  0.25500000000E-02 0. -1.
          2   -1    0    0  501    0  0.00000000000E+00 -0.00000000000E+00 -0.11146664345E+04  0.11146664345E+04  0.25500000000E-02 0.  1.
    5000001    1    1    2    0    0  0.11915064563E+03  0.57467893147E+03 -0.21192743150E+03  0.65169777263E+03  0.18800000000E+03 0.  0.
   -5000001    1    1    2    0    0 -0.11915064563E+03 -0.57467893147E+03 -0.54380623076E+03  0.82190143402E+03  0.18800000000E+03 0.  0.
<mgrwt>
<rscale>  0 0.12650539E+04</rscale>
<asrwt>0</asrwt>
<pdfrwt beam="1">  1        2 0.15923806E+00 0.12650539E+04</pdfrwt>
<pdfrwt beam="2">  1       -2 0.51276111E-01 0.12650539E+04</pdfrwt>
<totfact> 0.84594021E+01</totfact>
</mgrwt>
</event>
<event>
 4    1  0.2153371E-005  0.4712522E+03  0.7818608E-02  0.1021567E+00
         -2   -1    0    0    0  501 -0.00000000000E+00  0.00000000000E+00  0.50000287908E+03  0.50000287909E+03  0.25500000000E-02 0. -1.
          2   -1    0    0  501    0  0.00000000000E+00 -0.00000000000E+00 -0.11103866268E+03  0.11103866271E+03  0.25500000000E-02 0.  1.
    5000001    1    1    2    0    0 -0.14439586308E+01 -0.13871622257E+03  0.15491085453E+03  0.28033131875E+03  0.18800000000E+03 0.  0.
   -5000001    1    1    2    0    0  0.14439586308E+01  0.13871622257E+03  0.23405336188E+03  0.33071022305E+03  0.18800000000E+03 0.  0.
<mgrwt>
<rscale>  0 0.47125217E+03</rscale>
<asrwt>0</asrwt>
<pdfrwt beam="1">  1        2 0.15862666E-01 0.47125217E+03</pdfrwt>
<pdfrwt beam="2">  1       -2 0.71428982E-01 0.47125217E+03</pdfrwt>
<totfact> 0.67040595E+02</totfact>
</mgrwt>
</event>
<event>
 4    1  0.2153371E-005  0.1388737E+04  0.7818608E-02  0.8962012E-01
         -2   -1    0    0    0  501 -0.00000000000E+00  0.00000000000E+00  0.59786571938E+03  0.59786571938E+03  0.25500000000E-02 0. -1.
          2   -1    0    0  501    0  0.00000000000E+00 -0.00000000000E+00 -0.80644805542E+03  0.80644805543E+03  0.25500000000E-02 0.  1.
    5000001    1    1    2    0    0 -0.11093080379E+03 -0.60379335027E+03  0.16312080442E+03  0.66243826120E+03  0.18800000000E+03 0.  0.
   -5000001    1    1    2    0    0  0.11093080379E+03  0.60379335027E+03 -0.37170314046E+03  0.74187551361E+03  0.18800000000E+03 0.  0.
<mgrwt>
<rscale>  0 0.13887370E+04</rscale>
<asrwt>0</asrwt>
<pdfrwt beam="1">  1        2 0.11520687E+00 0.13887370E+04</pdfrwt>
<pdfrwt beam="2">  1       -2 0.85409388E-01 0.13887370E+04</pdfrwt>
<totfact> 0.43750290E+01</totfact>
</mgrwt>
</event>
<event>
 4    1  0.2153371E-005  0.7566985E+03  0.7818608E-02  0.9624900E-01
         -2   -1    0    0    0  501 -0.00000000000E+00  0.00000000000E+00  0.98839905509E+03  0.98839905510E+03  0.25500000000E-02 0. -1.
          2   -1    0    0  501    0  0.00000000000E+00 -0.00000000000E+00 -0.14482828604E+03  0.14482828606E+03  0.25500000000E-02 0.  1.
    5000001    1    1    2    0    0 -0.32674618964E+03 -0.32148978908E+02  0.41768082833E+03  0.56355825221E+03  0.18800000000E+03 0.  0.
   -5000001    1    1    2    0    0  0.32674618964E+03  0.32148978908E+02  0.42588994073E+03  0.56966908894E+03  0.18800000000E+03 0.  0.
<mgrwt>
<rscale>  0 0.75669846E+03</rscale>
<asrwt>0</asrwt>
<pdfrwt beam="1">  1        2 0.20689754E-01 0.75669846E+03</pdfrwt>
<pdfrwt beam="2">  1       -2 0.14119987E+00 0.75669846E+03</pdfrwt>
<totfact> 0.96887935E+01</totfact>
</mgrwt>
</event>
<event>
 4    1  0.2153371E-005  0.1109575E+04  0.7818608E-02  0.9195909E-01
         -2   -1    0    0    0  501 -0.00000000000E+00  0.00000000000E+00  0.25943202479E+03  0.25943202481E+03  0.25500000000E-02 0. -1.
          2   -1    0    0  501    0  0.00000000000E+00 -0.00000000000E+00 -0.11863962789E+04  0.11863962789E+04  0.25500000000E-02 0.  1.
    5000001    1    1    2    0    0 -0.11384853693E+03  0.35385232989E+03 -0.94095988287E+03  0.10290395823E+04  0.18800000000E+03 0.  0.
   -5000001    1    1    2    0    0  0.11384853693E+03 -0.35385232989E+03  0.13995628718E+02  0.41678872148E+03  0.18800000000E+03 0.  0.
<mgrwt>
<rscale>  0 0.11095750E+04</rscale>
<asrwt>0</asrwt>
<pdfrwt beam="1">  1        2 0.16948518E+00 0.11095750E+04</pdfrwt>
<pdfrwt beam="2">  1       -2 0.37061718E-01 0.11095750E+04</pdfrwt>
<totfact> 0.14792701E+02</totfact>
</mgrwt>
</event>
<event>
 4    1  0.2153371E-005  0.4841575E+03  0.7818608E-02  0.1017999E+00
          2   -1    0    0  501    0  0.00000000000E+00  0.00000000000E+00  0.20515161930E+04  0.20515161930E+04  0.25500000000E-02 0.  1.
         -2   -1    0    0    0  501 -0.00000000000E+00 -0.00000000000E+00 -0.28565272925E+02  0.28565273039E+02  0.25500000000E-02 0. -1.
    5000001    1    1    2    0    0 -0.98183563576E+02  0.11641972544E+03  0.97695630480E+03  0.10064696648E+04  0.18800000000E+03 0.  0.
   -5000001    1    1    2    0    0  0.98183563576E+02 -0.11641972544E+03  0.10459946153E+04  0.10736118013E+04  0.18800000000E+03 0.  0.
<mgrwt>
<rscale>  0 0.48415750E+03</rscale>
<asrwt>0</asrwt>
<pdfrwt beam="1">  1        2 0.29307373E+00 0.48415750E+03</pdfrwt>
<pdfrwt beam="2">  1       -2 0.40807535E-02 0.48415750E+03</pdfrwt>
<totfact> 0.22011676E+03</totfact>
</mgrwt>
</event>
<event>
 4    1  0.2153371E-005  0.4673907E+04  0.7818608E-02  0.7880879E-01
         -2   -1    0    0    0  501 -0.00000000000E+00  0.00000000000E+00  0.21608636209E+04  0.21608636209E+04  0.25500000000E-02 0. -1.
          2   -1    0    0  501    0  0.00000000000E+00 -0.00000000000E+00 -0.25273929518E+04  0.25273929518E+04  0.25500000000E-02 0.  1.
    5000001    1    1    2    0    0  0.13089858408E+04  0.16432615886E+04 -0.11924623756E+04  0.24230276716E+04  0.18800000000E+03 0.  0.
   -5000001    1    1    2    0    0 -0.13089858408E+04 -0.16432615886E+04  0.82593304470E+03  0.22652289011E+04  0.18800000000E+03 0.  0.
<mgrwt>
<rscale>  0 0.46739069E+04</rscale>
<asrwt>0</asrwt>
<pdfrwt beam="1">  1        2 0.36105613E+00 0.46739069E+04</pdfrwt>
<pdfrwt beam="2">  1       -2 0.30869481E+00 0.46739069E+04</pdfrwt>
<totfact> 0.90754501E-02</totfact>
</mgrwt>
</event>
<event>
 4    1  0.2153371E-005  0.5894770E+03  0.7818608E-02  0.9927482E-01
         -2   -1    0    0    0  501 -0.00000000000E+00  0.00000000000E+00  0.20694626991E+03  0.20694626993E+03  0.25500000000E-02 0. -1.
          2   -1    0    0  501    0  0.00000000000E+00 -0.00000000000E+00 -0.41977463061E+03  0.41977463062E+03  0.25500000000E-02 0.  1.
    5000001    1    1    2    0    0  0.16736644905E+02 -0.21909761338E+03 -0.45869632634E+02  0.29280010702E+03  0.18800000000E+03 0.  0.
   -5000001    1    1    2    0    0 -0.16736644905E+02  0.21909761338E+03 -0.16695872806E+03  0.33392079352E+03  0.18800000000E+03 0.  0.
<mgrwt>
<rscale>  0 0.58947704E+03</rscale>
<asrwt>0</asrwt>
<pdfrwt beam="1">  1        2 0.59967804E-01 0.58947704E+03</pdfrwt>
<pdfrwt beam="2">  1       -2 0.29563753E-01 0.58947704E+03</pdfrwt>
<totfact> 0.86568239E+02</totfact>
</mgrwt>
</event>
<event>
 4    1  0.2153371E-005  0.4811834E+03  0.7818608E-02  0.1018810E+00
          2   -1    0    0  501    0  0.00000000000E+00  0.00000000000E+00  0.48137909831E+03  0.48137909832E+03  0.25500000000E-02 0.  1.
         -2   -1    0    0    0  501 -0.00000000000E+00 -0.00000000000E+00 -0.12024693096E+03  0.12024693099E+03  0.25500000000E-02 0. -1.
    5000001    1    1    2    0    0 -0.11474757011E+03  0.96615993776E+02  0.17278760670E+03  0.29614390443E+03  0.18800000000E+03 0.  0.
   -5000001    1    1    2    0    0  0.11474757011E+03 -0.96615993776E+02  0.18834456065E+03  0.30548212489E+03  0.18800000000E+03 0.  0.
<mgrwt>
<rscale>  0 0.48118337E+03</rscale>
<asrwt>0</asrwt>
<pdfrwt beam="1">  1        2 0.68768442E-01 0.48118337E+03</pdfrwt>
<pdfrwt beam="2">  1       -2 0.17178133E-01 0.48118337E+03</pdfrwt>
<totfact> 0.19386431E+03</totfact>
</mgrwt>
</event>
<event>
 4    1  0.2153371E-005  0.1931825E+04  0.7818608E-02  0.8639175E-01
         -2   -1    0    0    0  501 -0.00000000000E+00  0.00000000000E+00  0.23387276747E+03  0.23387276749E+03  0.25500000000E-02 0. -1.
          2   -1    0    0  501    0  0.00000000000E+00 -0.00000000000E+00 -0.39892917367E+04  0.39892917367E+04  0.25500000000E-02 0.  1.
    5000001    1    1    2    0    0  0.81636581225E+03 -0.45932424963E+03 -0.15669231213E+04  0.18352176911E+04  0.18800000000E+03 0.  0.
   -5000001    1    1    2    0    0 -0.81636581225E+03  0.45932424963E+03 -0.21884958479E+04  0.23879468131E+04  0.18800000000E+03 0.  0.
<mgrwt>
<rscale>  0 0.19318247E+04</rscale>
<asrwt>0</asrwt>
<pdfrwt beam="1">  1        2 0.56989878E+00 0.19318247E+04</pdfrwt>
<pdfrwt beam="2">  1       -2 0.33410398E-01 0.19318247E+04</pdfrwt>
<totfact> 0.45801495E+00</totfact>
</mgrwt>
</event>
<event>
 4    1  0.2153371E-005  0.1310682E+04  0.7818608E-02  0.9021137E-01
         -2   -1    0    0    0  501 -0.00000000000E+00  0.00000000000E+00  0.34683021893E+03  0.34683021894E+03  0.25500000000E-02 0. -1.
          2   -1    0    0  501    0  0.00000000000E+00 -0.00000000000E+00 -0.12382764053E+04  0.12382764053E+04  0.25500000000E-02 0.  1.
    5000001    1    1    2    0    0 -0.20438602506E+03 -0.54604134853E+03 -0.16418814207E+03  0.63422121341E+03  0.18800000000E+03 0.  0.
   -5000001    1    1    2    0    0  0.20438602506E+03  0.54604134853E+03 -0.72725804434E+03  0.95088541086E+03  0.18800000000E+03 0.  0.
<mgrwt>
<rscale>  0 0.13106818E+04</rscale>
<asrwt>0</asrwt>
<pdfrwt beam="1">  1        2 0.17689663E+00 0.13106818E+04</pdfrwt>
<pdfrwt beam="2">  1       -2 0.49547175E-01 0.13106818E+04</pdfrwt>
<totfact> 0.76787349E+01</totfact>
</mgrwt>
</event>
<event>
 4    1  0.2153371E-005  0.5770045E+03  0.7818608E-02  0.9954297E-01
         -2   -1    0    0    0  501 -0.00000000000E+00  0.00000000000E+00  0.20145424412E+03  0.20145424413E+03  0.25500000000E-02 0. -1.
          2   -1    0    0  501    0  0.00000000000E+00 -0.00000000000E+00 -0.41316356344E+03  0.41316356345E+03  0.25500000000E-02 0.  1.
    5000001    1    1    2    0    0 -0.11338427868E+03  0.14880487727E+03  0.15083574795E+02  0.26565089945E+03  0.18800000000E+03 0.  0.
   -5000001    1    1    2    0    0  0.11338427868E+03 -0.14880487727E+03 -0.22679289412E+03  0.34896690814E+03  0.18800000000E+03 0.  0.
<mgrwt>
<rscale>  0 0.57700452E+03</rscale>
<asrwt>0</asrwt>
<pdfrwt beam="1">  1        2 0.59023366E-01 0.57700452E+03</pdfrwt>
<pdfrwt beam="2">  1       -2 0.28779178E-01 0.57700452E+03</pdfrwt>
<totfact> 0.92587738E+02</totfact>
</mgrwt>
</event>
<event>
 4    1  0.2153371E-005  0.6134816E+03  0.7818608E-02  0.9877824E-01
          2   -1    0    0  501    0  0.00000000000E+00  0.00000000000E+00  0.13077397479E+04  0.13077397479E+04  0.25500000000E-02 0. -1.
         -2   -1    0    0    0  501 -0.00000000000E+00 -0.00000000000E+00 -0.71948504915E+02  0.71948504960E+02  0.25500000000E-02 0.  1.
    5000001    1    1    2    0    0  0.86109845336E+02 -0.18683916994E+03  0.90609582396E+03  0.94798598254E+03  0.18800000000E+03 0.  0.
   -5000001    1    1    2    0    0 -0.86109845336E+02  0.18683916994E+03  0.32969541907E+03  0.43170227037E+03  0.18800000000E+03 0.  0.
<mgrwt>
<rscale>  0 0.61348160E+03</rscale>
<asrwt>0</asrwt>
<pdfrwt beam="1">  1        2 0.18681996E+00 0.61348160E+03</pdfrwt>
<pdfrwt beam="2">  1       -2 0.10278358E-01 0.61348160E+03</pdfrwt>
<totfact> 0.12323429E+03</totfact>
</mgrwt>
</event>
<event>
 4    1  0.2153371E-005  0.7023604E+03  0.7818608E-02  0.9713204E-01
          2   -1    0    0  501    0  0.00000000000E+00  0.00000000000E+00  0.24528320605E+04  0.24528320605E+04  0.25500000000E-02 0.  1.
         -2   -1    0    0    0  501 -0.00000000000E+00 -0.00000000000E+00 -0.50279644407E+02  0.50279644471E+02  0.25500000000E-02 0. -1.
    5000001    1    1    2    0    0 -0.29277761273E+03 -0.36023194211E+02  0.10904452599E+04  0.11451773949E+04  0.18800000000E+03 0.  0.
   -5000001    1    1    2    0    0  0.29277761273E+03  0.36023194211E+02  0.13121071562E+04  0.13579343100E+04  0.18800000000E+03 0.  0.
<mgrwt>
<rscale>  0 0.70236037E+03</rscale>
<asrwt>0</asrwt>
<pdfrwt beam="1">  1        2 0.35040466E+00 0.70236037E+03</pdfrwt>
<pdfrwt beam="2">  1       -2 0.71828047E-02 0.70236037E+03</pdfrwt>
<totfact> 0.56450543E+02</totfact>
</mgrwt>
</event>
<event>
 4    1  0.2153371E-005  0.8197069E+03  0.7818608E-02  0.9531922E-01
          2   -1    0    0  501    0  0.00000000000E+00  0.00000000000E+00  0.16951494509E+03  0.16951494511E+03  0.25500000000E-02 0.  1.
         -2   -1    0    0    0  501 -0.00000000000E+00 -0.00000000000E+00 -0.99094413531E+03  0.99094413531E+03  0.25500000000E-02 0. -1.
    5000001    1    1    2    0    0 -0.18000539271E+03 -0.31593261258E+03 -0.43974451145E+03  0.60077832222E+03  0.18800000000E+03 0.  0.
   -5000001    1    1    2    0    0  0.18000539271E+03  0.31593261258E+03 -0.38168467877E+03  0.55968075820E+03  0.18800000000E+03 0.  0.
<mgrwt>
<rscale>  0 0.81970688E+03</rscale>
<asrwt>0</asrwt>
<pdfrwt beam="1">  1        2 0.24216421E-01 0.81970688E+03</pdfrwt>
<pdfrwt beam="2">  1       -2 0.14156344E+00 0.81970688E+03</pdfrwt>
<totfact> 0.79909082E+01</totfact>
</mgrwt>
</event>
<event>
 4    1  0.2153371E-005  0.8789624E+03  0.7818608E-02  0.9452268E-01
          2   -1    0    0  501    0  0.00000000000E+00  0.00000000000E+00  0.14910977673E+04  0.14910977673E+04  0.25500000000E-02 0.  1.
         -2   -1    0    0    0  501 -0.00000000000E+00 -0.00000000000E+00 -0.12953123251E+03  0.12953123253E+03  0.25500000000E-02 0. -1.
    5000001    1    1    2    0    0 -0.19210272939E+03  0.29840327791E+03  0.10098469823E+04  0.10867763811E+04  0.18800000000E+03 0.  0.
   -5000001    1    1    2    0    0  0.19210272939E+03 -0.29840327791E+03  0.35171955253E+03  0.53385261874E+03  0.18800000000E+03 0.  0.
<mgrwt>
<rscale>  0 0.87896241E+03</rscale>
<asrwt>0</asrwt>
<pdfrwt beam="1">  1        2 0.21301395E+00 0.87896241E+03</pdfrwt>
<pdfrwt beam="2">  1       -2 0.18504463E-01 0.87896241E+03</pdfrwt>
<totfact> 0.36241655E+02</totfact>
</mgrwt>
</event>
<event>
 4    1  0.2153371E-005  0.6011742E+03  0.7818608E-02  0.9902973E-01
          2   -1    0    0  501    0  0.00000000000E+00  0.00000000000E+00  0.19868363919E+03  0.19868363921E+03  0.25500000000E-02 0.  1.
         -2   -1    0    0    0  501 -0.00000000000E+00 -0.00000000000E+00 -0.45475618426E+03  0.45475618427E+03  0.25500000000E-02 0. -1.
    5000001    1    1    2    0    0  0.16451013220E+03 -0.16673109640E+03 -0.11491301610E+03  0.32157711885E+03  0.18800000000E+03 0.  0.
   -5000001    1    1    2    0    0 -0.16451013220E+03  0.16673109640E+03 -0.14115952897E+03  0.33186270462E+03  0.18800000000E+03 0.  0.
<mgrwt>
<rscale>  0 0.60117423E+03</rscale>
<asrwt>0</asrwt>
<pdfrwt beam="1">  1        2 0.28383377E-01 0.60117423E+03</pdfrwt>
<pdfrwt beam="2">  1       -2 0.64965169E-01 0.60117423E+03</pdfrwt>
<totfact> 0.41801819E+02</totfact>
</mgrwt>
</event>
<event>
 4    1  0.2153371E-005  0.6771747E+03  0.7818608E-02  0.9757083E-01
         -2   -1    0    0    0  501 -0.00000000000E+00  0.00000000000E+00  0.12607627696E+03  0.12607627698E+03  0.25500000000E-02 0. -1.
          2   -1    0    0  501    0  0.00000000000E+00 -0.00000000000E+00 -0.90930184371E+03  0.90930184371E+03  0.25500000000E-02 0.  1.
    5000001    1    1    2    0    0 -0.10262282977E+03 -0.20458186891E+03 -0.64243898633E+03  0.70742988164E+03  0.18800000000E+03 0.  0.
   -5000001    1    1    2    0    0  0.10262282977E+03  0.20458186891E+03 -0.14078658042E+03  0.32794823906E+03  0.18800000000E+03 0.  0.
<mgrwt>
<rscale>  0 0.67717469E+03</rscale>
<asrwt>0</asrwt>
<pdfrwt beam="1">  1        2 0.12990026E+00 0.67717469E+03</pdfrwt>
<pdfrwt beam="2">  1       -2 0.18010897E-01 0.67717469E+03</pdfrwt>
<totfact> 0.82447256E+02</totfact>
</mgrwt>
</event>
<event>
 4    1  0.2153371E-005  0.7450229E+03  0.7818608E-02  0.9643191E-01
         -2   -1    0    0    0  501 -0.00000000000E+00  0.00000000000E+00  0.70136853477E+02  0.70136853523E+02  0.25500000000E-02 0. -1.
          2   -1    0    0  501    0  0.00000000000E+00 -0.00000000000E+00 -0.19784859774E+04  0.19784859774E+04  0.25500000000E-02 0.  1.
    5000001    1    1    2    0    0 -0.25111930320E+03 -0.38639979372E+02 -0.41207140257E+03  0.51932725064E+03  0.18800000000E+03 0.  0.
   -5000001    1    1    2    0    0  0.25111930320E+03  0.38639979372E+02 -0.14962777214E+04  0.15292955803E+04  0.18800000000E+03 0.  0.
<mgrwt>
<rscale>  0 0.74502290E+03</rscale>
<asrwt>0</asrwt>
<pdfrwt beam="1">  1        2 0.28264082E+00 0.74502290E+03</pdfrwt>
<pdfrwt beam="2">  1       -2 0.10019552E-01 0.74502290E+03</pdfrwt>
<totfact> 0.57422780E+02</totfact>
</mgrwt>
</event>
<event>
 4    1  0.2153371E-005  0.5074218E+03  0.7818608E-02  0.1011860E+00
         -2   -1    0    0    0  501 -0.00000000000E+00  0.00000000000E+00  0.20833474763E+03  0.20833474764E+03  0.25500000000E-02 0. -1.
          2   -1    0    0  501    0  0.00000000000E+00 -0.00000000000E+00 -0.30897012115E+03  0.30897012117E+03  0.25500000000E-02 0.  1.
    5000001    1    1    2    0    0  0.93160842876E+02  0.12374143074E+03  0.22017269385E+02  0.24458054804E+03  0.18800000000E+03 0.  0.
   -5000001    1    1    2    0    0 -0.93160842876E+02 -0.12374143074E+03 -0.12265264291E+03  0.27272432077E+03  0.18800000000E+03 0.  0.
<mgrwt>
<rscale>  0 0.50742177E+03</rscale>
<asrwt>0</asrwt>
<pdfrwt beam="1">  1        2 0.44138588E-01 0.50742177E+03</pdfrwt>
<pdfrwt beam="2">  1       -2 0.29762107E-01 0.50742177E+03</pdfrwt>
<totfact> 0.11999206E+03</totfact>
</mgrwt>
</event>
<event>
 4    1  0.2153371E-005  0.6681392E+03  0.7818608E-02  0.9773325E-01
         -2   -1    0    0    0  501 -0.00000000000E+00  0.00000000000E+00  0.15494714364E+03  0.15494714366E+03  0.25500000000E-02 0. -1.
          2   -1    0    0  501    0  0.00000000000E+00 -0.00000000000E+00 -0.72026173910E+03  0.72026173910E+03  0.25500000000E-02 0.  1.
    5000001    1    1    2    0    0  0.10040718450E+03  0.15054185381E+03 -0.94077209762E+01  0.26110717658E+03  0.18800000000E+03 0.  0.
   -5000001    1    1    2    0    0 -0.10040718450E+03 -0.15054185381E+03 -0.55590687448E+03  0.61410170618E+03  0.18800000000E+03 0.  0.
<mgrwt>
<rscale>  0 0.66813920E+03</rscale>
<asrwt>0</asrwt>
<pdfrwt beam="1">  1        2 0.10289453E+00 0.66813920E+03</pdfrwt>
<pdfrwt beam="2">  1       -2 0.22135307E-01 0.66813920E+03</pdfrwt>
<totfact> 0.77723347E+02</totfact>
</mgrwt>
</event>
<event>
 4    1  0.2153371E-005  0.4544698E+03  0.7818608E-02  0.1026397E+00
          2   -1    0    0  501    0  0.00000000000E+00  0.00000000000E+00  0.50259274862E+03  0.50259274863E+03  0.25500000000E-02 0.  1.
         -2   -1    0    0    0  501 -0.00000000000E+00 -0.00000000000E+00 -0.10273866222E+03  0.10273866226E+03  0.25500000000E-02 0. -1.
    5000001    1    1    2    0    0 -0.47077333091E+02  0.11218329553E+03  0.14850719772E+03  0.26870012070E+03  0.18800000000E+03 0.  0.
   -5000001    1    1    2    0    0  0.47077333091E+02 -0.11218329553E+03  0.25134688868E+03  0.33663129019E+03  0.18800000000E+03 0.  0.
<mgrwt>
<rscale>  0 0.45446983E+03</rscale>
<asrwt>0</asrwt>
<pdfrwt beam="1">  1        2 0.71798963E-01 0.45446983E+03</pdfrwt>
<pdfrwt beam="2">  1       -2 0.14676952E-01 0.45446983E+03</pdfrwt>
<totfact> 0.24061267E+03</totfact>
</mgrwt>
</event>
<event>
 4    1  0.2153371E-005  0.5900415E+03  0.7818608E-02  0.9926285E-01
         -2   -1    0    0    0  501 -0.00000000000E+00  0.00000000000E+00  0.85806553413E+02  0.85806553451E+02  0.25500000000E-02 0. -1.
          2   -1    0    0  501    0  0.00000000000E+00 -0.00000000000E+00 -0.10143424523E+04  0.10143424523E+04  0.25500000000E-02 0.  1.
    5000001    1    1    2    0    0  0.17026117651E+03 -0.27659011387E+02 -0.74044066548E+03  0.78316682018E+03  0.18800000000E+03 0.  0.
   -5000001    1    1    2    0    0 -0.17026117651E+03  0.27659011387E+02 -0.18809523340E+03  0.31698218556E+03  0.18800000000E+03 0.  0.
<mgrwt>
<rscale>  0 0.59004146E+03</rscale>
<asrwt>0</asrwt>
<pdfrwt beam="1">  1        2 0.14490606E+00 0.59004146E+03</pdfrwt>
<pdfrwt beam="2">  1       -2 0.12258080E-01 0.59004146E+03</pdfrwt>
<totfact> 0.13584618E+03</totfact>
</mgrwt>
</event>
<event>
 4    1  0.2153371E-005  0.7327406E+03  0.7818608E-02  0.9662824E-01
          2   -1    0    0  501    0  0.00000000000E+00  0.00000000000E+00  0.13011745029E+04  0.13011745029E+04  0.25500000000E-02 0.  1.
         -2   -1    0    0    0  501 -0.00000000000E+00 -0.00000000000E+00 -0.10315849917E+03  0.10315849920E+03  0.25500000000E-02 0. -1.
    5000001    1    1    2    0    0 -0.18089851834E+03  0.87713614542E+02  0.13559442089E+03  0.30683513340E+03  0.18800000000E+03 0.  0.
   -5000001    1    1    2    0    0  0.18089851834E+03 -0.87713614542E+02  0.10624215828E+04  0.10974978687E+04  0.18800000000E+03 0.  0.
<mgrwt>
<rscale>  0 0.73274063E+03</rscale>
<asrwt>0</asrwt>
<pdfrwt beam="1">  1        2 0.18588206E+00 0.73274063E+03</pdfrwt>
<pdfrwt beam="2">  1       -2 0.14736929E-01 0.73274063E+03</pdfrwt>
<totfact> 0.68148956E+02</totfact>
</mgrwt>
</event>
<event>
 4    1  0.2153371E-005  0.4376662E+03  0.7818608E-02  0.1031465E+00
          2   -1    0    0  501    0  0.00000000000E+00  0.00000000000E+00  0.16886769567E+04  0.16886769567E+04  0.25500000000E-02 0.  1.
         -2   -1    0    0    0  501 -0.00000000000E+00 -0.00000000000E+00 -0.28358253302E+02  0.28358253416E+02  0.25500000000E-02 0. -1.
    5000001    1    1    2    0    0 -0.10165638049E+03  0.45497930709E+02  0.78376515343E+03  0.81365588373E+03  0.18800000000E+03 0.  0.
   -5000001    1    1    2    0    0  0.10165638049E+03 -0.45497930709E+02  0.87655355001E+03  0.90337932644E+03  0.18800000000E+03 0.  0.
<mgrwt>
<rscale>  0 0.43766622E+03</rscale>
<asrwt>0</asrwt>
<pdfrwt beam="1">  1        2 0.24123970E+00 0.43766622E+03</pdfrwt>
<pdfrwt beam="2">  1       -2 0.40511768E-02 0.43766622E+03</pdfrwt>
<totfact> 0.33823101E+03</totfact>
</mgrwt>
</event>
<event>
 4    1  0.2153371E-005  0.4346011E+03  0.7818608E-02  0.1032416E+00
         -2   -1    0    0    0  501 -0.00000000000E+00  0.00000000000E+00  0.18318292551E+02  0.18318292728E+02  0.25500000000E-02 0.  1.
          2   -1    0    0  501    0  0.00000000000E+00 -0.00000000000E+00 -0.25777250871E+04  0.25777250871E+04  0.25500000000E-02 0. -1.
    5000001    1    1    2    0    0  0.11600963711E+02 -0.10184294805E+03 -0.10586915309E+04  0.10801288469E+04  0.18800000000E+03 0.  0.
   -5000001    1    1    2    0    0 -0.11600963711E+02  0.10184294805E+03 -0.15007152637E+04  0.15159145330E+04  0.18800000000E+03 0.  0.
<mgrwt>
<rscale>  0 0.43460107E+03</rscale>
<asrwt>0</asrwt>
<pdfrwt beam="1">  1        2 0.36824621E+00 0.43460107E+03</pdfrwt>
<pdfrwt beam="2">  1       -2 0.26169006E-02 0.43460107E+03</pdfrwt>
<totfact> 0.23524386E+03</totfact>
</mgrwt>
</event>
<event>
 4    1  0.2153371E-005  0.7096541E+03  0.7818608E-02  0.9700863E-01
          2   -1    0    0  501    0  0.00000000000E+00  0.00000000000E+00  0.35284097687E+04  0.35284097687E+04  0.25500000000E-02 0.  1.
         -2   -1    0    0    0  501 -0.00000000000E+00 -0.00000000000E+00 -0.35682430593E+02  0.35682430684E+02  0.25500000000E-02 0. -1.
    5000001    1    1    2    0    0  0.21673071947E+03 -0.17644595844E+03  0.11859139039E+04  0.12328183842E+04  0.18800000000E+03 0.  0.
   -5000001    1    1    2    0    0 -0.21673071947E+03  0.17644595844E+03  0.23068134342E+04  0.23312738151E+04  0.18800000000E+03 0.  0.
<mgrwt>
<rscale>  0 0.70965410E+03</rscale>
<asrwt>0</asrwt>
<pdfrwt beam="1">  1        2 0.50405814E+00 0.70965410E+03</pdfrwt>
<pdfrwt beam="2">  1       -2 0.50974941E-02 0.70965410E+03</pdfrwt>
<totfact> 0.24800074E+02</totfact>
</mgrwt>
</event>
<event>
 4    1  0.2153371E-005  0.9694841E+03  0.7818608E-02  0.9342662E-01
          2   -1    0    0  501    0  0.00000000000E+00  0.00000000000E+00  0.35083756565E+04  0.35083756565E+04  0.25500000000E-02 0.  1.
         -2   -1    0    0    0  501 -0.00000000000E+00 -0.00000000000E+00 -0.66975399477E+02  0.66975399526E+02  0.25500000000E-02 0. -1.
    5000001    1    1    2    0    0 -0.37323600422E+03 -0.24126214970E+03  0.15509641421E+04  0.16242987132E+04  0.18800000000E+03 0.  0.
   -5000001    1    1    2    0    0  0.37323600422E+03  0.24126214970E+03  0.18904361150E+04  0.19510523429E+04  0.18800000000E+03 0.  0.
<mgrwt>
<rscale>  0 0.96948411E+03</rscale>
<asrwt>0</asrwt>
<pdfrwt beam="1">  1        2 0.50119667E+00 0.96948411E+03</pdfrwt>
<pdfrwt beam="2">  1       -2 0.95679115E-02 0.96948411E+03</pdfrwt>
<totfact> 0.90964946E+01</totfact>
</mgrwt>
</event>
<event>
 4    1  0.2153371E-005  0.4557326E+03  0.7818608E-02  0.1026026E+00
          2   -1    0    0  501    0  0.00000000000E+00  0.00000000000E+00  0.12988897292E+03  0.12988897295E+03  0.25500000000E-02 0.  1.
         -2   -1    0    0    0  501 -0.00000000000E+00 -0.00000000000E+00 -0.39974942318E+03  0.39974942319E+03  0.25500000000E-02 0. -1.
    5000001    1    1    2    0    0  0.24808377733E+02 -0.11919952720E+03 -0.86242971497E+02  0.24001215182E+03  0.18800000000E+03 0.  0.
   -5000001    1    1    2    0    0 -0.24808377733E+02  0.11919952720E+03 -0.18361747876E+03  0.28962624431E+03  0.18800000000E+03 0.  0.
<mgrwt>
<rscale>  0 0.45573256E+03</rscale>
<asrwt>0</asrwt>
<pdfrwt beam="1">  1        2 0.18555568E-01 0.45573256E+03</pdfrwt>
<pdfrwt beam="2">  1       -2 0.57107060E-01 0.45573256E+03</pdfrwt>
<totfact> 0.89486459E+02</totfact>
</mgrwt>
</event>
<event>
 4    1  0.2153371E-005  0.4685661E+03  0.7818608E-02  0.1022326E+00
         -2   -1    0    0    0  501 -0.00000000000E+00  0.00000000000E+00  0.10017224982E+04  0.10017224982E+04  0.25500000000E-02 0. -1.
          2   -1    0    0  501    0  0.00000000000E+00 -0.00000000000E+00 -0.54794166699E+02  0.54794166759E+02  0.25500000000E-02 0.  1.
    5000001    1    1    2    0    0  0.13023613017E+03 -0.40882667333E+01  0.58769056126E+03  0.63063647161E+03  0.18800000000E+03 0.  0.
   -5000001    1    1    2    0    0 -0.13023613017E+03  0.40882667333E+01  0.35923777025E+03  0.42588019337E+03  0.18800000000E+03 0.  0.
<mgrwt>
<rscale>  0 0.46856611E+03</rscale>
<asrwt>0</asrwt>
<pdfrwt beam="1">  1        2 0.78277390E-02 0.46856611E+03</pdfrwt>
<pdfrwt beam="2">  1       -2 0.14310320E+00 0.46856611E+03</pdfrwt>
<totfact> 0.31381053E+02</totfact>
</mgrwt>
</event>
<event>
 4    1  0.2153371E-005  0.4469724E+03  0.7818608E-02  0.1028629E+00
         -2   -1    0    0    0  501 -0.00000000000E+00  0.00000000000E+00  0.68352320456E+02  0.68352320503E+02  0.25500000000E-02 0. -1.
          2   -1    0    0  501    0  0.00000000000E+00 -0.00000000000E+00 -0.73071522627E+03  0.73071522627E+03  0.25500000000E-02 0.  1.
    5000001    1    1    2    0    0  0.43335682419E+02  0.11277575476E+03 -0.33546048768E+03  0.40308075001E+03  0.18800000000E+03 0.  0.
   -5000001    1    1    2    0    0 -0.43335682419E+02 -0.11277575476E+03 -0.32690241814E+03  0.39598679677E+03  0.18800000000E+03 0.  0.
<mgrwt>
<rscale>  0 0.44697240E+03</rscale>
<asrwt>0</asrwt>
<pdfrwt beam="1">  1        2 0.10438788E+00 0.44697240E+03</pdfrwt>
<pdfrwt beam="2">  1       -2 0.97646177E-02 0.44697240E+03</pdfrwt>
<totfact> 0.30235807E+03</totfact>
</mgrwt>
</event>
<event>
 4    1  0.2153371E-005  0.5370534E+03  0.7818608E-02  0.1004536E+00
         -2   -1    0    0    0  501 -0.00000000000E+00  0.00000000000E+00  0.45781572048E+02  0.45781572119E+02  0.25500000000E-02 0. -1.
          2   -1    0    0  501    0  0.00000000000E+00 -0.00000000000E+00 -0.15750135065E+04  0.15750135065E+04  0.25500000000E-02 0.  1.
    5000001    1    1    2    0    0 -0.58490430934E+02  0.17885225117E+03 -0.65359283929E+03  0.70564641134E+03  0.18800000000E+03 0.  0.
   -5000001    1    1    2    0    0  0.58490430934E+02 -0.17885225117E+03 -0.87563909519E+03  0.91514866732E+03  0.18800000000E+03 0.  0.
<mgrwt>
<rscale>  0 0.53705342E+03</rscale>
<asrwt>0</asrwt>
<pdfrwt beam="1">  1        2 0.22500190E+00 0.53705342E+03</pdfrwt>
<pdfrwt beam="2">  1       -2 0.65402256E-02 0.53705342E+03</pdfrwt>
<totfact> 0.18379493E+03</totfact>
</mgrwt>
</event>
<event>
 4    1  0.2153371E-005  0.5041366E+03  0.7818608E-02  0.1012705E+00
         -2   -1    0    0    0  501 -0.00000000000E+00  0.00000000000E+00  0.20921578304E+02  0.20921578459E+02  0.25500000000E-02 0. -1.
          2   -1    0    0  501    0  0.00000000000E+00 -0.00000000000E+00 -0.30369810740E+04  0.30369810740E+04  0.25500000000E-02 0.  1.
    5000001    1    1    2    0    0  0.12496959547E+03 -0.27122902911E+02 -0.84798001105E+03  0.87793345465E+03  0.18800000000E+03 0.  0.
   -5000001    1    1    2    0    0 -0.12496959547E+03  0.27122902911E+02 -0.21680794846E+04  0.21799691978E+04  0.18800000000E+03 0.  0.
<mgrwt>
<rscale>  0 0.50413664E+03</rscale>
<asrwt>0</asrwt>
<pdfrwt beam="1">  1        2 0.43385416E+00 0.50413664E+03</pdfrwt>
<pdfrwt beam="2">  1       -2 0.29887988E-02 0.50413664E+03</pdfrwt>
<totfact> 0.10974186E+03</totfact>
</mgrwt>
</event>
<event>
 4    1  0.2153371E-005  0.4883271E+03  0.7818608E-02  0.1016871E+00
         -2   -1    0    0    0  501 -0.00000000000E+00  0.00000000000E+00  0.67638765072E+02  0.67638765120E+02  0.25500000000E-02 0. -1.
          2   -1    0    0  501    0  0.00000000000E+00 -0.00000000000E+00 -0.88138579235E+03  0.88138579235E+03  0.25500000000E-02 0.  1.
    5000001    1    1    2    0    0  0.32820954415E+02  0.86831943460E+02 -0.16371415746E+03  0.26601377184E+03  0.18800000000E+03 0.  0.
   -5000001    1    1    2    0    0 -0.32820954415E+02 -0.86831943460E+02 -0.65003286981E+03  0.68301078563E+03  0.18800000000E+03 0.  0.
<mgrwt>
<rscale>  0 0.48832713E+03</rscale>
<asrwt>0</asrwt>
<pdfrwt beam="1">  1        2 0.12591225E+00 0.48832713E+03</pdfrwt>
<pdfrwt beam="2">  1       -2 0.96626813E-02 0.48832713E+03</pdfrwt>
<totfact> 0.24255082E+03</totfact>
</mgrwt>
</event>
<event>
 4    1  0.2153371E-005  0.7538654E+03  0.7818608E-02  0.9629306E-01
          2   -1    0    0  501    0  0.00000000000E+00  0.00000000000E+00  0.48137173902E+03  0.48137173902E+03  0.25500000000E-02 0.  1.
         -2   -1    0    0    0  501 -0.00000000000E+00 -0.00000000000E+00 -0.29515289703E+03  0.29515289704E+03  0.25500000000E-02 0. -1.
    5000001    1    1    2    0    0 -0.14151102940E+03  0.25976922872E+03  0.23594551404E+03  0.42251592778E+03  0.18800000000E+03 0.  0.
   -5000001    1    1    2    0    0  0.14151102940E+03 -0.25976922872E+03 -0.49726672043E+02  0.35400870829E+03  0.18800000000E+03 0.  0.
<mgrwt>
<rscale>  0 0.75386541E+03</rscale>
<asrwt>0</asrwt>
<pdfrwt beam="1">  1        2 0.68767390E-01 0.75386541E+03</pdfrwt>
<pdfrwt beam="2">  1       -2 0.42164700E-01 0.75386541E+03</pdfrwt>
<totfact> 0.37620978E+02</totfact>
</mgrwt>
</event>
<event>
 4    1  0.2153371E-005  0.5654078E+03  0.7818608E-02  0.9979892E-01
          2   -1    0    0  501    0  0.00000000000E+00  0.00000000000E+00  0.20408033462E+04  0.20408033462E+04  0.25500000000E-02 0.  1.
         -2   -1    0    0    0  501 -0.00000000000E+00 -0.00000000000E+00 -0.39161780763E+02  0.39161780846E+02  0.25500000000E-02 0. -1.
    5000001    1    1    2    0    0  0.15759040850E+03  0.13951403845E+03  0.93941961028E+03  0.98089352529E+03  0.18800000000E+03 0.  0.
   -5000001    1    1    2    0    0 -0.15759040850E+03 -0.13951403845E+03  0.10622219551E+04  0.10990716017E+04  0.18800000000E+03 0.  0.
<mgrwt>
<rscale>  0 0.56540779E+03</rscale>
<asrwt>0</asrwt>
<pdfrwt beam="1">  1        2 0.29154343E+00 0.56540779E+03</pdfrwt>
<pdfrwt beam="2">  1       -2 0.55945383E-02 0.56540779E+03</pdfrwt>
<totfact> 0.13640892E+03</totfact>
</mgrwt>
</event>
<event>
 4    1  0.2153371E-005  0.5877568E+03  0.7818608E-02  0.9931137E-01
         -2   -1    0    0    0  501 -0.00000000000E+00  0.00000000000E+00  0.99578969472E+02  0.99578969505E+02  0.25500000000E-02 0. -1.
          2   -1    0    0  501    0  0.00000000000E+00 -0.00000000000E+00 -0.86729679197E+03  0.86729679197E+03  0.25500000000E-02 0.  1.
    5000001    1    1    2    0    0  0.12136572852E+03 -0.18193213778E+03 -0.47679314510E+03  0.55722943751E+03  0.18800000000E+03 0.  0.
   -5000001    1    1    2    0    0 -0.12136572852E+03  0.18193213778E+03 -0.29092467740E+03  0.40964632396E+03  0.18800000000E+03 0.  0.
<mgrwt>
<rscale>  0 0.58775682E+03</rscale>
<asrwt>0</asrwt>
<pdfrwt beam="1">  1        2 0.12389954E+00 0.58775682E+03</pdfrwt>
<pdfrwt beam="2">  1       -2 0.14225568E-01 0.58775682E+03</pdfrwt>
<totfact> 0.13132253E+03</totfact>
</mgrwt>
</event>
<event>
 4    1  0.2153371E-005  0.5664004E+03  0.7818608E-02  0.9977676E-01
          2   -1    0    0  501    0  0.00000000000E+00  0.00000000000E+00  0.13154533967E+04  0.13154533967E+04  0.25500000000E-02 0.  1.
         -2   -1    0    0    0  501 -0.00000000000E+00 -0.00000000000E+00 -0.60969354725E+02  0.60969354778E+02  0.25500000000E-02 0. -1.
    5000001    1    1    2    0    0  0.42166673753E+02 -0.16711755341E+03  0.92637470315E+03  0.96084358543E+03  0.18800000000E+03 0.  0.
   -5000001    1    1    2    0    0 -0.42166673753E+02  0.16711755341E+03  0.32810933884E+03  0.41557916607E+03  0.18800000000E+03 0.  0.
<mgrwt>
<rscale>  0 0.56640037E+03</rscale>
<asrwt>0</asrwt>
<pdfrwt beam="1">  1        2 0.18792189E+00 0.56640037E+03</pdfrwt>
<pdfrwt beam="2">  1       -2 0.87099091E-02 0.56640037E+03</pdfrwt>
<totfact> 0.15964093E+03</totfact>
</mgrwt>
</event>
<event>
 4    1  0.2153371E-005  0.4957569E+03  0.7818608E-02  0.1014892E+00
          2   -1    0    0  501    0  0.00000000000E+00  0.00000000000E+00  0.11380635275E+04  0.11380635275E+04  0.25500000000E-02 0.  1.
         -2   -1    0    0    0  501 -0.00000000000E+00 -0.00000000000E+00 -0.53989708551E+02  0.53989708611E+02  0.25500000000E-02 0. -1.
    5000001    1    1    2    0    0 -0.31509094401E+02 -0.14094708211E+03  0.36796594537E+03  0.43772347429E+03  0.18800000000E+03 0.  0.
   -5000001    1    1    2    0    0  0.31509094401E+02  0.14094708211E+03  0.71610787361E+03  0.75432976186E+03  0.18800000000E+03 0.  0.
<mgrwt>
<rscale>  0 0.49575687E+03</rscale>
<asrwt>0</asrwt>
<pdfrwt beam="1">  1        2 0.16258052E+00 0.49575687E+03</pdfrwt>
<pdfrwt beam="2">  1       -2 0.77128146E-02 0.49575687E+03</pdfrwt>
<totfact> 0.24316676E+03</totfact>
</mgrwt>
</event>
<event>
 4    1  0.2153371E-005  0.7490608E+03  0.7818608E-02  0.9636825E-01
          2   -1    0    0  501    0  0.00000000000E+00  0.00000000000E+00  0.11172585592E+04  0.11172585592E+04  0.25500000000E-02 0.  1.
         -2   -1    0    0    0  501 -0.00000000000E+00 -0.00000000000E+00 -0.12555109205E+03  0.12555109208E+03  0.25500000000E-02 0. -1.
    5000001    1    1    2    0    0 -0.17682913887E+03  0.26947609187E+03  0.44226722605E+03  0.57864514833E+03  0.18800000000E+03 0.  0.
   -5000001    1    1    2    0    0  0.17682913887E+03 -0.26947609187E+03  0.54944024106E+03  0.66416450292E+03  0.18800000000E+03 0.  0.
<mgrwt>
<rscale>  0 0.74906083E+03</rscale>
<asrwt>0</asrwt>
<pdfrwt beam="1">  1        2 0.15960838E+00 0.74906083E+03</pdfrwt>
<pdfrwt beam="2">  1       -2 0.17935869E-01 0.74906083E+03</pdfrwt>
<totfact> 0.61847235E+02</totfact>
</mgrwt>
</event>
<event>
 4    1  0.2153371E-005  0.4940616E+03  0.7818608E-02  0.1015341E+00
         -2   -1    0    0    0  501 -0.00000000000E+00  0.00000000000E+00  0.93036889402E+02  0.93036889437E+02  0.25500000000E-02 0. -1.
          2   -1    0    0  501    0  0.00000000000E+00 -0.00000000000E+00 -0.65591411614E+03  0.65591411615E+03  0.25500000000E-02 0.  1.
    5000001    1    1    2    0    0  0.49068294729E+02 -0.14961344299E+03 -0.23625725246E+03  0.34051926408E+03  0.18800000000E+03 0.  0.
   -5000001    1    1    2    0    0 -0.49068294729E+02  0.14961344299E+03 -0.32661997428E+03  0.40843174150E+03  0.18800000000E+03 0.  0.
<mgrwt>
<rscale>  0 0.49406157E+03</rscale>
<asrwt>0</asrwt>
<pdfrwt beam="1">  1        2 0.93702014E-01 0.49406157E+03</pdfrwt>
<pdfrwt beam="2">  1       -2 0.13290985E-01 0.49406157E+03</pdfrwt>
<totfact> 0.20859763E+03</totfact>
</mgrwt>
</event>
<event>
 4    1  0.2153371E-005  0.5087597E+03  0.7818608E-02  0.1011517E+00
         -2   -1    0    0    0  501 -0.00000000000E+00  0.00000000000E+00  0.29007535594E+02  0.29007535706E+02  0.25500000000E-02 0. -1.
          2   -1    0    0  501    0  0.00000000000E+00 -0.00000000000E+00 -0.22307686103E+04  0.22307686103E+04  0.25500000000E-02 0.  1.
    5000001    1    1    2    0    0 -0.14526248641E+03  0.88547542258E+02 -0.10095012996E+04  0.10408548079E+04  0.18800000000E+03 0.  0.
   -5000001    1    1    2    0    0  0.14526248641E+03 -0.88547542258E+02 -0.11922597751E+04  0.12189213381E+04  0.18800000000E+03 0.  0.
<mgrwt>
<rscale>  0 0.50875967E+03</rscale>
<asrwt>0</asrwt>
<pdfrwt beam="1">  1        2 0.31868112E+00 0.50875967E+03</pdfrwt>
<pdfrwt beam="2">  1       -2 0.41439351E-02 0.50875967E+03</pdfrwt>
<totfact> 0.17472512E+03</totfact>
</mgrwt>
</event>
<event>
 4    1  0.2153371E-005  0.6343074E+03  0.7818608E-02  0.9836679E-01
          2   -1    0    0  501    0  0.00000000000E+00  0.00000000000E+00  0.91642796232E+03  0.91642796232E+03  0.25500000000E-02 0.  1.
         -2   -1    0    0    0  501 -0.00000000000E+00 -0.00000000000E+00 -0.10975926842E+03  0.10975926845E+03  0.25500000000E-02 0. -1.
    5000001    1    1    2    0    0 -0.18415298652E+03 -0.11593387271E+03  0.61971860868E+03  0.68318968027E+03  0.18800000000E+03 0.  0.
   -5000001    1    1    2    0    0  0.18415298652E+03  0.11593387271E+03  0.18695008522E+03  0.34299755050E+03  0.18800000000E+03 0.  0.
<mgrwt>
<rscale>  0 0.63430738E+03</rscale>
<asrwt>0</asrwt>
<pdfrwt beam="1">  1        2 0.13091828E+00 0.63430738E+03</pdfrwt>
<pdfrwt beam="2">  1       -2 0.15679895E-01 0.63430738E+03</pdfrwt>
<totfact> 0.10348221E+03</totfact>
</mgrwt>
</event>
<event>
 4    1  0.2153371E-005  0.4242975E+03  0.7818608E-02  0.1035677E+00
          2   -1    0    0  501    0  0.00000000000E+00  0.00000000000E+00  0.29094322369E+03  0.29094322371E+03  0.25500000000E-02 0.  1.
         -2   -1    0    0    0  501 -0.00000000000E+00 -0.00000000000E+00 -0.15469369895E+03  0.15469369897E+03  0.25500000000E-02 0. -1.
    5000001    1    1    2    0    0 -0.61040208632E+02  0.63986419548E+02  0.11321300724E+03  0.23660379111E+03  0.18800000000E+03 0.  0.
   -5000001    1    1    2    0    0  0.61040208632E+02 -0.63986419548E+02  0.23036517499E+02  0.20903313157E+03  0.18800000000E+03 0.  0.
<mgrwt>
<rscale>  0 0.42429746E+03</rscale>
<asrwt>0</asrwt>
<pdfrwt beam="1">  1        2 0.41563318E-01 0.42429746E+03</pdfrwt>
<pdfrwt beam="2">  1       -2 0.22099100E-01 0.42429746E+03</pdfrwt>
<totfact> 0.21829985E+03</totfact>
</mgrwt>
</event>
<event>
 4    1  0.2153371E-005  0.5717282E+03  0.7818608E-02  0.9965862E-01
         -2   -1    0    0    0  501 -0.00000000000E+00  0.00000000000E+00  0.92406260032E+02  0.92406260067E+02  0.25500000000E-02 0. -1.
          2   -1    0    0  501    0  0.00000000000E+00 -0.00000000000E+00 -0.88433712465E+03  0.88433712466E+03  0.25500000000E-02 0.  1.
    5000001    1    1    2    0    0 -0.16334053536E+03 -0.13824475734E+03 -0.43719937010E+03  0.52180363417E+03  0.18800000000E+03 0.  0.
   -5000001    1    1    2    0    0  0.16334053536E+03  0.13824475734E+03 -0.35473149453E+03  0.45493975055E+03  0.18800000000E+03 0.  0.
<mgrwt>
<rscale>  0 0.57172821E+03</rscale>
<asrwt>0</asrwt>
<pdfrwt beam="1">  1        2 0.12633387E+00 0.57172821E+03</pdfrwt>
<pdfrwt beam="2">  1       -2 0.13200895E-01 0.57172821E+03</pdfrwt>
<totfact> 0.14500495E+03</totfact>
</mgrwt>
</event>
<event>
 4    1  0.2153371E-005  0.1263598E+04  0.7818608E-02  0.9058941E-01
          2   -1    0    0  501    0  0.00000000000E+00  0.00000000000E+00  0.74135618784E+03  0.74135618785E+03  0.25500000000E-02 0.  1.
         -2   -1    0    0    0  501 -0.00000000000E+00 -0.00000000000E+00 -0.53843209167E+03  0.53843209168E+03  0.25500000000E-02 0. -1.
    5000001    1    1    2    0    0  0.16763385541E+03 -0.57616818930E+03  0.16352583717E+03  0.64973501618E+03  0.18800000000E+03 0.  0.
   -5000001    1    1    2    0    0 -0.16763385541E+03  0.57616818930E+03  0.39398258999E+02  0.63005326334E+03  0.18800000000E+03 0.  0.
<mgrwt>
<rscale>  0 0.12635980E+04</rscale>
<asrwt>0</asrwt>
<pdfrwt beam="1">  1        2 0.10590803E+00 0.12635980E+04</pdfrwt>
<pdfrwt beam="2">  1       -2 0.76918871E-01 0.12635980E+04</pdfrwt>
<totfact> 0.62228221E+01</totfact>
</mgrwt>
</event>
<event>
 4    1  0.2153371E-005  0.4352814E+03  0.7818608E-02  0.1032204E+00
         -2   -1    0    0    0  501 -0.00000000000E+00  0.00000000000E+00  0.41586736917E+02  0.41586736995E+02  0.25500000000E-02 0. -1.
          2   -1    0    0  501    0  0.00000000000E+00 -0.00000000000E+00 -0.11390043365E+04  0.11390043365E+04  0.25500000000E-02 0.  1.
    5000001    1    1    2    0    0  0.87643097443E+02  0.62667312826E+02 -0.49345816496E+03  0.53893734811E+03  0.18800000000E+03 0.  0.
   -5000001    1    1    2    0    0 -0.87643097443E+02 -0.62667312826E+02 -0.60395943460E+03  0.64165372536E+03  0.18800000000E+03 0.  0.
<mgrwt>
<rscale>  0 0.43528140E+03</rscale>
<asrwt>0</asrwt>
<pdfrwt beam="1">  1        2 0.16271488E+00 0.43528140E+03</pdfrwt>
<pdfrwt beam="2">  1       -2 0.59409632E-02 0.43528140E+03</pdfrwt>
<totfact> 0.36558975E+03</totfact>
</mgrwt>
</event>
<event>
 4    1  0.2153371E-005  0.6701895E+03  0.7818608E-02  0.9769616E-01
         -2   -1    0    0    0  501 -0.00000000000E+00  0.00000000000E+00  0.41546050989E+02  0.41546051067E+02  0.25500000000E-02 0. -1.
          2   -1    0    0  501    0  0.00000000000E+00 -0.00000000000E+00 -0.27027476094E+04  0.27027476094E+04  0.25500000000E-02 0.  1.
    5000001    1    1    2    0    0  0.81106272502E+02  0.26438573568E+03 -0.12421639046E+04  0.12863876595E+04  0.18800000000E+03 0.  0.
   -5000001    1    1    2    0    0 -0.81106272502E+02 -0.26438573568E+03 -0.14190376538E+04  0.14579060010E+04  0.18800000000E+03 0.  0.
<mgrwt>
<rscale>  0 0.67018950E+03</rscale>
<asrwt>0</asrwt>
<pdfrwt beam="1">  1        2 0.38610669E+00 0.67018950E+03</pdfrwt>
<pdfrwt beam="2">  1       -2 0.59351519E-02 0.67018950E+03</pdfrwt>
<totfact> 0.56732636E+02</totfact>
</mgrwt>
</event>
<event>
 4    1  0.2153371E-005  0.4215330E+03  0.7818608E-02  0.1036569E+00
         -2   -1    0    0    0  501 -0.00000000000E+00  0.00000000000E+00  0.46749583151E+02  0.46749583220E+02  0.25500000000E-02 0. -1.
          2   -1    0    0  501    0  0.00000000000E+00 -0.00000000000E+00 -0.95022254893E+03  0.95022254893E+03  0.25500000000E-02 0.  1.
    5000001    1    1    2    0    0  0.45685353300E+02 -0.30674144899E+02 -0.26776714437E+03  0.33176994782E+03  0.18800000000E+03 0.  0.
   -5000001    1    1    2    0    0 -0.45685353300E+02  0.30674144899E+02 -0.63570582140E+03  0.66520218433E+03  0.18800000000E+03 0.  0.
<mgrwt>
<rscale>  0 0.42153296E+03</rscale>
<asrwt>0</asrwt>
<pdfrwt beam="1">  1        2 0.13574607E+00 0.42153296E+03</pdfrwt>
<pdfrwt beam="2">  1       -2 0.66785125E-02 0.42153296E+03</pdfrwt>
<totfact> 0.39356840E+03</totfact>
</mgrwt>
</event>
<event>
 4    1  0.2153371E-005  0.4641021E+03  0.7818608E-02  0.1023598E+00
          2   -1    0    0  501    0  0.00000000000E+00  0.00000000000E+00  0.40574959817E+03  0.40574959817E+03  0.25500000000E-02 0.  1.
         -2   -1    0    0    0  501 -0.00000000000E+00 -0.00000000000E+00 -0.13271162817E+03  0.13271162819E+03  0.25500000000E-02 0. -1.
    5000001    1    1    2    0    0  0.10819398754E+03  0.45406887916E+02  0.21636351391E+03  0.30971744310E+03  0.18800000000E+03 0.  0.
   -5000001    1    1    2    0    0 -0.10819398754E+03 -0.45406887916E+02  0.56674456088E+02  0.22874378327E+03  0.18800000000E+03 0.  0.
<mgrwt>
<rscale>  0 0.46410210E+03</rscale>
<asrwt>0</asrwt>
<pdfrwt beam="1">  1        2 0.57964229E-01 0.46410210E+03</pdfrwt>
<pdfrwt beam="2">  1       -2 0.18958804E-01 0.46410210E+03</pdfrwt>
<totfact> 0.19801450E+03</totfact>
</mgrwt>
</event>
<event>
 4    1  0.2153371E-005  0.8657496E+03  0.7818608E-02  0.9469439E-01
          2   -1    0    0  501    0  0.00000000000E+00  0.00000000000E+00  0.98439713067E+02  0.98439713100E+02  0.25500000000E-02 0.  1.
         -2   -1    0    0    0  501 -0.00000000000E+00 -0.00000000000E+00 -0.19035060287E+04  0.19035060287E+04  0.25500000000E-02 0. -1.
    5000001    1    1    2    0    0  0.12527238661E+02 -0.26700740053E+03 -0.24609819385E+03  0.40909437134E+03  0.18800000000E+03 0.  0.
   -5000001    1    1    2    0    0 -0.12527238661E+02  0.26700740053E+03 -0.15589681218E+04  0.15928513705E+04  0.18800000000E+03 0.  0.
<mgrwt>
<rscale>  0 0.86574959E+03</rscale>
<asrwt>0</asrwt>
<pdfrwt beam="1">  1        2 0.14062817E-01 0.86574959E+03</pdfrwt>
<pdfrwt beam="2">  1       -2 0.27192941E+00 0.86574959E+03</pdfrwt>
<totfact> 0.20946505E+01</totfact>
</mgrwt>
</event>
<event>
 4    1  0.2153371E-005  0.1497304E+04  0.7818608E-02  0.8886248E-01
          2   -1    0    0  501    0  0.00000000000E+00  0.00000000000E+00  0.13566155368E+04  0.13566155368E+04  0.25500000000E-02 0.  1.
         -2   -1    0    0    0  501 -0.00000000000E+00 -0.00000000000E+00 -0.41314565773E+03  0.41314565773E+03  0.25500000000E-02 0. -1.
    5000001    1    1    2    0    0  0.67253176608E+03  0.25811110886E+03  0.56491921328E+03  0.93455766994E+03  0.18800000000E+03 0.  0.
   -5000001    1    1    2    0    0 -0.67253176608E+03 -0.25811110886E+03  0.37855066578E+03  0.83520352458E+03  0.18800000000E+03 0.  0.
<mgrwt>
<rscale>  0 0.14973040E+04</rscale>
<asrwt>0</asrwt>
<pdfrwt beam="1">  1        2 0.19380222E+00 0.14973040E+04</pdfrwt>
<pdfrwt beam="2">  1       -2 0.59020808E-01 0.14973040E+04</pdfrwt>
<totfact> 0.45344946E+01</totfact>
</mgrwt>
</event>
<event>
 4    1  0.2153371E-005  0.6513101E+03  0.7818608E-02  0.9804324E-01
          2   -1    0    0  501    0  0.00000000000E+00  0.00000000000E+00  0.14067070785E+04  0.14067070785E+04  0.25500000000E-02 0.  1.
         -2   -1    0    0    0  501 -0.00000000000E+00 -0.00000000000E+00 -0.75389688610E+02  0.75389688653E+02  0.25500000000E-02 0. -1.
    5000001    1    1    2    0    0 -0.19393961785E+03 -0.18184848560E+03  0.67720850462E+03  0.75142318690E+03  0.18800000000E+03 0.  0.
   -5000001    1    1    2    0    0  0.19393961785E+03  0.18184848560E+03  0.65410888525E+03  0.73067358024E+03  0.18800000000E+03 0.  0.
<mgrwt>
<rscale>  0 0.65131009E+03</rscale>
<asrwt>0</asrwt>
<pdfrwt beam="1">  1        2 0.20095814E+00 0.65131009E+03</pdfrwt>
<pdfrwt beam="2">  1       -2 0.10769956E-01 0.65131009E+03</pdfrwt>
<totfact> 0.10090707E+03</totfact>
</mgrwt>
</event>
<event>
 4    1  0.2153371E-005  0.7336495E+03  0.7818608E-02  0.9661357E-01
          2   -1    0    0  501    0  0.00000000000E+00  0.00000000000E+00  0.15722845495E+04  0.15722845495E+04  0.25500000000E-02 0.  1.
         -2   -1    0    0    0  501 -0.00000000000E+00 -0.00000000000E+00 -0.85582715962E+02  0.85582716000E+02  0.25500000000E-02 0. -1.
    5000001    1    1    2    0    0 -0.87851498464E+02  0.24484841174E+03  0.11447213350E+04  0.11888648221E+04  0.18800000000E+03 0.  0.
   -5000001    1    1    2    0    0  0.87851498464E+02 -0.24484841174E+03  0.34198049858E+03  0.46900244341E+03  0.18800000000E+03 0.  0.
<mgrwt>
<rscale>  0 0.73364946E+03</rscale>
<asrwt>0</asrwt>
<pdfrwt beam="1">  1        2 0.22461209E+00 0.73364946E+03</pdfrwt>
<pdfrwt beam="2">  1       -2 0.12226102E-01 0.73364946E+03</pdfrwt>
<totfact> 0.66808756E+02</totfact>
</mgrwt>
</event>
<event>
 4    1  0.2153371E-005  0.4412627E+03  0.7818608E-02  0.1030360E+00
         -2   -1    0    0    0  501 -0.00000000000E+00  0.00000000000E+00  0.15991786930E+03  0.15991786932E+03  0.25500000000E-02 0. -1.
          2   -1    0    0  501    0  0.00000000000E+00 -0.00000000000E+00 -0.30439496554E+03  0.30439496555E+03  0.25500000000E-02 0.  1.
    5000001    1    1    2    0    0  0.41843893270E+00  0.83060904217E+02 -0.15664673027E+03  0.25842114272E+03  0.18800000000E+03 0.  0.
   -5000001    1    1    2    0    0 -0.41843893270E+00 -0.83060904217E+02  0.12169634035E+02  0.20589169214E+03  0.18800000000E+03 0.  0.
<mgrwt>
<rscale>  0 0.44126271E+03</rscale>
<asrwt>0</asrwt>
<pdfrwt beam="1">  1        2 0.43484995E-01 0.44126271E+03</pdfrwt>
<pdfrwt beam="2">  1       -2 0.22845410E-01 0.44126271E+03</pdfrwt>
<totfact> 0.19609170E+03</totfact>
</mgrwt>
</event>
<event>
 4    1  0.2153371E-005  0.6253835E+03  0.7818608E-02  0.9854099E-01
         -2   -1    0    0    0  501 -0.00000000000E+00  0.00000000000E+00  0.35668778150E+02  0.35668778241E+02  0.25500000000E-02 0. -1.
          2   -1    0    0  501    0  0.00000000000E+00 -0.00000000000E+00 -0.27412248423E+04  0.27412248423E+04  0.25500000000E-02 0.  1.
    5000001    1    1    2    0    0  0.13746382182E+03 -0.41002909324E+02 -0.44436281842E+03  0.50336850843E+03  0.18800000000E+03 0.  0.
   -5000001    1    1    2    0    0 -0.13746382182E+03  0.41002909324E+02 -0.22611932457E+04  0.22735251121E+04  0.18800000000E+03 0.  0.
<mgrwt>
<rscale>  0 0.62538353E+03</rscale>
<asrwt>0</asrwt>
<pdfrwt beam="1">  1        2 0.39160342E+00 0.62538353E+03</pdfrwt>
<pdfrwt beam="2">  1       -2 0.50955415E-02 0.62538353E+03</pdfrwt>
<totfact> 0.68970440E+02</totfact>
</mgrwt>
</event>
<event>
 4    1  0.2153371E-005  0.7335226E+03  0.7818608E-02  0.9661561E-01
         -2   -1    0    0    0  501 -0.00000000000E+00  0.00000000000E+00  0.42351309635E+03  0.42351309636E+03  0.25500000000E-02 0.  1.
          2   -1    0    0  501    0  0.00000000000E+00 -0.00000000000E+00 -0.31761436151E+03  0.31761436152E+03  0.25500000000E-02 0. -1.
    5000001    1    1    2    0    0 -0.83705052800E+02 -0.21780898071E+03  0.26661895770E+03  0.40109469773E+03  0.18800000000E+03 0.  0.
   -5000001    1    1    2    0    0  0.83705052800E+02  0.21780898071E+03 -0.16072022286E+03  0.34003276015E+03  0.18800000000E+03 0.  0.
<mgrwt>
<rscale>  0 0.73352257E+03</rscale>
<asrwt>0</asrwt>
<pdfrwt beam="1">  1        2 0.45373480E-01 0.73352257E+03</pdfrwt>
<pdfrwt beam="2">  1       -2 0.60501871E-01 0.73352257E+03</pdfrwt>
<totfact> 0.28719302E+02</totfact>
</mgrwt>
</event>
<event>
 4    1  0.2153371E-005  0.4528332E+03  0.7818608E-02  0.1026881E+00
         -2   -1    0    0    0  501 -0.00000000000E+00  0.00000000000E+00  0.11516434275E+03  0.11516434278E+03  0.25500000000E-02 0. -1.
          2   -1    0    0  501    0  0.00000000000E+00 -0.00000000000E+00 -0.44514184438E+03  0.44514184439E+03  0.25500000000E-02 0.  1.
    5000001    1    1    2    0    0 -0.11056520413E+03  0.74499670161E+01 -0.90334270395E+02  0.23618731291E+03  0.18800000000E+03 0.  0.
   -5000001    1    1    2    0    0  0.11056520413E+03 -0.74499670161E+01 -0.23964323123E+03  0.32411887425E+03  0.18800000000E+03 0.  0.
<mgrwt>
<rscale>  0 0.45283316E+03</rscale>
<asrwt>0</asrwt>
<pdfrwt beam="1">  1        2 0.63591691E-01 0.45283316E+03</pdfrwt>
<pdfrwt beam="2">  1       -2 0.16452049E-01 0.45283316E+03</pdfrwt>
<totfact> 0.22752869E+03</totfact>
</mgrwt>
</event>
<event>
 4    1  0.2153371E-005  0.6176188E+03  0.7818608E-02  0.9869512E-01
          2   -1    0    0  501    0  0.00000000000E+00  0.00000000000E+00  0.25696101324E+04  0.25696101324E+04  0.25500000000E-02 0. -1.
         -2   -1    0    0    0  501 -0.00000000000E+00 -0.00000000000E+00 -0.37111952365E+02  0.37111952453E+02  0.25500000000E-02 0.  1.
    5000001    1    1    2    0    0 -0.20240918670E+03 -0.13398509910E+03  0.14060881743E+04  0.14392183432E+04  0.18800000000E+03 0.  0.
   -5000001    1    1    2    0    0  0.20240918670E+03  0.13398509910E+03  0.11264100058E+04  0.11675037417E+04  0.18800000000E+03 0.  0.
<mgrwt>
<rscale>  0 0.61761881E+03</rscale>
<asrwt>0</asrwt>
<pdfrwt beam="1">  1        2 0.36708725E+00 0.61761881E+03</pdfrwt>
<pdfrwt beam="2">  1       -2 0.53017062E-02 0.61761881E+03</pdfrwt>
<totfact> 0.79731493E+02</totfact>
</mgrwt>
</event>
<event>
 4    1  0.2153371E-005  0.4905430E+03  0.7818608E-02  0.1016277E+00
         -2   -1    0    0    0  501 -0.00000000000E+00  0.00000000000E+00  0.66724712355E+02  0.66724712404E+02  0.25500000000E-02 0. -1.
          2   -1    0    0  501    0  0.00000000000E+00 -0.00000000000E+00 -0.90158649247E+03  0.90158649248E+03  0.25500000000E-02 0.  1.
    5000001    1    1    2    0    0  0.14017079453E+03 -0.66242609957E+02 -0.47249562883E+03  0.53163150234E+03  0.18800000000E+03 0.  0.
   -5000001    1    1    2    0    0 -0.14017079453E+03  0.66242609957E+02 -0.36236615129E+03  0.43667970254E+03  0.18800000000E+03 0.  0.
<mgrwt>
<rscale>  0 0.49054296E+03</rscale>
<asrwt>0</asrwt>
<pdfrwt beam="1">  1        2 0.12879806E+00 0.49054296E+03</pdfrwt>
<pdfrwt beam="2">  1       -2 0.95321023E-02 0.49054296E+03</pdfrwt>
<totfact> 0.24059997E+03</totfact>
</mgrwt>
</event>
<event>
 4    1  0.2153371E-005  0.1169366E+04  0.7818608E-02  0.9140101E-01
         -2   -1    0    0    0  501 -0.00000000000E+00  0.00000000000E+00  0.24124373636E+03  0.24124373637E+03  0.25500000000E-02 0. -1.
          2   -1    0    0  501    0  0.00000000000E+00 -0.00000000000E+00 -0.14170495564E+04  0.14170495564E+04  0.25500000000E-02 0.  1.
    5000001    1    1    2    0    0 -0.46913398440E+03 -0.26210154114E+03 -0.39909452397E+03  0.69527286172E+03  0.18800000000E+03 0.  0.
   -5000001    1    1    2    0    0  0.46913398440E+03  0.26210154114E+03 -0.77671129604E+03  0.96302043103E+03  0.18800000000E+03 0.  0.
<mgrwt>
<rscale>  0 0.11693662E+04</rscale>
<asrwt>0</asrwt>
<pdfrwt beam="1">  1        2 0.20243565E+00 0.11693662E+04</pdfrwt>
<pdfrwt beam="2">  1       -2 0.34463392E-01 0.11693662E+04</pdfrwt>
<totfact> 0.12620936E+02</totfact>
</mgrwt>
</event>
<event>
 4    1  0.2153371E-005  0.6577198E+03  0.7818608E-02  0.9792400E-01
          2   -1    0    0  501    0  0.00000000000E+00  0.00000000000E+00  0.24096866685E+04  0.24096866685E+04  0.25500000000E-02 0.  1.
         -2   -1    0    0    0  501 -0.00000000000E+00 -0.00000000000E+00 -0.44880874526E+02  0.44880874599E+02  0.25500000000E-02 0. -1.
    5000001    1    1    2    0    0 -0.18038361214E+03 -0.19948656188E+03  0.12634562949E+04  0.13053731056E+04  0.18800000000E+03 0.  0.
   -5000001    1    1    2    0    0  0.18038361214E+03  0.19948656188E+03  0.11013494991E+04  0.11491944374E+04  0.18800000000E+03 0.  0.
<mgrwt>
<rscale>  0 0.65771983E+03</rscale>
<asrwt>0</asrwt>
<pdfrwt beam="1">  1        2 0.34424092E+00 0.65771983E+03</pdfrwt>
<pdfrwt beam="2">  1       -2 0.64115542E-02 0.65771983E+03</pdfrwt>
<totfact> 0.71326476E+02</totfact>
</mgrwt>
</event>
<event>
 4    1  0.2153371E-005  0.5112875E+03  0.7818608E-02  0.1010874E+00
         -2   -1    0    0    0  501 -0.00000000000E+00  0.00000000000E+00  0.10600797901E+03  0.10600797904E+03  0.25500000000E-02 0. -1.
          2   -1    0    0  501    0  0.00000000000E+00 -0.00000000000E+00 -0.61649821048E+03  0.61649821048E+03  0.25500000000E-02 0.  1.
    5000001    1    1    2    0    0  0.10324929516E+03 -0.13910026352E+03 -0.25617078776E+03  0.36190713279E+03  0.18800000000E+03 0.  0.
   -5000001    1    1    2    0    0 -0.10324929516E+03  0.13910026352E+03 -0.25431944371E+03  0.36059905673E+03  0.18800000000E+03 0.  0.
<mgrwt>
<rscale>  0 0.51128751E+03</rscale>
<asrwt>0</asrwt>
<pdfrwt beam="1">  1        2 0.88071171E-01 0.51128751E+03</pdfrwt>
<pdfrwt beam="2">  1       -2 0.15143997E-01 0.51128751E+03</pdfrwt>
<totfact> 0.18061078E+03</totfact>
</mgrwt>
</event>
<event>
 4    1  0.2153371E-005  0.5524559E+03  0.7818608E-02  0.1000927E+00
         -2   -1    0    0    0  501 -0.00000000000E+00  0.00000000000E+00  0.19173910017E+03  0.19173910019E+03  0.25500000000E-02 0. -1.
          2   -1    0    0  501    0  0.00000000000E+00 -0.00000000000E+00 -0.39794633457E+03  0.39794633458E+03  0.25500000000E-02 0.  1.
    5000001    1    1    2    0    0 -0.17170323632E+02  0.19951270377E+03 -0.71842902557E+02  0.28391115094E+03  0.18800000000E+03 0.  0.
   -5000001    1    1    2    0    0  0.17170323632E+02 -0.19951270377E+03 -0.13436433184E+03  0.30577428383E+03  0.18800000000E+03 0.  0.
<mgrwt>
<rscale>  0 0.55245587E+03</rscale>
<asrwt>0</asrwt>
<pdfrwt beam="1">  1        2 0.56849476E-01 0.55245587E+03</pdfrwt>
<pdfrwt beam="2">  1       -2 0.27391300E-01 0.55245587E+03</pdfrwt>
<totfact> 0.10565942E+03</totfact>
</mgrwt>
</event>
<event>
 4    1  0.2153371E-005  0.1382107E+04  0.7818608E-02  0.8966873E-01
         -2   -1    0    0    0  501 -0.00000000000E+00  0.00000000000E+00  0.56526426219E+03  0.56526426220E+03  0.25500000000E-02 0. -1.
          2   -1    0    0  501    0  0.00000000000E+00 -0.00000000000E+00 -0.84483500919E+03  0.84483500920E+03  0.25500000000E-02 0.  1.
    5000001    1    1    2    0    0 -0.40005855123E+03  0.44826918037E+03  0.15097594123E+03  0.64740237666E+03  0.18800000000E+03 0.  0.
   -5000001    1    1    2    0    0  0.40005855123E+03 -0.44826918037E+03 -0.43054668823E+03  0.76269689473E+03  0.18800000000E+03 0.  0.
<mgrwt>
<rscale>  0 0.13821071E+04</rscale>
<asrwt>0</asrwt>
<pdfrwt beam="1">  1        2 0.12069071E+00 0.13821071E+04</pdfrwt>
<pdfrwt beam="2">  1       -2 0.80752038E-01 0.13821071E+04</pdfrwt>
<totfact> 0.46767742E+01</totfact>
</mgrwt>
</event>
<event>
 4    1  0.2153371E-005  0.5235133E+03  0.7818608E-02  0.1007818E+00
          2   -1    0    0  501    0  0.00000000000E+00  0.00000000000E+00  0.19040080206E+04  0.19040080206E+04  0.25500000000E-02 0.  1.
         -2   -1    0    0    0  501 -0.00000000000E+00 -0.00000000000E+00 -0.35985424061E+02  0.35985424151E+02  0.25500000000E-02 0. -1.
    5000001    1    1    2    0    0 -0.90985024219E+01  0.18091737646E+03  0.86383155344E+03  0.90242054086E+03  0.18800000000E+03 0.  0.
   -5000001    1    1    2    0    0  0.90985024219E+01 -0.18091737646E+03  0.10041910431E+04  0.10375729039E+04  0.18800000000E+03 0.  0.
<mgrwt>
<rscale>  0 0.52351327E+03</rscale>
<asrwt>0</asrwt>
<pdfrwt beam="1">  1        2 0.27200121E+00 0.52351327E+03</pdfrwt>
<pdfrwt beam="2">  1       -2 0.51407737E-02 0.52351327E+03</pdfrwt>
<totfact> 0.18249083E+03</totfact>
</mgrwt>
</event>
<event>
 4    1  0.2153371E-005  0.5425500E+03  0.7818608E-02  0.1003233E+00
         -2   -1    0    0    0  501 -0.00000000000E+00  0.00000000000E+00  0.11652863283E+03  0.11652863286E+03  0.25500000000E-02 0.  1.
          2   -1    0    0  501    0  0.00000000000E+00 -0.00000000000E+00 -0.63151976782E+03  0.63151976782E+03  0.25500000000E-02 0. -1.
    5000001    1    1    2    0    0 -0.16466597090E+03  0.21186013933E+02 -0.39999871042E+03  0.47212995827E+03  0.18800000000E+03 0.  0.
   -5000001    1    1    2    0    0  0.16466597090E+03 -0.21186013933E+02 -0.11499242456E+03  0.27591844241E+03  0.18800000000E+03 0.  0.
<mgrwt>
<rscale>  0 0.54255004E+03</rscale>
<asrwt>0</asrwt>
<pdfrwt beam="1">  1        2 0.90217108E-01 0.54255004E+03</pdfrwt>
<pdfrwt beam="2">  1       -2 0.16646948E-01 0.54255004E+03</pdfrwt>
<totfact> 0.14961573E+03</totfact>
</mgrwt>
</event>
<event>
 4    1  0.2153371E-005  0.4152825E+03  0.7818608E-02  0.1038613E+00
          2   -1    0    0  501    0  0.00000000000E+00  0.00000000000E+00  0.13230010469E+03  0.13230010472E+03  0.25500000000E-02 0.  1.
         -2   -1    0    0    0  501 -0.00000000000E+00 -0.00000000000E+00 -0.32588707969E+03  0.32588707970E+03  0.25500000000E-02 0. -1.
    5000001    1    1    2    0    0  0.71148318929E+02 -0.15030131052E+02 -0.15177028935E+03  0.25232163771E+03  0.18800000000E+03 0.  0.
   -5000001    1    1    2    0    0 -0.71148318929E+02  0.15030131052E+02 -0.41816685651E+02  0.20586554672E+03  0.18800000000E+03 0.  0.
<mgrwt>
<rscale>  0 0.41528253E+03</rscale>
<asrwt>0</asrwt>
<pdfrwt beam="1">  1        2 0.18900015E-01 0.41528253E+03</pdfrwt>
<pdfrwt beam="2">  1       -2 0.46555297E-01 0.41528253E+03</pdfrwt>
<totfact> 0.13243224E+03</totfact>
</mgrwt>
</event>
<event>
 4    1  0.2153371E-005  0.5904617E+03  0.7818608E-02  0.9925395E-01
          2   -1    0    0  501    0  0.00000000000E+00  0.00000000000E+00  0.71234578504E+03  0.71234578505E+03  0.25500000000E-02 0. -1.
         -2   -1    0    0    0  501 -0.00000000000E+00 -0.00000000000E+00 -0.12235807086E+03  0.12235807089E+03  0.25500000000E-02 0.  1.
    5000001    1    1    2    0    0 -0.26360692432E+02 -0.19401330661E+03  0.45913031973E+03  0.53336732159E+03  0.18800000000E+03 0.  0.
   -5000001    1    1    2    0    0  0.26360692432E+02  0.19401330661E+03  0.13085739445E+03  0.30133653434E+03  0.18800000000E+03 0.  0.
<mgrwt>
<rscale>  0 0.59046170E+03</rscale>
<asrwt>0</asrwt>
<pdfrwt beam="1">  1        2 0.10176368E+00 0.59046170E+03</pdfrwt>
<pdfrwt beam="2">  1       -2 0.17479725E-01 0.59046170E+03</pdfrwt>
<totfact> 0.11899315E+03</totfact>
</mgrwt>
</event>
<event>
 4    1  0.2153371E-005  0.5994248E+03  0.7818608E-02  0.9906600E-01
          2   -1    0    0  501    0  0.00000000000E+00  0.00000000000E+00  0.90779875805E+03  0.90779875806E+03  0.25500000000E-02 0.  1.
         -2   -1    0    0    0  501 -0.00000000000E+00 -0.00000000000E+00 -0.98950927151E+02  0.98950927184E+02  0.25500000000E-02 0. -1.
    5000001    1    1    2    0    0  0.74121350918E+02 -0.19209920722E+03  0.58907595247E+03  0.65172889905E+03  0.18800000000E+03 0.  0.
   -5000001    1    1    2    0    0 -0.74121350918E+02  0.19209920722E+03  0.21977187843E+03  0.35502078619E+03  0.18800000000E+03 0.  0.
<mgrwt>
<rscale>  0 0.59942482E+03</rscale>
<asrwt>0</asrwt>
<pdfrwt beam="1">  1        2 0.12968555E+00 0.59942482E+03</pdfrwt>
<pdfrwt beam="2">  1       -2 0.14135846E-01 0.59942482E+03</pdfrwt>
<totfact> 0.12488191E+03</totfact>
</mgrwt>
</event>
<event>
 4    1  0.2153371E-005  0.6925530E+03  0.7818608E-02  0.9730053E-01
         -2   -1    0    0    0  501 -0.00000000000E+00  0.00000000000E+00  0.18215715087E+03  0.18215715089E+03  0.25500000000E-02 0. -1.
          2   -1    0    0  501    0  0.00000000000E+00 -0.00000000000E+00 -0.65826348837E+03  0.65826348837E+03  0.25500000000E-02 0.  1.
    5000001    1    1    2    0    0 -0.26767789267E+03 -0.10608346748E+03 -0.28746922727E+03  0.44820498985E+03  0.18800000000E+03 0.  0.
   -5000001    1    1    2    0    0  0.26767789267E+03  0.10608346748E+03 -0.18863711022E+03  0.39221564942E+03  0.18800000000E+03 0.  0.
<mgrwt>
<rscale>  0 0.69255296E+03</rscale>
<asrwt>0</asrwt>
<pdfrwt beam="1">  1        2 0.94037640E-01 0.69255296E+03</pdfrwt>
<pdfrwt beam="2">  1       -2 0.26022450E-01 0.69255296E+03</pdfrwt>
<totfact> 0.64920784E+02</totfact>
</mgrwt>
</event>
<event>
 4    1  0.2153371E-005  0.5253444E+03  0.7818608E-02  0.1007367E+00
         -2   -1    0    0    0  501 -0.00000000000E+00  0.00000000000E+00  0.66522427784E+02  0.66522427833E+02  0.25500000000E-02 0. -1.
          2   -1    0    0  501    0  0.00000000000E+00 -0.00000000000E+00 -0.10371941510E+04  0.10371941510E+04  0.25500000000E-02 0.  1.
    5000001    1    1    2    0    0  0.13598700073E+03  0.11260900103E+03 -0.58994959037E+03  0.64386160831E+03  0.18800000000E+03 0.  0.
   -5000001    1    1    2    0    0 -0.13598700073E+03 -0.11260900103E+03 -0.38072213285E+03  0.45985497053E+03  0.18800000000E+03 0.  0.
<mgrwt>
<rscale>  0 0.52534436E+03</rscale>
<asrwt>0</asrwt>
<pdfrwt beam="1">  1        2 0.14817058E+00 0.52534436E+03</pdfrwt>
<pdfrwt beam="2">  1       -2 0.95032046E-02 0.52534436E+03</pdfrwt>
<totfact> 0.19942937E+03</totfact>
</mgrwt>
</event>
<event>
 4    1  0.2153371E-005  0.5618518E+03  0.7818608E-02  0.9987873E-01
          2   -1    0    0  501    0  0.00000000000E+00  0.00000000000E+00  0.14985888257E+04  0.14985888257E+04  0.25500000000E-02 0.  1.
         -2   -1    0    0    0  501 -0.00000000000E+00 -0.00000000000E+00 -0.52662448655E+02  0.52662448716E+02  0.25500000000E-02 0. -1.
    5000001    1    1    2    0    0 -0.14767710187E+03  0.62910207228E+02  0.10914159519E+04  0.11190616608E+04  0.18800000000E+03 0.  0.
   -5000001    1    1    2    0    0  0.14767710187E+03 -0.62910207228E+02  0.35451042513E+03  0.43218961362E+03  0.18800000000E+03 0.  0.
<mgrwt>
<rscale>  0 0.56185179E+03</rscale>
<asrwt>0</asrwt>
<pdfrwt beam="1">  1        2 0.21408410E+00 0.56185179E+03</pdfrwt>
<pdfrwt beam="2">  1       -2 0.75232075E-02 0.56185179E+03</pdfrwt>
<totfact> 0.16127499E+03</totfact>
</mgrwt>
</event>
<event>
 4    1  0.2153371E-005  0.4441705E+03  0.7818608E-02  0.1029475E+00
         -2   -1    0    0    0  501 -0.00000000000E+00  0.00000000000E+00  0.30233245300E+02  0.30233245408E+02  0.25500000000E-02 0. -1.
          2   -1    0    0  501    0  0.00000000000E+00 -0.00000000000E+00 -0.16313779667E+04  0.16313779667E+04  0.25500000000E-02 0.  1.
    5000001    1    1    2    0    0  0.10781036164E+03 -0.46280419363E+02 -0.74598820578E+03  0.77820778360E+03  0.18800000000E+03 0.  0.
   -5000001    1    1    2    0    0 -0.10781036164E+03  0.46280419363E+02 -0.85515651560E+03  0.88340342849E+03  0.18800000000E+03 0.  0.
<mgrwt>
<rscale>  0 0.44417046E+03</rscale>
<asrwt>0</asrwt>
<pdfrwt beam="1">  1        2 0.23305394E+00 0.44417046E+03</pdfrwt>
<pdfrwt beam="2">  1       -2 0.43190361E-02 0.44417046E+03</pdfrwt>
<totfact> 0.32781015E+03</totfact>
</mgrwt>
</event>
<event>
 4    1  0.2153371E-005  0.5252230E+03  0.7818608E-02  0.1007397E+00
          2   -1    0    0  501    0  0.00000000000E+00  0.00000000000E+00  0.41883452448E+03  0.41883452449E+03  0.25500000000E-02 0.  1.
         -2   -1    0    0    0  501 -0.00000000000E+00 -0.00000000000E+00 -0.16465880550E+03  0.16465880552E+03  0.25500000000E-02 0. -1.
    5000001    1    1    2    0    0  0.81977373414E+02 -0.16343944018E+03  0.14232246937E+03  0.29838301836E+03  0.18800000000E+03 0.  0.
   -5000001    1    1    2    0    0 -0.81977373414E+02  0.16343944018E+03  0.11185324961E+03  0.28511031164E+03  0.18800000000E+03 0.  0.
<mgrwt>
<rscale>  0 0.52522297E+03</rscale>
<asrwt>0</asrwt>
<pdfrwt beam="1">  1        2 0.59833504E-01 0.52522297E+03</pdfrwt>
<pdfrwt beam="2">  1       -2 0.23522686E-01 0.52522297E+03</pdfrwt>
<totfact> 0.13122907E+03</totfact>
</mgrwt>
</event>
<event>
 4    1  0.2153371E-005  0.4392797E+03  0.7818608E-02  0.1030968E+00
         -2   -1    0    0    0  501 -0.00000000000E+00  0.00000000000E+00  0.95371999024E+02  0.95371999058E+02  0.25500000000E-02 0. -1.
          2   -1    0    0  501    0  0.00000000000E+00 -0.00000000000E+00 -0.50582634478E+03  0.50582634479E+03  0.25500000000E-02 0.  1.
    5000001    1    1    2    0    0  0.66776297048E+02 -0.60375752277E+02 -0.11047332924E+03  0.23590816387E+03  0.18800000000E+03 0.  0.
   -5000001    1    1    2    0    0 -0.66776297048E+02  0.60375752277E+02 -0.29998101652E+03  0.36529017997E+03  0.18800000000E+03 0.  0.
<mgrwt>
<rscale>  0 0.43927973E+03</rscale>
<asrwt>0</asrwt>
<pdfrwt beam="1">  1        2 0.72260905E-01 0.43927973E+03</pdfrwt>
<pdfrwt beam="2">  1       -2 0.13624572E-01 0.43927973E+03</pdfrwt>
<totfact> 0.27022113E+03</totfact>
</mgrwt>
</event>
<event>
 4    1  0.2153371E-005  0.7199458E+03  0.7818608E-02  0.9683717E-01
          2   -1    0    0  501    0  0.00000000000E+00  0.00000000000E+00  0.16856206411E+04  0.16856206411E+04  0.25500000000E-02 0.  1.
         -2   -1    0    0    0  501 -0.00000000000E+00 -0.00000000000E+00 -0.76874051722E+02  0.76874051764E+02  0.25500000000E-02 0. -1.
    5000001    1    1    2    0    0 -0.30272076919E+03 -0.67849768985E+01  0.68073636714E+03  0.76839566732E+03  0.18800000000E+03 0.  0.
   -5000001    1    1    2    0    0  0.30272076919E+03  0.67849768985E+01  0.92801022220E+03  0.99409902551E+03  0.18800000000E+03 0.  0.
<mgrwt>
<rscale>  0 0.71994580E+03</rscale>
<asrwt>0</asrwt>
<pdfrwt beam="1">  1        2 0.24080298E+00 0.71994580E+03</pdfrwt>
<pdfrwt beam="2">  1       -2 0.10982006E-01 0.71994580E+03</pdfrwt>
<totfact> 0.69736254E+02</totfact>
</mgrwt>
</event>
<event>
 4    1  0.2153371E-005  0.6283750E+03  0.7818608E-02  0.9848225E-01
          2   -1    0    0  501    0  0.00000000000E+00  0.00000000000E+00  0.29842645370E+03  0.29842645371E+03  0.25500000000E-02 0.  1.
         -2   -1    0    0    0  501 -0.00000000000E+00 -0.00000000000E+00 -0.33078091560E+03  0.33078091561E+03  0.25500000000E-02 0. -1.
    5000001    1    1    2    0    0  0.10911474366E+03  0.21696944136E+03  0.50152573834E+02  0.31119294085E+03  0.18800000000E+03 0.  0.
   -5000001    1    1    2    0    0 -0.10911474366E+03 -0.21696944136E+03 -0.82507035737E+02  0.31801442847E+03  0.18800000000E+03 0.  0.
<mgrwt>
<rscale>  0 0.62837497E+03</rscale>
<asrwt>0</asrwt>
<pdfrwt beam="1">  1        2 0.42632351E-01 0.62837497E+03</pdfrwt>
<pdfrwt beam="2">  1       -2 0.47254416E-01 0.62837497E+03</pdfrwt>
<totfact> 0.51305962E+02</totfact>
</mgrwt>
</event>
<event>
 4    1  0.2153371E-005  0.1208760E+04  0.7818608E-02  0.9105224E-01
          2   -1    0    0  501    0  0.00000000000E+00  0.00000000000E+00  0.27000103306E+04  0.27000103306E+04  0.25500000000E-02 0.  1.
         -2   -1    0    0    0  501 -0.00000000000E+00 -0.00000000000E+00 -0.13528649932E+03  0.13528649934E+03  0.25500000000E-02 0. -1.
    5000001    1    1    2    0    0 -0.33709758568E+03 -0.77948353046E+02  0.20689802072E+03  0.44481627554E+03  0.18800000000E+03 0.  0.
   -5000001    1    1    2    0    0  0.33709758568E+03  0.77948353046E+02  0.23578258105E+04  0.23904805544E+04  0.18800000000E+03 0.  0.
<mgrwt>
<rscale>  0 0.12087596E+04</rscale>
<asrwt>0</asrwt>
<pdfrwt beam="1">  1        2 0.38571574E+00 0.12087596E+04</pdfrwt>
<pdfrwt beam="2">  1       -2 0.19326644E-01 0.12087596E+04</pdfrwt>
<totfact> 0.77726581E+01</totfact>
</mgrwt>
</event>
<event>
 4    1  0.2153371E-005  0.7171503E+03  0.7818608E-02  0.9688344E-01
         -2   -1    0    0    0  501 -0.00000000000E+00  0.00000000000E+00  0.21580082669E+03  0.21580082671E+03  0.25500000000E-02 0. -1.
          2   -1    0    0  501    0  0.00000000000E+00 -0.00000000000E+00 -0.59580931569E+03  0.59580931570E+03  0.25500000000E-02 0.  1.
    5000001    1    1    2    0    0  0.27913632190E+03 -0.29768076758E+02 -0.54062086357E+02  0.34215483890E+03  0.18800000000E+03 0.  0.
   -5000001    1    1    2    0    0 -0.27913632190E+03  0.29768076758E+02 -0.32594640264E+03  0.46945530351E+03  0.18800000000E+03 0.  0.
<mgrwt>
<rscale>  0 0.71715031E+03</rscale>
<asrwt>0</asrwt>
<pdfrwt beam="1">  1        2 0.85115615E-01 0.71715031E+03</pdfrwt>
<pdfrwt beam="2">  1       -2 0.30828690E-01 0.71715031E+03</pdfrwt>
<totfact> 0.53541497E+02</totfact>
</mgrwt>
</event>
<event>
 4    1  0.2153371E-005  0.5670634E+03  0.7818608E-02  0.9976198E-01
          2   -1    0    0  501    0  0.00000000000E+00  0.00000000000E+00  0.20353315994E+03  0.20353315996E+03  0.25500000000E-02 0.  1.
         -2   -1    0    0    0  501 -0.00000000000E+00 -0.00000000000E+00 -0.39497360819E+03  0.39497360820E+03  0.25500000000E-02 0. -1.
    5000001    1    1    2    0    0  0.16817784434E+03  0.45114085409E+02 -0.22380482670E+03  0.34022296878E+03  0.18800000000E+03 0.  0.
   -5000001    1    1    2    0    0 -0.16817784434E+03 -0.45114085409E+02  0.32364378448E+02  0.25828379938E+03  0.18800000000E+03 0.  0.
<mgrwt>
<rscale>  0 0.56706341E+03</rscale>
<asrwt>0</asrwt>
<pdfrwt beam="1">  1        2 0.29076166E-01 0.56706341E+03</pdfrwt>
<pdfrwt beam="2">  1       -2 0.56424801E-01 0.56706341E+03</pdfrwt>
<totfact> 0.54765607E+02</totfact>
</mgrwt>
</event>
<event>
 4    1  0.2153371E-005  0.1095293E+04  0.7818608E-02  0.9209792E-01
          2   -1    0    0  501    0  0.00000000000E+00  0.00000000000E+00  0.18998681209E+04  0.18998681209E+04  0.25500000000E-02 0.  1.
         -2   -1    0    0    0  501 -0.00000000000E+00 -0.00000000000E+00 -0.15786182952E+03  0.15786182954E+03  0.25500000000E-02 0. -1.
    5000001    1    1    2    0    0 -0.46350303195E+03 -0.11188263560E+03  0.50855529311E+03  0.72202858041E+03  0.18800000000E+03 0.  0.
   -5000001    1    1    2    0    0  0.46350303195E+03  0.11188263560E+03  0.12334509982E+04  0.13357013700E+04  0.18800000000E+03 0.  0.
<mgrwt>
<rscale>  0 0.10952929E+04</rscale>
<asrwt>0</asrwt>
<pdfrwt beam="1">  1        2 0.27140974E+00 0.10952929E+04</pdfrwt>
<pdfrwt beam="2">  1       -2 0.22551689E-01 0.10952929E+04</pdfrwt>
<totfact> 0.15502657E+02</totfact>
</mgrwt>
</event>
<event>
 4    1  0.2153371E-005  0.4992287E+03  0.7818608E-02  0.1013980E+00
         -2   -1    0    0    0  501 -0.00000000000E+00  0.00000000000E+00  0.78806738871E+02  0.78806738913E+02  0.25500000000E-02 0. -1.
          2   -1    0    0  501    0  0.00000000000E+00 -0.00000000000E+00 -0.79063449879E+03  0.79063449879E+03  0.25500000000E-02 0.  1.
    5000001    1    1    2    0    0 -0.14761803332E+03 -0.65931049362E+02 -0.40594693137E+03  0.47568361136E+03  0.18800000000E+03 0.  0.
   -5000001    1    1    2    0    0  0.14761803332E+03  0.65931049362E+02 -0.30588082855E+03  0.39375762634E+03  0.18800000000E+03 0.  0.
<mgrwt>
<rscale>  0 0.49922871E+03</rscale>
<asrwt>0</asrwt>
<pdfrwt beam="1">  1        2 0.11294778E+00 0.49922871E+03</pdfrwt>
<pdfrwt beam="2">  1       -2 0.11258106E-01 0.49922871E+03</pdfrwt>
<totfact> 0.21786527E+03</totfact>
</mgrwt>
</event>
<event>
 4    1  0.2153371E-005  0.4134632E+03  0.7818608E-02  0.1039215E+00
          2   -1    0    0  501    0  0.00000000000E+00  0.00000000000E+00  0.72719045893E+03  0.72719045893E+03  0.25500000000E-02 0.  1.
         -2   -1    0    0    0  501 -0.00000000000E+00 -0.00000000000E+00 -0.58771343353E+02  0.58771343408E+02  0.25500000000E-02 0. -1.
    5000001    1    1    2    0    0  0.85012366421E+02 -0.11247682310E+02  0.34628414084E+03  0.40324969807E+03  0.18800000000E+03 0.  0.
   -5000001    1    1    2    0    0 -0.85012366421E+02  0.11247682310E+02  0.32213497474E+03  0.38271210426E+03  0.18800000000E+03 0.  0.
<mgrwt>
<rscale>  0 0.41346323E+03</rscale>
<asrwt>0</asrwt>
<pdfrwt beam="1">  1        2 0.10388435E+00 0.41346323E+03</pdfrwt>
<pdfrwt beam="2">  1       -2 0.83959066E-02 0.41346323E+03</pdfrwt>
<totfact> 0.38668280E+03</totfact>
</mgrwt>
</event>
<event>
 4    1  0.2153371E-005  0.5207241E+03  0.7818608E-02  0.1008507E+00
         -2   -1    0    0    0  501 -0.00000000000E+00  0.00000000000E+00  0.45415073652E+02  0.45415073724E+02  0.25500000000E-02 0. -1.
          2   -1    0    0  501    0  0.00000000000E+00 -0.00000000000E+00 -0.14926409624E+04  0.14926409624E+04  0.25500000000E-02 0.  1.
    5000001    1    1    2    0    0  0.11897905977E+03 -0.13491119932E+03 -0.69600727729E+03  0.74305260810E+03  0.18800000000E+03 0.  0.
   -5000001    1    1    2    0    0 -0.11897905977E+03  0.13491119932E+03 -0.75121861141E+03  0.79500342797E+03  0.18800000000E+03 0.  0.
<mgrwt>
<rscale>  0 0.52072411E+03</rscale>
<asrwt>0</asrwt>
<pdfrwt beam="1">  1        2 0.21323439E+00 0.52072411E+03</pdfrwt>
<pdfrwt beam="2">  1       -2 0.64878686E-02 0.52072411E+03</pdfrwt>
<totfact> 0.20536241E+03</totfact>
</mgrwt>
</event>
<event>
 4    1  0.2153371E-005  0.1279678E+04  0.7818608E-02  0.9045838E-01
         -2   -1    0    0    0  501 -0.00000000000E+00  0.00000000000E+00  0.78545537558E+03  0.78545537558E+03  0.25500000000E-02 0. -1.
          2   -1    0    0  501    0  0.00000000000E+00 -0.00000000000E+00 -0.52121868140E+03  0.52121868141E+03  0.25500000000E-02 0.  1.
    5000001    1    1    2    0    0 -0.48661640118E+03  0.33354880577E+03  0.29676412248E+03  0.68663183156E+03  0.18800000000E+03 0.  0.
   -5000001    1    1    2    0    0  0.48661640118E+03 -0.33354880577E+03 -0.32527428300E+02  0.62004222543E+03  0.18800000000E+03 0.  0.
<mgrwt>
<rscale>  0 0.12796781E+04</rscale>
<asrwt>0</asrwt>
<pdfrwt beam="1">  1        2 0.74459812E-01 0.12796781E+04</pdfrwt>
<pdfrwt beam="2">  1       -2 0.11220791E+00 0.12796781E+04</pdfrwt>
<totfact> 0.39377406E+01</totfact>
</mgrwt>
</event>
<event>
 4    1  0.2153371E-005  0.9839822E+03  0.7818608E-02  0.9326289E-01
          2   -1    0    0  501    0  0.00000000000E+00  0.00000000000E+00  0.14887703190E+04  0.14887703190E+04  0.25500000000E-02 0.  1.
         -2   -1    0    0    0  501 -0.00000000000E+00 -0.00000000000E+00 -0.16258736814E+03  0.16258736816E+03  0.25500000000E-02 0. -1.
    5000001    1    1    2    0    0 -0.81853523252E+02 -0.43643909487E+03  0.49924025353E+03  0.69409215061E+03  0.18800000000E+03 0.  0.
   -5000001    1    1    2    0    0  0.81853523252E+02  0.43643909487E+03  0.82694269734E+03  0.95726553656E+03  0.18800000000E+03 0.  0.
<mgrwt>
<rscale>  0 0.98398221E+03</rscale>
<asrwt>0</asrwt>
<pdfrwt beam="1">  1        2 0.21268146E+00 0.98398221E+03</pdfrwt>
<pdfrwt beam="2">  1       -2 0.23226768E-01 0.98398221E+03</pdfrwt>
<totfact> 0.24203590E+02</totfact>
</mgrwt>
</event>
<event>
 4    1  0.2153371E-005  0.6995140E+03  0.7818608E-02  0.9718064E-01
          2   -1    0    0  501    0  0.00000000000E+00  0.00000000000E+00  0.29128783569E+04  0.29128783569E+04  0.25500000000E-02 0.  1.
         -2   -1    0    0    0  501 -0.00000000000E+00 -0.00000000000E+00 -0.41996250810E+02  0.41996250888E+02  0.25500000000E-02 0. -1.
    5000001    1    1    2    0    0 -0.15729366362E+03  0.17732349516E+03  0.21767946478E+04  0.21977178748E+04  0.18800000000E+03 0.  0.
   -5000001    1    1    2    0    0  0.15729366362E+03 -0.17732349516E+03  0.69408745835E+03  0.75715673304E+03  0.18800000000E+03 0.  0.
<mgrwt>
<rscale>  0 0.69951403E+03</rscale>
<asrwt>0</asrwt>
<pdfrwt beam="1">  1        2 0.41612540E+00 0.69951403E+03</pdfrwt>
<pdfrwt beam="2">  1       -2 0.59994656E-02 0.69951403E+03</pdfrwt>
<totfact> 0.43002690E+02</totfact>
</mgrwt>
</event>
<event>
 4    1  0.2153371E-005  0.9186512E+03  0.7818608E-02  0.9402562E-01
         -2   -1    0    0    0  501 -0.00000000000E+00  0.00000000000E+00  0.26718230234E+03  0.26718230236E+03  0.25500000000E-02 0. -1.
          2   -1    0    0  501    0  0.00000000000E+00 -0.00000000000E+00 -0.78964809565E+03  0.78964809566E+03  0.25500000000E-02 0.  1.
    5000001    1    1    2    0    0 -0.54653379884E+02 -0.38862893477E+03 -0.92092281546E+02  0.44479706518E+03  0.18800000000E+03 0.  0.
   -5000001    1    1    2    0    0  0.54653379884E+02  0.38862893477E+03 -0.43037351176E+03  0.61203333283E+03  0.18800000000E+03 0.  0.
<mgrwt>
<rscale>  0 0.91865118E+03</rscale>
<asrwt>0</asrwt>
<pdfrwt beam="1">  1        2 0.11280687E+00 0.91865118E+03</pdfrwt>
<pdfrwt beam="2">  1       -2 0.38168901E-01 0.91865118E+03</pdfrwt>
<totfact> 0.25058502E+02</totfact>
</mgrwt>
</event>
<event>
 4    1  0.2153371E-005  0.6103556E+03  0.7818608E-02  0.9884151E-01
         -2   -1    0    0    0  501 -0.00000000000E+00  0.00000000000E+00  0.23660469600E+03  0.23660469602E+03  0.25500000000E-02 0. -1.
          2   -1    0    0  501    0  0.00000000000E+00 -0.00000000000E+00 -0.39362483051E+03  0.39362483052E+03  0.25500000000E-02 0.  1.
    5000001    1    1    2    0    0  0.75768303455E+02  0.13179591969E+03 -0.27079527397E+03  0.36302214899E+03  0.18800000000E+03 0.  0.
   -5000001    1    1    2    0    0 -0.75768303455E+02 -0.13179591969E+03  0.11377513946E+03  0.26720737754E+03  0.18800000000E+03 0.  0.
<mgrwt>
<rscale>  0 0.61035558E+03</rscale>
<asrwt>0</asrwt>
<pdfrwt beam="1">  1        2 0.56232119E-01 0.61035558E+03</pdfrwt>
<pdfrwt beam="2">  1       -2 0.33800671E-01 0.61035558E+03</pdfrwt>
<totfact> 0.72435454E+02</totfact>
</mgrwt>
</event>
<event>
 4    1  0.2153371E-005  0.4346261E+03  0.7818608E-02  0.1032408E+00
          2   -1    0    0  501    0  0.00000000000E+00  0.00000000000E+00  0.35807635470E+04  0.35807635470E+04  0.25500000000E-02 0.  1.
         -2   -1    0    0    0  501 -0.00000000000E+00 -0.00000000000E+00 -0.13188518199E+02  0.13188518446E+02  0.25500000000E-02 0. -1.
    5000001    1    1    2    0    0  0.64099455375E+02 -0.48479091366E+02  0.23926740114E+04  0.24013937385E+04  0.18800000000E+03 0.  0.
   -5000001    1    1    2    0    0 -0.64099455375E+02  0.48479091366E+02  0.11749010174E+04  0.11925583269E+04  0.18800000000E+03 0.  0.
<mgrwt>
<rscale>  0 0.43462612E+03</rscale>
<asrwt>0</asrwt>
<pdfrwt beam="1">  1        2 0.51153825E+00 0.43462612E+03</pdfrwt>
<pdfrwt beam="2">  1       -2 0.18840718E-02 0.43462612E+03</pdfrwt>
<totfact> 0.10838222E+03</totfact>
</mgrwt>
</event>
<event>
 4    1  0.2153371E-005  0.8879852E+03  0.7818608E-02  0.9440726E-01
          2   -1    0    0  501    0  0.00000000000E+00  0.00000000000E+00  0.34267033939E+03  0.34267033940E+03  0.25500000000E-02 0.  1.
         -2   -1    0    0    0  501 -0.00000000000E+00 -0.00000000000E+00 -0.57527430180E+03  0.57527430181E+03  0.25500000000E-02 0. -1.
    5000001    1    1    2    0    0  0.39097366050E+03 -0.82517361965E+02 -0.68750879892E+02  0.44692303780E+03  0.18800000000E+03 0.  0.
   -5000001    1    1    2    0    0 -0.39097366050E+03  0.82517361965E+02 -0.16385308252E+03  0.47102160341E+03  0.18800000000E+03 0.  0.
<mgrwt>
<rscale>  0 0.88798523E+03</rscale>
<asrwt>0</asrwt>
<pdfrwt beam="1">  1        2 0.48952906E-01 0.88798523E+03</pdfrwt>
<pdfrwt beam="2">  1       -2 0.82182043E-01 0.88798523E+03</pdfrwt>
<totfact> 0.13433859E+02</totfact>
</mgrwt>
</event>
<event>
 4    1  0.2153371E-005  0.5571630E+03  0.7818608E-02  0.9998494E-01
          2   -1    0    0  501    0  0.00000000000E+00  0.00000000000E+00  0.87572916317E+03  0.87572916318E+03  0.25500000000E-02 0.  1.
         -2   -1    0    0    0  501 -0.00000000000E+00 -0.00000000000E+00 -0.88620613680E+02  0.88620613717E+02  0.25500000000E-02 0. -1.
    5000001    1    1    2    0    0 -0.55548474654E+02  0.16294898509E+03  0.19907237077E+03  0.32343749563E+03  0.18800000000E+03 0.  0.
   -5000001    1    1    2    0    0  0.55548474654E+02 -0.16294898509E+03  0.58803617873E+03  0.64091228126E+03  0.18800000000E+03 0.  0.
<mgrwt>
<rscale>  0 0.55716301E+03</rscale>
<asrwt>0</asrwt>
<pdfrwt beam="1">  1        2 0.12510417E+00 0.55716301E+03</pdfrwt>
<pdfrwt beam="2">  1       -2 0.12660087E-01 0.55716301E+03</pdfrwt>
<totfact> 0.15745460E+03</totfact>
</mgrwt>
</event>
<event>
 4    1  0.2153371E-005  0.4569650E+03  0.7818608E-02  0.1025665E+00
         -2   -1    0    0    0  501 -0.00000000000E+00  0.00000000000E+00  0.41941960174E+02  0.41941960251E+02  0.25500000000E-02 0. -1.
          2   -1    0    0  501    0  0.00000000000E+00 -0.00000000000E+00 -0.12446785430E+04  0.12446785430E+04  0.25500000000E-02 0.  1.
    5000001    1    1    2    0    0 -0.12805375327E+03  0.21502872486E+02 -0.60039018994E+03  0.64239591953E+03  0.18800000000E+03 0.  0.
   -5000001    1    1    2    0    0  0.12805375327E+03 -0.21502872486E+02 -0.60234639288E+03  0.64422458372E+03  0.18800000000E+03 0.  0.
<mgrwt>
<rscale>  0 0.45696502E+03</rscale>
<asrwt>0</asrwt>
<pdfrwt beam="1">  1        2 0.17781120E+00 0.45696502E+03</pdfrwt>
<pdfrwt beam="2">  1       -2 0.59917094E-02 0.45696502E+03</pdfrwt>
<totfact> 0.31519621E+03</totfact>
</mgrwt>
</event>
<event>
 4    1  0.2153371E-005  0.5858190E+03  0.7818608E-02  0.9935272E-01
         -2   -1    0    0    0  501 -0.00000000000E+00  0.00000000000E+00  0.23998512638E+03  0.23998512639E+03  0.25500000000E-02 0. -1.
          2   -1    0    0  501    0  0.00000000000E+00 -0.00000000000E+00 -0.35750542460E+03  0.35750542461E+03  0.25500000000E-02 0.  1.
    5000001    1    1    2    0    0  0.14854001418E+03  0.76008037759E+02  0.94604006060E+02  0.26858011017E+03  0.18800000000E+03 0.  0.
   -5000001    1    1    2    0    0 -0.14854001418E+03 -0.76008037759E+02 -0.21212430429E+03  0.32891044083E+03  0.18800000000E+03 0.  0.
<mgrwt>
<rscale>  0 0.58581903E+03</rscale>
<asrwt>0</asrwt>
<pdfrwt beam="1">  1        2 0.51072204E-01 0.58581903E+03</pdfrwt>
<pdfrwt beam="2">  1       -2 0.34283589E-01 0.58581903E+03</pdfrwt>
<totfact> 0.78488219E+02</totfact>
</mgrwt>
</event>
<event>
 4    1  0.2153371E-005  0.4153640E+03  0.7818608E-02  0.1038586E+00
         -2   -1    0    0    0  501 -0.00000000000E+00  0.00000000000E+00  0.23085662859E+03  0.23085662860E+03  0.25500000000E-02 0. -1.
          2   -1    0    0  501    0  0.00000000000E+00 -0.00000000000E+00 -0.18683379920E+03  0.18683379922E+03  0.25500000000E-02 0.  1.
    5000001    1    1    2    0    0  0.22370393171E+02  0.78593215119E+02  0.55522118646E+02  0.21237710237E+03  0.18800000000E+03 0.  0.
   -5000001    1    1    2    0    0 -0.22370393171E+02 -0.78593215119E+02 -0.11499289259E+02  0.20531332545E+03  0.18800000000E+03 0.  0.
<mgrwt>
<rscale>  0 0.41536404E+03</rscale>
<asrwt>0</asrwt>
<pdfrwt beam="1">  1        2 0.26690543E-01 0.41536404E+03</pdfrwt>
<pdfrwt beam="2">  1       -2 0.32979518E-01 0.41536404E+03</pdfrwt>
<totfact> 0.17296143E+03</totfact>
</mgrwt>
</event>
<event>
 4    1  0.2153371E-005  0.6951113E+03  0.7818608E-02  0.9725629E-01
          2   -1    0    0  501    0  0.00000000000E+00  0.00000000000E+00  0.10202628325E+03  0.10202628329E+03  0.25500000000E-02 0.  1.
         -2   -1    0    0    0  501 -0.00000000000E+00 -0.00000000000E+00 -0.11839587778E+04  0.11839587778E+04  0.25500000000E-02 0. -1.
    5000001    1    1    2    0    0  0.14707298285E+03  0.25030322866E+03 -0.60421347635E+03  0.69620406029E+03  0.18800000000E+03 0.  0.
   -5000001    1    1    2    0    0 -0.14707298285E+03 -0.25030322866E+03 -0.47771901820E+03  0.58978100081E+03  0.18800000000E+03 0.  0.
<mgrwt>
<rscale>  0 0.69511125E+03</rscale>
<asrwt>0</asrwt>
<pdfrwt beam="1">  1        2 0.14575184E-01 0.69511125E+03</pdfrwt>
<pdfrwt beam="2">  1       -2 0.16913696E+00 0.69511125E+03</pdfrwt>
<totfact> 0.91193178E+01</totfact>
</mgrwt>
</event>
<event>
 4    1  0.2153371E-005  0.7291140E+03  0.7818608E-02  0.9668699E-01
          2   -1    0    0  501    0  0.00000000000E+00  0.00000000000E+00  0.12549740834E+04  0.12549740834E+04  0.25500000000E-02 0.  1.
         -2   -1    0    0    0  501 -0.00000000000E+00 -0.00000000000E+00 -0.10590002641E+03  0.10590002644E+03  0.25500000000E-02 0. -1.
    5000001    1    1    2    0    0 -0.20707851473E+03 -0.21154967701E+03  0.76046481129E+03  0.83742791112E+03  0.18800000000E+03 0.  0.
   -5000001    1    1    2    0    0  0.20707851473E+03  0.21154967701E+03  0.38860924567E+03  0.52344619869E+03  0.18800000000E+03 0.  0.
<mgrwt>
<rscale>  0 0.72911395E+03</rscale>
<asrwt>0</asrwt>
<pdfrwt beam="1">  1        2 0.17928202E+00 0.72911395E+03</pdfrwt>
<pdfrwt beam="2">  1       -2 0.15128575E-01 0.72911395E+03</pdfrwt>
<totfact> 0.69141668E+02</totfact>
</mgrwt>
</event>
<event>
 4    1  0.2153371E-005  0.4732628E+03  0.7818608E-02  0.1021003E+00
         -2   -1    0    0    0  501 -0.00000000000E+00  0.00000000000E+00  0.35190601911E+02  0.35190602004E+02  0.25500000000E-02 0. -1.
          2   -1    0    0  501    0  0.00000000000E+00 -0.00000000000E+00 -0.15911756286E+04  0.15911756286E+04  0.25500000000E-02 0.  1.
    5000001    1    1    2    0    0  0.98397906304E+02  0.39093798591E+02 -0.11118805903E+04  0.11326221436E+04  0.18800000000E+03 0.  0.
   -5000001    1    1    2    0    0 -0.98397906304E+02 -0.39093798591E+02 -0.44410443645E+03  0.49374408708E+03  0.18800000000E+03 0.  0.
<mgrwt>
<rscale>  0 0.47326284E+03</rscale>
<asrwt>0</asrwt>
<pdfrwt beam="1">  1        2 0.22731076E+00 0.47326284E+03</pdfrwt>
<pdfrwt beam="2">  1       -2 0.50272298E-02 0.47326284E+03</pdfrwt>
<totfact> 0.27198059E+03</totfact>
</mgrwt>
</event>
<event>
 4    1  0.2153371E-005  0.4642605E+03  0.7818608E-02  0.1023553E+00
          2   -1    0    0  501    0  0.00000000000E+00  0.00000000000E+00  0.91366477525E+03  0.91366477525E+03  0.25500000000E-02 0.  1.
         -2   -1    0    0    0  501 -0.00000000000E+00 -0.00000000000E+00 -0.58976172648E+02  0.58976172703E+02  0.25500000000E-02 0. -1.
    5000001    1    1    2    0    0 -0.10427055992E+03  0.35869678987E+02  0.59470408995E+03  0.63338451050E+03  0.18800000000E+03 0.  0.
   -5000001    1    1    2    0    0  0.10427055992E+03 -0.35869678987E+02  0.25998451265E+03  0.33925643746E+03  0.18800000000E+03 0.  0.
<mgrwt>
<rscale>  0 0.46426049E+03</rscale>
<asrwt>0</asrwt>
<pdfrwt beam="1">  1        2 0.13052353E+00 0.46426049E+03</pdfrwt>
<pdfrwt beam="2">  1       -2 0.84251679E-02 0.46426049E+03</pdfrwt>
<totfact> 0.28788067E+03</totfact>
</mgrwt>
</event>
<event>
 4    1  0.2153371E-005  0.6690532E+03  0.7818608E-02  0.9771670E-01
         -2   -1    0    0    0  501 -0.00000000000E+00  0.00000000000E+00  0.47675285477E+02  0.47675285545E+02  0.25500000000E-02 0. -1.
          2   -1    0    0  501    0  0.00000000000E+00 -0.00000000000E+00 -0.23472971646E+04  0.23472971646E+04  0.25500000000E-02 0.  1.
    5000001    1    1    2    0    0 -0.69783785433E+02 -0.24944589924E+03 -0.14981790754E+04  0.15319848483E+04  0.18800000000E+03 0.  0.
   -5000001    1    1    2    0    0  0.69783785433E+02  0.24944589924E+03 -0.80144280373E+03  0.86298760188E+03  0.18800000000E+03 0.  0.
<mgrwt>
<rscale>  0 0.66905325E+03</rscale>
<asrwt>0</asrwt>
<pdfrwt beam="1">  1        2 0.33532809E+00 0.66905325E+03</pdfrwt>
<pdfrwt beam="2">  1       -2 0.68107565E-02 0.66905325E+03</pdfrwt>
<totfact> 0.69714207E+02</totfact>
</mgrwt>
</event>
<event>
 4    1  0.2153371E-005  0.1248907E+04  0.7818608E-02  0.9071093E-01
          2   -1    0    0  501    0  0.00000000000E+00  0.00000000000E+00  0.19227047720E+04  0.19227047720E+04  0.25500000000E-02 0.  1.
         -2   -1    0    0    0  501 -0.00000000000E+00 -0.00000000000E+00 -0.20280924433E+03  0.20280924435E+03  0.25500000000E-02 0. -1.
    5000001    1    1    2    0    0  0.52361845862E+02 -0.55814202415E+03  0.51814973327E+03  0.78618536498E+03  0.18800000000E+03 0.  0.
   -5000001    1    1    2    0    0 -0.52361845862E+02  0.55814202415E+03  0.12017457944E+04  0.13393286514E+04  0.18800000000E+03 0.  0.
<mgrwt>
<rscale>  0 0.12489072E+04</rscale>
<asrwt>0</asrwt>
<pdfrwt beam="1">  1        2 0.27467212E+00 0.12489072E+04</pdfrwt>
<pdfrwt beam="2">  1       -2 0.28972748E-01 0.12489072E+04</pdfrwt>
<totfact> 0.94671038E+01</totfact>
</mgrwt>
</event>
<event>
 4    1  0.2153371E-005  0.5379936E+03  0.7818608E-02  0.1004312E+00
         -2   -1    0    0    0  501 -0.00000000000E+00  0.00000000000E+00  0.46717231205E+02  0.46717231274E+02  0.25500000000E-02 0. -1.
          2   -1    0    0  501    0  0.00000000000E+00 -0.00000000000E+00 -0.15488778222E+04  0.15488778222E+04  0.25500000000E-02 0.  1.
    5000001    1    1    2    0    0 -0.10724699481E+03  0.15264837147E+03 -0.61159692648E+03  0.66648199052E+03  0.18800000000E+03 0.  0.
   -5000001    1    1    2    0    0  0.10724699481E+03 -0.15264837147E+03 -0.89056366454E+03  0.92911306299E+03  0.18800000000E+03 0.  0.
<mgrwt>
<rscale>  0 0.53799362E+03</rscale>
<asrwt>0</asrwt>
<pdfrwt beam="1">  1        2 0.22126823E+00 0.53799362E+03</pdfrwt>
<pdfrwt beam="2">  1       -2 0.66738911E-02 0.53799362E+03</pdfrwt>
<totfact> 0.18363790E+03</totfact>
</mgrwt>
</event>
<event>
 4    1  0.2153371E-005  0.8093547E+03  0.7818608E-02  0.9546574E-01
          2   -1    0    0  501    0  0.00000000000E+00  0.00000000000E+00  0.47283397050E+04  0.47283397050E+04  0.25500000000E-02 0.  1.
         -2   -1    0    0    0  501 -0.00000000000E+00 -0.00000000000E+00 -0.34634519766E+02  0.34634519860E+02  0.25500000000E-02 0. -1.
    5000001    1    1    2    0    0 -0.32969276444E+03  0.13869924365E+03  0.24764509435E+04  0.25092006845E+04  0.18800000000E+03 0.  0.
   -5000001    1    1    2    0    0  0.32969276444E+03 -0.13869924365E+03  0.22172542417E+04  0.22537735404E+04  0.18800000000E+03 0.  0.
<mgrwt>
<rscale>  0 0.80935474E+03</rscale>
<asrwt>0</asrwt>
<pdfrwt beam="1">  1        2 0.67547699E+00 0.80935474E+03</pdfrwt>
<pdfrwt beam="2">  1       -2 0.49477894E-02 0.80935474E+03</pdfrwt>
<totfact> 0.36611672E+01</totfact>
</mgrwt>
</event>
<event>
 4    1  0.2153371E-005  0.4429254E+03  0.7818608E-02  0.1029853E+00
          2   -1    0    0  501    0  0.00000000000E+00  0.00000000000E+00  0.57118104426E+03  0.57118104427E+03  0.25500000000E-02 0.  1.
         -2   -1    0    0    0  501 -0.00000000000E+00 -0.00000000000E+00 -0.85867226034E+02  0.85867226072E+02  0.25500000000E-02 0. -1.
    5000001    1    1    2    0    0  0.75684724715E+02 -0.79682634699E+02  0.18287211953E+03  0.28436545488E+03  0.18800000000E+03 0.  0.
   -5000001    1    1    2    0    0 -0.75684724715E+02  0.79682634699E+02  0.30244169870E+03  0.37268281546E+03  0.18800000000E+03 0.  0.
<mgrwt>
<rscale>  0 0.44292542E+03</rscale>
<asrwt>0</asrwt>
<pdfrwt beam="1">  1        2 0.81597292E-01 0.44292542E+03</pdfrwt>
<pdfrwt beam="2">  1       -2 0.12266747E-01 0.44292542E+03</pdfrwt>
<totfact> 0.27969290E+03</totfact>
</mgrwt>
</event>
<event>
 4    1  0.2153371E-005  0.5351325E+03  0.7818608E-02  0.1004995E+00
         -2   -1    0    0    0  501 -0.00000000000E+00  0.00000000000E+00  0.13200630728E+04  0.13200630728E+04  0.25500000000E-02 0. -1.
          2   -1    0    0  501    0  0.00000000000E+00 -0.00000000000E+00 -0.54233536392E+02  0.54233536452E+02  0.25500000000E-02 0.  1.
    5000001    1    1    2    0    0 -0.11325896799E+03 -0.87725863489E+02  0.31087879203E+03  0.39052918494E+03  0.18800000000E+03 0.  0.
   -5000001    1    1    2    0    0  0.11325896799E+03  0.87725863489E+02  0.95495074437E+03  0.98376742430E+03  0.18800000000E+03 0.  0.
<mgrwt>
<rscale>  0 0.53513246E+03</rscale>
<asrwt>0</asrwt>
<pdfrwt beam="1">  1        2 0.77476472E-02 0.53513246E+03</pdfrwt>
<pdfrwt beam="2">  1       -2 0.18858046E+00 0.53513246E+03</pdfrwt>
<totfact> 0.15001130E+02</totfact>
</mgrwt>
</event>
<event>
 4    1  0.2153371E-005  0.4809264E+03  0.7818608E-02  0.1018881E+00
          2   -1    0    0  501    0  0.00000000000E+00  0.00000000000E+00  0.10217780840E+04  0.10217780840E+04  0.25500000000E-02 0.  1.
         -2   -1    0    0    0  501 -0.00000000000E+00 -0.00000000000E+00 -0.56590117215E+02  0.56590117272E+02  0.25500000000E-02 0. -1.
    5000001    1    1    2    0    0 -0.36121428350E+02 -0.11480034881E+03  0.28210588620E+03  0.35973825026E+03  0.18800000000E+03 0.  0.
   -5000001    1    1    2    0    0  0.36121428350E+02  0.11480034881E+03  0.68308208055E+03  0.71862995098E+03  0.18800000000E+03 0.  0.
<mgrwt>
<rscale>  0 0.48092636E+03</rscale>
<asrwt>0</asrwt>
<pdfrwt beam="1">  1        2 0.14596829E+00 0.48092636E+03</pdfrwt>
<pdfrwt beam="2">  1       -2 0.80843028E-02 0.48092636E+03</pdfrwt>
<totfact> 0.26380077E+03</totfact>
</mgrwt>
</event>
<event>
 4    1  0.2153371E-005  0.6072213E+03  0.7818608E-02  0.9890536E-01
          2   -1    0    0  501    0  0.00000000000E+00  0.00000000000E+00  0.22844542885E+03  0.22844542887E+03  0.25500000000E-02 0.  1.
         -2   -1    0    0    0  501 -0.00000000000E+00 -0.00000000000E+00 -0.40350748001E+03  0.40350748002E+03  0.25500000000E-02 0. -1.
    5000001    1    1    2    0    0  0.15374513782E+03 -0.17275051566E+03 -0.14781369125E+03  0.33267581124E+03  0.18800000000E+03 0.  0.
   -5000001    1    1    2    0    0 -0.15374513782E+03  0.17275051566E+03 -0.27248359912E+02  0.29927709765E+03  0.18800000000E+03 0.  0.
<mgrwt>
<rscale>  0 0.60722134E+03</rscale>
<asrwt>0</asrwt>
<pdfrwt beam="1">  1        2 0.32635061E-01 0.60722134E+03</pdfrwt>
<pdfrwt beam="2">  1       -2 0.57643925E-01 0.60722134E+03</pdfrwt>
<totfact> 0.45994296E+02</totfact>
</mgrwt>
</event>
<event>
 4    1  0.2153371E-005  0.5679937E+03  0.7818608E-02  0.9974128E-01
         -2   -1    0    0    0  501 -0.00000000000E+00  0.00000000000E+00  0.13422316913E+04  0.13422316913E+04  0.25500000000E-02 0. -1.
          2   -1    0    0  501    0  0.00000000000E+00 -0.00000000000E+00 -0.60089630296E+02  0.60089630350E+02  0.25500000000E-02 0.  1.
    5000001    1    1    2    0    0 -0.19485704914E+02 -0.21016451389E+03  0.70919622754E+03  0.76344751276E+03  0.18800000000E+03 0.  0.
   -5000001    1    1    2    0    0  0.19485704914E+02  0.21016451389E+03  0.57294583344E+03  0.63887380886E+03  0.18800000000E+03 0.  0.
<mgrwt>
<rscale>  0 0.56799368E+03</rscale>
<asrwt>0</asrwt>
<pdfrwt beam="1">  1        2 0.85842326E-02 0.56799368E+03</pdfrwt>
<pdfrwt beam="2">  1       -2 0.19174739E+00 0.56799368E+03</pdfrwt>
<totfact> 0.12501067E+02</totfact>
</mgrwt>
</event>
<event>
 4    1  0.2153371E-005  0.4351538E+03  0.7818608E-02  0.1032244E+00
         -2   -1    0    0    0  501 -0.00000000000E+00  0.00000000000E+00  0.23640388683E+02  0.23640388820E+02  0.25500000000E-02 0. -1.
          2   -1    0    0  501    0  0.00000000000E+00 -0.00000000000E+00 -0.20024930742E+04  0.20024930742E+04  0.25500000000E-02 0.  1.
    5000001    1    1    2    0    0  0.26624716788E+02 -0.10614084544E+03 -0.96810953031E+03  0.99224735691E+03  0.18800000000E+03 0.  0.
   -5000001    1    1    2    0    0 -0.26624716788E+02  0.10614084544E+03 -0.10107431552E+04  0.10338861061E+04  0.18800000000E+03 0.  0.
<mgrwt>
<rscale>  0 0.43515383E+03</rscale>
<asrwt>0</asrwt>
<pdfrwt beam="1">  1        2 0.28607033E+00 0.43515383E+03</pdfrwt>
<pdfrwt beam="2">  1       -2 0.33771997E-02 0.43515383E+03</pdfrwt>
<totfact> 0.31107029E+03</totfact>
</mgrwt>
</event>
<event>
 4    1  0.2153371E-005  0.4952958E+03  0.7818608E-02  0.1015014E+00
         -2   -1    0    0    0  501 -0.00000000000E+00  0.00000000000E+00  0.13265510840E+03  0.13265510842E+03  0.25500000000E-02 0. -1.
          2   -1    0    0  501    0  0.00000000000E+00 -0.00000000000E+00 -0.46232278377E+03  0.46232278378E+03  0.25500000000E-02 0.  1.
    5000001    1    1    2    0    0 -0.11263725539E+03  0.93115848960E+02 -0.83115051235E+02  0.25220988159E+03  0.18800000000E+03 0.  0.
   -5000001    1    1    2    0    0  0.11263725539E+03 -0.93115848960E+02 -0.24655262413E+03  0.34276801061E+03  0.18800000000E+03 0.  0.
<mgrwt>
<rscale>  0 0.49529579E+03</rscale>
<asrwt>0</asrwt>
<pdfrwt beam="1">  1        2 0.66046111E-01 0.49529579E+03</pdfrwt>
<pdfrwt beam="2">  1       -2 0.18950730E-01 0.49529579E+03</pdfrwt>
<totfact> 0.17150010E+03</totfact>
</mgrwt>
</event>
<event>
 4    1  0.2153371E-005  0.5818107E+03  0.7818608E-02  0.9943878E-01
         -2   -1    0    0    0  501 -0.00000000000E+00  0.00000000000E+00  0.13445318729E+03  0.13445318732E+03  0.25500000000E-02 0. -1.
          2   -1    0    0  501    0  0.00000000000E+00 -0.00000000000E+00 -0.62940815521E+03  0.62940815522E+03  0.25500000000E-02 0.  1.
    5000001    1    1    2    0    0 -0.11265498339E+03  0.18826062860E+03 -0.20297948673E+03  0.35309755253E+03  0.18800000000E+03 0.  0.
   -5000001    1    1    2    0    0  0.11265498339E+03 -0.18826062860E+03 -0.29197548119E+03  0.41076379001E+03  0.18800000000E+03 0.  0.
<mgrwt>
<rscale>  0 0.58181073E+03</rscale>
<asrwt>0</asrwt>
<pdfrwt beam="1">  1        2 0.89915449E-01 0.58181073E+03</pdfrwt>
<pdfrwt beam="2">  1       -2 0.19207599E-01 0.58181073E+03</pdfrwt>
<totfact> 0.11750056E+03</totfact>
</mgrwt>
</event>
<event>
 4    1  0.2153371E-005  0.6257837E+03  0.7818608E-02  0.9853311E-01
          2   -1    0    0  501    0  0.00000000000E+00  0.00000000000E+00  0.19963922556E+04  0.19963922556E+04  0.25500000000E-02 0.  1.
         -2   -1    0    0    0  501 -0.00000000000E+00 -0.00000000000E+00 -0.49039120349E+02  0.49039120415E+02  0.25500000000E-02 0. -1.
    5000001    1    1    2    0    0  0.43000513480E+02  0.20033306965E+03  0.50483090460E+03  0.57635113012E+03  0.18800000000E+03 0.  0.
   -5000001    1    1    2    0    0 -0.43000513480E+02 -0.20033306965E+03  0.14425222306E+04  0.14690802459E+04  0.18800000000E+03 0.  0.
<mgrwt>
<rscale>  0 0.62578373E+03</rscale>
<asrwt>0</asrwt>
<pdfrwt beam="1">  1        2 0.28519892E+00 0.62578373E+03</pdfrwt>
<pdfrwt beam="2">  1       -2 0.70055880E-02 0.62578373E+03</pdfrwt>
<totfact> 0.10055058E+03</totfact>
</mgrwt>
</event>
<event>
 4    1  0.2153371E-005  0.4975481E+03  0.7818608E-02  0.1014421E+00
          2   -1    0    0  501    0  0.00000000000E+00  0.00000000000E+00  0.28256892194E+04  0.28256892194E+04  0.25500000000E-02 0.  1.
         -2   -1    0    0    0  501 -0.00000000000E+00 -0.00000000000E+00 -0.21902096251E+02  0.21902096400E+02  0.25500000000E-02 0. -1.
    5000001    1    1    2    0    0  0.13667860822E+03 -0.44223584961E+02  0.96199384609E+03  0.99066287269E+03  0.18800000000E+03 0.  0.
   -5000001    1    1    2    0    0 -0.13667860822E+03  0.44223584961E+02  0.18417932770E+04  0.18569284431E+04  0.18800000000E+03 0.  0.
<mgrwt>
<rscale>  0 0.49754806E+03</rscale>
<asrwt>0</asrwt>
<pdfrwt beam="1">  1        2 0.40366940E+00 0.49754806E+03</pdfrwt>
<pdfrwt beam="2">  1       -2 0.31288747E-02 0.49754806E+03</pdfrwt>
<totfact> 0.13295327E+03</totfact>
</mgrwt>
</event>
<event>
 4    1  0.2153371E-005  0.5035472E+03  0.7818608E-02  0.1012857E+00
         -2   -1    0    0    0  501 -0.00000000000E+00  0.00000000000E+00  0.38076571056E+02  0.38076571141E+02  0.25500000000E-02 0. -1.
          2   -1    0    0  501    0  0.00000000000E+00 -0.00000000000E+00 -0.16648021438E+04  0.16648021438E+04  0.25500000000E-02 0.  1.
    5000001    1    1    2    0    0  0.27726122680E+02  0.13374498215E+03 -0.48567164299E+03  0.53840264016E+03  0.18800000000E+03 0.  0.
   -5000001    1    1    2    0    0 -0.27726122680E+02 -0.13374498215E+03 -0.11410539297E+04  0.11644760747E+04  0.18800000000E+03 0.  0.
<mgrwt>
<rscale>  0 0.50354725E+03</rscale>
<asrwt>0</asrwt>
<pdfrwt beam="1">  1        2 0.23782883E+00 0.50354725E+03</pdfrwt>
<pdfrwt beam="2">  1       -2 0.54395112E-02 0.50354725E+03</pdfrwt>
<totfact> 0.22071969E+03</totfact>
</mgrwt>
</event>
<event>
 4    1  0.2153371E-005  0.5835276E+03  0.7818608E-02  0.9940183E-01
          2   -1    0    0  501    0  0.00000000000E+00  0.00000000000E+00  0.30816123061E+03  0.30816123062E+03  0.25500000000E-02 0.  1.
         -2   -1    0    0    0  501 -0.00000000000E+00 -0.00000000000E+00 -0.27623891530E+03  0.27623891531E+03  0.25500000000E-02 0. -1.
    5000001    1    1    2    0    0  0.11838262309E+03  0.72856641893E+02  0.19074887276E+03  0.30174768960E+03  0.18800000000E+03 0.  0.
   -5000001    1    1    2    0    0 -0.11838262309E+03 -0.72856641893E+02 -0.15882655745E+03  0.28265245633E+03  0.18800000000E+03 0.  0.
<mgrwt>
<rscale>  0 0.58352763E+03</rscale>
<asrwt>0</asrwt>
<pdfrwt beam="1">  1        2 0.44023033E-01 0.58352763E+03</pdfrwt>
<pdfrwt beam="2">  1       -2 0.39462702E-01 0.58352763E+03</pdfrwt>
<totfact> 0.70668646E+02</totfact>
</mgrwt>
</event>
<event>
 4    1  0.2153371E-005  0.8830461E+03  0.7818608E-02  0.9447026E-01
         -2   -1    0    0    0  501 -0.00000000000E+00  0.00000000000E+00  0.48291510368E+03  0.48291510369E+03  0.25500000000E-02 0. -1.
          2   -1    0    0  501    0  0.00000000000E+00 -0.00000000000E+00 -0.40367881846E+03  0.40367881847E+03  0.25500000000E-02 0.  1.
    5000001    1    1    2    0    0  0.27974260714E+03 -0.42155914203E+02 -0.24358881362E+03  0.41798631254E+03  0.18800000000E+03 0.  0.
   -5000001    1    1    2    0    0 -0.27974260714E+03  0.42155914203E+02  0.32282509884E+03  0.46860760962E+03  0.18800000000E+03 0.  0.
<mgrwt>
<rscale>  0 0.88304609E+03</rscale>
<asrwt>0</asrwt>
<pdfrwt beam="1">  1        2 0.57668403E-01 0.88304609E+03</pdfrwt>
<pdfrwt beam="2">  1       -2 0.68987872E-01 0.88304609E+03</pdfrwt>
<totfact> 0.16500105E+02</totfact>
</mgrwt>
</event>
<event>
 4    1  0.2153371E-005  0.5115009E+03  0.7818608E-02  0.1010820E+00
          2   -1    0    0  501    0  0.00000000000E+00  0.00000000000E+00  0.11950645268E+04  0.11950645268E+04  0.25500000000E-02 0.  1.
         -2   -1    0    0    0  501 -0.00000000000E+00 -0.00000000000E+00 -0.54732011947E+02  0.54732012007E+02  0.25500000000E-02 0. -1.
    5000001    1    1    2    0    0  0.18330963329E+02 -0.16578124846E+03  0.45439904406E+03  0.51927058246E+03  0.18800000000E+03 0.  0.
   -5000001    1    1    2    0    0 -0.18330963329E+02  0.16578124846E+03  0.68593347081E+03  0.73052595637E+03  0.18800000000E+03 0.  0.
<mgrwt>
<rscale>  0 0.51150087E+03</rscale>
<asrwt>0</asrwt>
<pdfrwt beam="1">  1        2 0.17072350E+00 0.51150087E+03</pdfrwt>
<pdfrwt beam="2">  1       -2 0.78188592E-02 0.51150087E+03</pdfrwt>
<totfact> 0.22097213E+03</totfact>
</mgrwt>
</event>
<event>
 4    1  0.2153371E-005  0.6513557E+03  0.7818608E-02  0.9804239E-01
          2   -1    0    0  501    0  0.00000000000E+00  0.00000000000E+00  0.15265372668E+04  0.15265372668E+04  0.25500000000E-02 0.  1.
         -2   -1    0    0    0  501 -0.00000000000E+00 -0.00000000000E+00 -0.69481479904E+02  0.69481479951E+02  0.25500000000E-02 0. -1.
    5000001    1    1    2    0    0  0.16060003280E+03 -0.20066095097E+03  0.89588340787E+03  0.95079349402E+03  0.18800000000E+03 0.  0.
   -5000001    1    1    2    0    0 -0.16060003280E+03  0.20066095097E+03  0.56117237906E+03  0.64522525276E+03  0.18800000000E+03 0.  0.
<mgrwt>
<rscale>  0 0.65135572E+03</rscale>
<asrwt>0</asrwt>
<pdfrwt beam="1">  1        2 0.21807678E+00 0.65135572E+03</pdfrwt>
<pdfrwt beam="2">  1       -2 0.99259246E-02 0.65135572E+03</pdfrwt>
<totfact> 0.99678435E+02</totfact>
</mgrwt>
</event>
<event>
 4    1  0.2153371E-005  0.4655295E+03  0.7818608E-02  0.1023190E+00
          2   -1    0    0  501    0  0.00000000000E+00  0.00000000000E+00  0.42094766229E+03  0.42094766230E+03  0.25500000000E-02 0.  1.
         -2   -1    0    0    0  501 -0.00000000000E+00 -0.00000000000E+00 -0.12870824033E+03  0.12870824036E+03  0.25500000000E-02 0. -1.
    5000001    1    1    2    0    0  0.11381078667E+03  0.31606331082E+02  0.22863087579E+03  0.31869724299E+03  0.18800000000E+03 0.  0.
   -5000001    1    1    2    0    0 -0.11381078667E+03 -0.31606331082E+02  0.63608546167E+02  0.23095865966E+03  0.18800000000E+03 0.  0.
<mgrwt>
<rscale>  0 0.46552952E+03</rscale>
<asrwt>0</asrwt>
<pdfrwt beam="1">  1        2 0.60135381E-01 0.46552952E+03</pdfrwt>
<pdfrwt beam="2">  1       -2 0.18386891E-01 0.46552952E+03</pdfrwt>
<totfact> 0.20040259E+03</totfact>
</mgrwt>
</event>
<event>
 4    1  0.2153371E-005  0.8682091E+03  0.7818608E-02  0.9466218E-01
          2   -1    0    0  501    0  0.00000000000E+00  0.00000000000E+00  0.55038851972E+03  0.55038851973E+03  0.25500000000E-02 0.  1.
         -2   -1    0    0    0  501 -0.00000000000E+00 -0.00000000000E+00 -0.34238861963E+03  0.34238861964E+03  0.25500000000E-02 0. -1.
    5000001    1    1    2    0    0 -0.24732770456E+03  0.23131469387E+03 -0.97570686557E+02  0.39942648875E+03  0.18800000000E+03 0.  0.
   -5000001    1    1    2    0    0  0.24732770456E+03 -0.23131469387E+03  0.30557058665E+03  0.49335065062E+03  0.18800000000E+03 0.  0.
<mgrwt>
<rscale>  0 0.86820911E+03</rscale>
<asrwt>0</asrwt>
<pdfrwt beam="1">  1        2 0.78626932E-01 0.86820911E+03</pdfrwt>
<pdfrwt beam="2">  1       -2 0.48912660E-01 0.86820911E+03</pdfrwt>
<totfact> 0.23868359E+02</totfact>
</mgrwt>
</event>
<event>
 4    1  0.2153371E-005  0.4033999E+03  0.7818608E-02  0.1042609E+00
         -2   -1    0    0    0  501 -0.00000000000E+00  0.00000000000E+00  0.43669494991E+02  0.43669495066E+02  0.25500000000E-02 0. -1.
          2   -1    0    0  501    0  0.00000000000E+00 -0.00000000000E+00 -0.93160839009E+03  0.93160839009E+03  0.25500000000E-02 0.  1.
    5000001    1    1    2    0    0  0.22985144985E+02 -0.62962602241E+02 -0.51430015191E+03  0.55167132645E+03  0.18800000000E+03 0.  0.
   -5000001    1    1    2    0    0 -0.22985144985E+02  0.62962602241E+02 -0.37363874319E+03  0.42360655871E+03  0.18800000000E+03 0.  0.
<mgrwt>
<rscale>  0 0.40339989E+03</rscale>
<asrwt>0</asrwt>
<pdfrwt beam="1">  1        2 0.13308690E+00 0.40339989E+03</pdfrwt>
<pdfrwt beam="2">  1       -2 0.62384998E-02 0.40339989E+03</pdfrwt>
<totfact> 0.44923210E+03</totfact>
</mgrwt>
</event>
<event>
 4    1  0.2153371E-005  0.5646665E+03  0.7818608E-02  0.9981551E-01
         -2   -1    0    0    0  501 -0.00000000000E+00  0.00000000000E+00  0.20068317006E+02  0.20068317168E+02  0.25500000000E-02 0. -1.
          2   -1    0    0  501    0  0.00000000000E+00 -0.00000000000E+00 -0.39720350155E+04  0.39720350155E+04  0.25500000000E-02 0.  1.
    5000001    1    1    2    0    0  0.20065093185E+03  0.12553609001E+02 -0.24202974508E+04  0.24358986309E+04  0.18800000000E+03 0.  0.
   -5000001    1    1    2    0    0 -0.20065093185E+03 -0.12553609001E+02 -0.15316692477E+04  0.15562047018E+04  0.18800000000E+03 0.  0.
<mgrwt>
<rscale>  0 0.56466648E+03</rscale>
<asrwt>0</asrwt>
<pdfrwt beam="1">  1        2 0.56743307E+00 0.56466648E+03</pdfrwt>
<pdfrwt beam="2">  1       -2 0.28669050E-02 0.56466648E+03</pdfrwt>
<totfact> 0.32179704E+02</totfact>
</mgrwt>
</event>
<event>
 4    1  0.2153371E-005  0.6492086E+03  0.7818608E-02  0.9808265E-01
          2   -1    0    0  501    0  0.00000000000E+00  0.00000000000E+00  0.49215962981E+03  0.49215962982E+03  0.25500000000E-02 0.  1.
         -2   -1    0    0    0  501 -0.00000000000E+00 -0.00000000000E+00 -0.21409305833E+03  0.21409305834E+03  0.25500000000E-02 0. -1.
    5000001    1    1    2    0    0  0.84218607410E+02  0.21417095578E+03  0.28113216423E+03  0.40907366806E+03  0.18800000000E+03 0.  0.
   -5000001    1    1    2    0    0 -0.84218607410E+02 -0.21417095578E+03 -0.30655927412E+01  0.29717902011E+03  0.18800000000E+03 0.  0.
<mgrwt>
<rscale>  0 0.64920863E+03</rscale>
<asrwt>0</asrwt>
<pdfrwt beam="1">  1        2 0.70308519E-01 0.64920863E+03</pdfrwt>
<pdfrwt beam="2">  1       -2 0.30584722E-01 0.64920863E+03</pdfrwt>
<totfact> 0.67909099E+02</totfact>
</mgrwt>
</event>
<event>
 4    1  0.2153371E-005  0.4891732E+03  0.7818608E-02  0.1016644E+00
         -2   -1    0    0    0  501 -0.00000000000E+00  0.00000000000E+00  0.20640790731E+02  0.20640790889E+02  0.25500000000E-02 0. -1.
          2   -1    0    0  501    0  0.00000000000E+00 -0.00000000000E+00 -0.28982713825E+04  0.28982713825E+04  0.25500000000E-02 0.  1.
    5000001    1    1    2    0    0 -0.83297957810E+02  0.13101581852E+03 -0.15543538624E+04  0.15733606148E+04  0.18800000000E+03 0.  0.
   -5000001    1    1    2    0    0  0.83297957810E+02 -0.13101581852E+03 -0.13232767293E+04  0.13455515586E+04  0.18800000000E+03 0.  0.
<mgrwt>
<rscale>  0 0.48917323E+03</rscale>
<asrwt>0</asrwt>
<pdfrwt beam="1">  1        2 0.41403851E+00 0.48917323E+03</pdfrwt>
<pdfrwt beam="2">  1       -2 0.29486862E-02 0.48917323E+03</pdfrwt>
<totfact> 0.13320041E+03</totfact>
</mgrwt>
</event>
<event>
 4    1  0.2153371E-005  0.6445433E+03  0.7818608E-02  0.9817073E-01
          2   -1    0    0  501    0  0.00000000000E+00  0.00000000000E+00  0.69762801689E+03  0.69762801689E+03  0.25500000000E-02 0.  1.
         -2   -1    0    0    0  501 -0.00000000000E+00 -0.00000000000E+00 -0.14887448401E+03  0.14887448403E+03  0.25500000000E-02 0. -1.
    5000001    1    1    2    0    0 -0.79175742727E+02 -0.24731950797E+03  0.31752290906E+03  0.45122115979E+03  0.18800000000E+03 0.  0.
   -5000001    1    1    2    0    0  0.79175742727E+02  0.24731950797E+03  0.23123062382E+03  0.39528134113E+03  0.18800000000E+03 0.  0.
<mgrwt>
<rscale>  0 0.64454328E+03</rscale>
<asrwt>0</asrwt>
<pdfrwt beam="1">  1        2 0.99661145E-01 0.64454328E+03</pdfrwt>
<pdfrwt beam="2">  1       -2 0.21267783E-01 0.64454328E+03</pdfrwt>
<totfact> 0.86792449E+02</totfact>
</mgrwt>
</event>
<event>
 4    1  0.2153371E-005  0.5807830E+03  0.7818608E-02  0.9946097E-01
         -2   -1    0    0    0  501 -0.00000000000E+00  0.00000000000E+00  0.40761273750E+02  0.40761273829E+02  0.25500000000E-02 0. -1.
          2   -1    0    0  501    0  0.00000000000E+00 -0.00000000000E+00 -0.20688075120E+04  0.20688075120E+04  0.25500000000E-02 0.  1.
    5000001    1    1    2    0    0  0.75492901896E+02  0.46628782822E+02 -0.27755745730E+03  0.34677883979E+03  0.18800000000E+03 0.  0.
   -5000001    1    1    2    0    0 -0.75492901896E+02 -0.46628782822E+02 -0.17504887809E+04  0.17627899460E+04  0.18800000000E+03 0.  0.
<mgrwt>
<rscale>  0 0.58078302E+03</rscale>
<asrwt>0</asrwt>
<pdfrwt beam="1">  1        2 0.29554386E+00 0.58078302E+03</pdfrwt>
<pdfrwt beam="2">  1       -2 0.58230404E-02 0.58078302E+03</pdfrwt>
<totfact> 0.12397026E+03</totfact>
</mgrwt>
</event>
<event>
 4    1  0.2153371E-005  0.4188730E+03  0.7818608E-02  0.1037434E+00
          2   -1    0    0  501    0  0.00000000000E+00  0.00000000000E+00  0.35697146502E+03  0.35697146503E+03  0.25500000000E-02 0.  1.
         -2   -1    0    0    0  501 -0.00000000000E+00 -0.00000000000E+00 -0.12287715628E+03  0.12287715631E+03  0.25500000000E-02 0. -1.
    5000001    1    1    2    0    0 -0.73799887683E+02 -0.31752335786E+02  0.16910454607E+03  0.26532052644E+03  0.18800000000E+03 0.  0.
   -5000001    1    1    2    0    0  0.73799887683E+02  0.31752335786E+02  0.64989762672E+02  0.21452809490E+03  0.18800000000E+03 0.  0.
<mgrwt>
<rscale>  0 0.41887296E+03</rscale>
<asrwt>0</asrwt>
<pdfrwt beam="1">  1        2 0.50995925E-01 0.41887296E+03</pdfrwt>
<pdfrwt beam="2">  1       -2 0.17553879E-01 0.41887296E+03</pdfrwt>
<totfact> 0.25969481E+03</totfact>
</mgrwt>
</event>
<event>
 4    1  0.2153371E-005  0.4177142E+03  0.7818608E-02  0.1037813E+00
         -2   -1    0    0    0  501 -0.00000000000E+00  0.00000000000E+00  0.16581373351E+02  0.16581373547E+02  0.25500000000E-02 0. -1.
          2   -1    0    0  501    0  0.00000000000E+00 -0.00000000000E+00 -0.26307399894E+04  0.26307399894E+04  0.25500000000E-02 0.  1.
    5000001    1    1    2    0    0 -0.77451963983E+02 -0.40192574782E+02 -0.14702697949E+04  0.14848068964E+04  0.18800000000E+03 0.  0.
   -5000001    1    1    2    0    0  0.77451963983E+02  0.40192574782E+02 -0.11438888212E+04  0.11625144666E+04  0.18800000000E+03 0.  0.
<mgrwt>
<rscale>  0 0.41771417E+03</rscale>
<asrwt>0</asrwt>
<pdfrwt beam="1">  1        2 0.37581973E+00 0.41771417E+03</pdfrwt>
<pdfrwt beam="2">  1       -2 0.23687693E-02 0.41771417E+03</pdfrwt>
<totfact> 0.25682868E+03</totfact>
</mgrwt>
</event>
<event>
 4    1  0.2153371E-005  0.4261482E+03  0.7818608E-02  0.1035084E+00
          2   -1    0    0  501    0  0.00000000000E+00  0.00000000000E+00  0.56449860681E+03  0.56449860681E+03  0.25500000000E-02 0.  1.
         -2   -1    0    0    0  501 -0.00000000000E+00 -0.00000000000E+00 -0.80426359579E+02  0.80426359619E+02  0.25500000000E-02 0. -1.
    5000001    1    1    2    0    0 -0.77937111706E+01 -0.89460998760E+02  0.17448170075E+03  0.27175701670E+03  0.18800000000E+03 0.  0.
   -5000001    1    1    2    0    0  0.77937111706E+01  0.89460998760E+02  0.30959054648E+03  0.37316794973E+03  0.18800000000E+03 0.  0.
<mgrwt>
<rscale>  0 0.42614818E+03</rscale>
<asrwt>0</asrwt>
<pdfrwt beam="1">  1        2 0.80642657E-01 0.42614818E+03</pdfrwt>
<pdfrwt beam="2">  1       -2 0.11489480E-01 0.42614818E+03</pdfrwt>
<totfact> 0.31532597E+03</totfact>
</mgrwt>
</event>
<event>
 4    1  0.2153371E-005  0.7199955E+03  0.7818608E-02  0.9683635E-01
         -2   -1    0    0    0  501 -0.00000000000E+00  0.00000000000E+00  0.43550400230E+03  0.43550400231E+03  0.25500000000E-02 0. -1.
          2   -1    0    0  501    0  0.00000000000E+00 -0.00000000000E+00 -0.29758255434E+03  0.29758255435E+03  0.25500000000E-02 0.  1.
    5000001    1    1    2    0    0 -0.68504656066E+02 -0.28903569743E+03 -0.10037813040E+02  0.35168065056E+03  0.18800000000E+03 0.  0.
   -5000001    1    1    2    0    0  0.68504656066E+02  0.28903569743E+03  0.14795926100E+03  0.38140590610E+03  0.18800000000E+03 0.  0.
<mgrwt>
<rscale>  0 0.71999554E+03</rscale>
<asrwt>0</asrwt>
<pdfrwt beam="1">  1        2 0.42511794E-01 0.71999554E+03</pdfrwt>
<pdfrwt beam="2">  1       -2 0.62214857E-01 0.71999554E+03</pdfrwt>
<totfact> 0.29109756E+02</totfact>
</mgrwt>
</event>
<event>
 4    1  0.2153371E-005  0.8151622E+03  0.7818608E-02  0.9538326E-01
          2   -1    0    0  501    0  0.00000000000E+00  0.00000000000E+00  0.13395139024E+04  0.13395139024E+04  0.25500000000E-02 0.  1.
         -2   -1    0    0    0  501 -0.00000000000E+00 -0.00000000000E+00 -0.12401688788E+03  0.12401688791E+03  0.25500000000E-02 0. -1.
    5000001    1    1    2    0    0 -0.33291165473E+03  0.14121258194E+03  0.60293690126E+03  0.72776924231E+03  0.18800000000E+03 0.  0.
   -5000001    1    1    2    0    0  0.33291165473E+03 -0.14121258194E+03  0.61256011323E+03  0.73576154797E+03  0.18800000000E+03 0.  0.
<mgrwt>
<rscale>  0 0.81516218E+03</rscale>
<asrwt>0</asrwt>
<pdfrwt beam="1">  1        2 0.19135913E+00 0.81516218E+03</pdfrwt>
<pdfrwt beam="2">  1       -2 0.17716698E-01 0.81516218E+03</pdfrwt>
<totfact> 0.47264370E+02</totfact>
</mgrwt>
</event>
<event>
 4    1  0.2153371E-005  0.8780013E+03  0.7818608E-02  0.9453506E-01
          2   -1    0    0  501    0  0.00000000000E+00  0.00000000000E+00  0.17404481400E+04  0.17404481400E+04  0.25500000000E-02 0.  1.
         -2   -1    0    0    0  501 -0.00000000000E+00 -0.00000000000E+00 -0.11073100344E+03  0.11073100347E+03  0.25500000000E-02 0. -1.
    5000001    1    1    2    0    0  0.37266972421E+03  0.92143255722E+02  0.10257457824E+04  0.11112477281E+04  0.18800000000E+03 0.  0.
   -5000001    1    1    2    0    0 -0.37266972421E+03 -0.92143255722E+02  0.60397135407E+03  0.73993141537E+03  0.18800000000E+03 0.  0.
<mgrwt>
<rscale>  0 0.87800130E+03</rscale>
<asrwt>0</asrwt>
<pdfrwt beam="1">  1        2 0.24863542E+00 0.87800130E+03</pdfrwt>
<pdfrwt beam="2">  1       -2 0.15818716E-01 0.87800130E+03</pdfrwt>
<totfact> 0.35211204E+02</totfact>
</mgrwt>
</event>
<event>
 4    1  0.2153371E-005  0.5265533E+03  0.7818608E-02  0.1007071E+00
          2   -1    0    0  501    0  0.00000000000E+00  0.00000000000E+00  0.25314889111E+03  0.25314889113E+03  0.25500000000E-02 0.  1.
         -2   -1    0    0    0  501 -0.00000000000E+00 -0.00000000000E+00 -0.27380958686E+03  0.27380958687E+03  0.25500000000E-02 0. -1.
    5000001    1    1    2    0    0  0.15573884183E+03  0.34762342297E+02  0.81977204361E+02  0.25986009569E+03  0.18800000000E+03 0.  0.
   -5000001    1    1    2    0    0 -0.15573884183E+03 -0.34762342297E+02 -0.10263790010E+03  0.26709838231E+03  0.18800000000E+03 0.  0.
<mgrwt>
<rscale>  0 0.52655330E+03</rscale>
<asrwt>0</asrwt>
<pdfrwt beam="1">  1        2 0.36164127E-01 0.52655330E+03</pdfrwt>
<pdfrwt beam="2">  1       -2 0.39115655E-01 0.52655330E+03</pdfrwt>
<totfact> 0.89348819E+02</totfact>
</mgrwt>
</event>
<event>
 4    1  0.2153371E-005  0.3863307E+03  0.7818608E-02  0.1048618E+00
         -2   -1    0    0    0  501 -0.00000000000E+00  0.00000000000E+00  0.61536607518E+02  0.61536607571E+02  0.25500000000E-02 0. -1.
          2   -1    0    0  501    0  0.00000000000E+00 -0.00000000000E+00 -0.60635211059E+03  0.60635211060E+03  0.25500000000E-02 0.  1.
    5000001    1    1    2    0    0  0.21244513366E+02  0.19765217037E+02 -0.21437413663E+03  0.28660471665E+03  0.18800000000E+03 0.  0.
   -5000001    1    1    2    0    0 -0.21244513366E+02 -0.19765217037E+02 -0.33044136644E+03  0.38128400151E+03  0.18800000000E+03 0.  0.
<mgrwt>
<rscale>  0 0.38633070E+03</rscale>
<asrwt>0</asrwt>
<pdfrwt beam="1">  1        2 0.86621727E-01 0.38633070E+03</pdfrwt>
<pdfrwt beam="2">  1       -2 0.87909443E-02 0.38633070E+03</pdfrwt>
<totfact> 0.44565049E+03</totfact>
</mgrwt>
</event>
<event>
 4    1  0.2153371E-005  0.4893416E+03  0.7818608E-02  0.1016599E+00
          2   -1    0    0  501    0  0.00000000000E+00  0.00000000000E+00  0.62563398597E+03  0.62563398598E+03  0.25500000000E-02 0.  1.
         -2   -1    0    0    0  501 -0.00000000000E+00 -0.00000000000E+00 -0.95685020289E+02  0.95685020323E+02  0.25500000000E-02 0. -1.
    5000001    1    1    2    0    0 -0.36316335596E+02 -0.14519877616E+03  0.19713183313E+03  0.31081589480E+03  0.18800000000E+03 0.  0.
   -5000001    1    1    2    0    0  0.36316335596E+02  0.14519877616E+03  0.33281713256E+03  0.41050311150E+03  0.18800000000E+03 0.  0.
<mgrwt>
<rscale>  0 0.48934160E+03</rscale>
<asrwt>0</asrwt>
<pdfrwt beam="1">  1        2 0.89376282E-01 0.48934160E+03</pdfrwt>
<pdfrwt beam="2">  1       -2 0.13669289E-01 0.48934160E+03</pdfrwt>
<totfact> 0.21058992E+03</totfact>
</mgrwt>
</event>
<event>
 4    1  0.2153371E-005  0.6961389E+03  0.7818608E-02  0.9723858E-01
         -2   -1    0    0    0  501 -0.00000000000E+00  0.00000000000E+00  0.36904884598E+03  0.36904884599E+03  0.25500000000E-02 0. -1.
          2   -1    0    0  501    0  0.00000000000E+00 -0.00000000000E+00 -0.32828263746E+03  0.32828263747E+03  0.25500000000E-02 0.  1.
    5000001    1    1    2    0    0  0.27738325726E+03  0.90028592237E+02  0.48029475434E+02  0.35028195691E+03  0.18800000000E+03 0.  0.
   -5000001    1    1    2    0    0 -0.27738325726E+03 -0.90028592237E+02 -0.72632669148E+01  0.34704952654E+03  0.18800000000E+03 0.  0.
<mgrwt>
<rscale>  0 0.69613886E+03</rscale>
<asrwt>0</asrwt>
<pdfrwt beam="1">  1        2 0.46897519E-01 0.69613886E+03</pdfrwt>
<pdfrwt beam="2">  1       -2 0.52721264E-01 0.69613886E+03</pdfrwt>
<totfact> 0.36916884E+02</totfact>
</mgrwt>
</event>
<event>
 4    1  0.2153371E-005  0.7666126E+03  0.7818608E-02  0.9609642E-01
          2   -1    0    0  501    0  0.00000000000E+00  0.00000000000E+00  0.98504674727E+03  0.98504674727E+03  0.25500000000E-02 0.  1.
         -2   -1    0    0    0  501 -0.00000000000E+00 -0.00000000000E+00 -0.14915405040E+03  0.14915405042E+03  0.25500000000E-02 0. -1.
    5000001    1    1    2    0    0 -0.51685467012E+02  0.21301140918E+03  0.79086893898E+03  0.84193997802E+03  0.18800000000E+03 0.  0.
   -5000001    1    1    2    0    0  0.51685467012E+02 -0.21301140918E+03  0.45023757882E+02  0.29226081967E+03  0.18800000000E+03 0.  0.
<mgrwt>
<rscale>  0 0.76661258E+03</rscale>
<asrwt>0</asrwt>
<pdfrwt beam="1">  1        2 0.14072096E+00 0.76661258E+03</pdfrwt>
<pdfrwt beam="2">  1       -2 0.21307722E-01 0.76661258E+03</pdfrwt>
<totfact> 0.54931340E+02</totfact>
</mgrwt>
</event>
<event>
 4    1  0.2153371E-005  0.5616314E+03  0.7818608E-02  0.9988370E-01
          2   -1    0    0  501    0  0.00000000000E+00  0.00000000000E+00  0.20657123557E+03  0.20657123558E+03  0.25500000000E-02 0.  1.
         -2   -1    0    0    0  501 -0.00000000000E+00 -0.00000000000E+00 -0.38174455587E+03  0.38174455588E+03  0.25500000000E-02 0. -1.
    5000001    1    1    2    0    0  0.10091139261E+03  0.16097725186E+03 -0.17779845838E+03  0.32101881032E+03  0.18800000000E+03 0.  0.
   -5000001    1    1    2    0    0 -0.10091139261E+03 -0.16097725186E+03  0.26251380798E+01  0.26729698114E+03  0.18800000000E+03 0.  0.
<mgrwt>
<rscale>  0 0.56163135E+03</rscale>
<asrwt>0</asrwt>
<pdfrwt beam="1">  1        2 0.29510177E-01 0.56163135E+03</pdfrwt>
<pdfrwt beam="2">  1       -2 0.54534936E-01 0.56163135E+03</pdfrwt>
<totfact> 0.57794540E+02</totfact>
</mgrwt>
</event>
<event>
 4    1  0.2153371E-005  0.4999031E+03  0.7818608E-02  0.1013804E+00
          2   -1    0    0  501    0  0.00000000000E+00  0.00000000000E+00  0.14472974572E+04  0.14472974572E+04  0.25500000000E-02 0.  1.
         -2   -1    0    0    0  501 -0.00000000000E+00 -0.00000000000E+00 -0.43167196212E+02  0.43167196287E+02  0.25500000000E-02 0. -1.
    5000001    1    1    2    0    0 -0.13353888587E+02 -0.86385629686E+02  0.28581671652E+03  0.35309488639E+03  0.18800000000E+03 0.  0.
   -5000001    1    1    2    0    0  0.13353888587E+02  0.86385629686E+02  0.11183135445E+04  0.11373697671E+04  0.18800000000E+03 0.  0.
<mgrwt>
<rscale>  0 0.49990308E+03</rscale>
<asrwt>0</asrwt>
<pdfrwt beam="1">  1        2 0.20675674E+00 0.49990308E+03</pdfrwt>
<pdfrwt beam="2">  1       -2 0.61667436E-02 0.49990308E+03</pdfrwt>
<totfact> 0.23487153E+03</totfact>
</mgrwt>
</event>
<event>
 4    1  0.2153371E-005  0.6466008E+03  0.7818608E-02  0.9813178E-01
         -2   -1    0    0    0  501 -0.00000000000E+00  0.00000000000E+00  0.30309123893E+02  0.30309124000E+02  0.25500000000E-02 0. -1.
          2   -1    0    0  501    0  0.00000000000E+00 -0.00000000000E+00 -0.34485709452E+04  0.34485709452E+04  0.25500000000E-02 0.  1.
    5000001    1    1    2    0    0 -0.15829443678E+03  0.18918080052E+03 -0.22002592827E+04  0.22220106695E+04  0.18800000000E+03 0.  0.
   -5000001    1    1    2    0    0  0.15829443678E+03 -0.18918080052E+03 -0.12180025386E+04  0.12568693997E+04  0.18800000000E+03 0.  0.
<mgrwt>
<rscale>  0 0.64660085E+03</rscale>
<asrwt>0</asrwt>
<pdfrwt beam="1">  1        2 0.49265274E+00 0.64660085E+03</pdfrwt>
<pdfrwt beam="2">  1       -2 0.43298771E-02 0.64660085E+03</pdfrwt>
<totfact> 0.35896918E+02</totfact>
</mgrwt>
</event>
<event>
 4    1  0.2153371E-005  0.5372919E+03  0.7818608E-02  0.1004479E+00
          2   -1    0    0  501    0  0.00000000000E+00  0.00000000000E+00  0.72356652088E+03  0.72356652089E+03  0.25500000000E-02 0.  1.
         -2   -1    0    0    0  501 -0.00000000000E+00 -0.00000000000E+00 -0.99742938648E+02  0.99742938680E+02  0.25500000000E-02 0. -1.
    5000001    1    1    2    0    0 -0.77098581502E+02 -0.15300536089E+03  0.17945751589E+03  0.31129380293E+03  0.18800000000E+03 0.  0.
   -5000001    1    1    2    0    0  0.77098581502E+02  0.15300536089E+03  0.44436606634E+03  0.51201565664E+03  0.18800000000E+03 0.  0.
<mgrwt>
<rscale>  0 0.53729192E+03</rscale>
<asrwt>0</asrwt>
<pdfrwt beam="1">  1        2 0.10336665E+00 0.53729192E+03</pdfrwt>
<pdfrwt beam="2">  1       -2 0.14248991E-01 0.53729192E+03</pdfrwt>
<totfact> 0.16496733E+03</totfact>
</mgrwt>
</event>
<event>
 4    1  0.2153371E-005  0.1418717E+04  0.7818608E-02  0.8940380E-01
         -2   -1    0    0    0  501 -0.00000000000E+00  0.00000000000E+00  0.17922768304E+04  0.17922768304E+04  0.25500000000E-02 0. -1.
          2   -1    0    0  501    0  0.00000000000E+00 -0.00000000000E+00 -0.28075442310E+03  0.28075442311E+03  0.25500000000E-02 0.  1.
    5000001    1    1    2    0    0 -0.65685615302E+03  0.18968791899E+03  0.78513589671E+03  0.10579337827E+04  0.18800000000E+03 0.  0.
   -5000001    1    1    2    0    0  0.65685615302E+03 -0.18968791899E+03  0.72638651058E+03  0.10150974707E+04  0.18800000000E+03 0.  0.
<mgrwt>
<rscale>  0 0.14187172E+04</rscale>
<asrwt>0</asrwt>
<pdfrwt beam="1">  1        2 0.40107775E-01 0.14187172E+04</pdfrwt>
<pdfrwt beam="2">  1       -2 0.25603955E+00 0.14187172E+04</pdfrwt>
<totfact> 0.73883524E+00</totfact>
</mgrwt>
</event>
<event>
 4    1  0.2153371E-005  0.4848812E+03  0.7818608E-02  0.1017802E+00
          2   -1    0    0  501    0  0.00000000000E+00  0.00000000000E+00  0.40646762423E+03  0.40646762423E+03  0.25500000000E-02 0.  1.
         -2   -1    0    0    0  501 -0.00000000000E+00 -0.00000000000E+00 -0.14460546223E+03  0.14460546225E+03  0.25500000000E-02 0. -1.
    5000001    1    1    2    0    0 -0.14980624870E+03 -0.29906407070E+02  0.11973004803E+03  0.27021397028E+03  0.18800000000E+03 0.  0.
   -5000001    1    1    2    0    0  0.14980624870E+03  0.29906407070E+02  0.14213211397E+03  0.28085911621E+03  0.18800000000E+03 0.  0.
<mgrwt>
<rscale>  0 0.48488118E+03</rscale>
<asrwt>0</asrwt>
<pdfrwt beam="1">  1        2 0.58066803E-01 0.48488118E+03</pdfrwt>
<pdfrwt beam="2">  1       -2 0.20657923E-01 0.48488118E+03</pdfrwt>
<totfact> 0.17040588E+03</totfact>
</mgrwt>
</event>
<event>
 4    1  0.2153371E-005  0.7292201E+03  0.7818608E-02  0.9668527E-01
         -2   -1    0    0    0  501 -0.00000000000E+00  0.00000000000E+00  0.23519345290E+03  0.23519345291E+03  0.25500000000E-02 0.  1.
          2   -1    0    0  501    0  0.00000000000E+00 -0.00000000000E+00 -0.56523887503E+03  0.56523887504E+03  0.25500000000E-02 0. -1.
    5000001    1    1    2    0    0  0.14397048567E+03 -0.60597133778E+02 -0.46199269076E+03  0.52266696823E+03  0.18800000000E+03 0.  0.
   -5000001    1    1    2    0    0 -0.14397048567E+03  0.60597133778E+02  0.13194726862E+03  0.27776535972E+03  0.18800000000E+03 0.  0.
<mgrwt>
<rscale>  0 0.72922008E+03</rscale>
<asrwt>0</asrwt>
<pdfrwt beam="1">  1        2 0.80748410E-01 0.72922008E+03</pdfrwt>
<pdfrwt beam="2">  1       -2 0.33599065E-01 0.72922008E+03</pdfrwt>
<totfact> 0.48457236E+02</totfact>
</mgrwt>
</event>
<event>
 4    1  0.2153371E-005  0.4102818E+03  0.7818608E-02  0.1040276E+00
         -2   -1    0    0    0  501 -0.00000000000E+00  0.00000000000E+00  0.49359184946E+02  0.49359185012E+02  0.25500000000E-02 0. -1.
          2   -1    0    0  501    0  0.00000000000E+00 -0.00000000000E+00 -0.85258268795E+03  0.85258268795E+03  0.25500000000E-02 0.  1.
    5000001    1    1    2    0    0 -0.59998766757E+02  0.51437255629E+02 -0.35279342473E+03  0.40749582060E+03  0.18800000000E+03 0.  0.
   -5000001    1    1    2    0    0  0.59998766757E+02 -0.51437255629E+02 -0.45043007827E+03  0.49444605236E+03  0.18800000000E+03 0.  0.
<mgrwt>
<rscale>  0 0.41028179E+03</rscale>
<asrwt>0</asrwt>
<pdfrwt beam="1">  1        2 0.12179752E+00 0.41028179E+03</pdfrwt>
<pdfrwt beam="2">  1       -2 0.70513127E-02 0.41028179E+03</pdfrwt>
<totfact> 0.41698876E+03</totfact>
</mgrwt>
</event>
<event>
 4    1  0.2153371E-005  0.8176225E+03  0.7818608E-02  0.9534854E-01
          2   -1    0    0  501    0  0.00000000000E+00  0.00000000000E+00  0.41815980632E+03  0.41815980632E+03  0.25500000000E-02 0.  1.
         -2   -1    0    0    0  501 -0.00000000000E+00 -0.00000000000E+00 -0.39967173284E+03  0.39967173285E+03  0.25500000000E-02 0. -1.
    5000001    1    1    2    0    0 -0.35079372498E+03 -0.28634984028E+02  0.98185012616E+02  0.41092638818E+03  0.18800000000E+03 0.  0.
   -5000001    1    1    2    0    0  0.35079372498E+03  0.28634984028E+02 -0.79696939144E+02  0.40690515100E+03  0.18800000000E+03 0.  0.
<mgrwt>
<rscale>  0 0.81762254E+03</rscale>
<asrwt>0</asrwt>
<pdfrwt beam="1">  1        2 0.59737115E-01 0.81762254E+03</pdfrwt>
<pdfrwt beam="2">  1       -2 0.57095962E-01 0.81762254E+03</pdfrwt>
<totfact> 0.23805126E+02</totfact>
</mgrwt>
</event>
<event>
 4    1  0.2153371E-005  0.5056374E+03  0.7818608E-02  0.1012318E+00
         -2   -1    0    0    0  501 -0.00000000000E+00  0.00000000000E+00  0.37192107067E+02  0.37192107154E+02  0.25500000000E-02 0. -1.
          2   -1    0    0  501    0  0.00000000000E+00 -0.00000000000E+00 -0.17185716352E+04  0.17185716352E+04  0.25500000000E-02 0.  1.
    5000001    1    1    2    0    0 -0.13577449995E+03  0.19610840529E+02 -0.49774967667E+03  0.54947069124E+03  0.18800000000E+03 0.  0.
   -5000001    1    1    2    0    0  0.13577449995E+03 -0.19610840529E+02 -0.11836298515E+04  0.12062930511E+04  0.18800000000E+03 0.  0.
<mgrwt>
<rscale>  0 0.50563742E+03</rscale>
<asrwt>0</asrwt>
<pdfrwt beam="1">  1        2 0.24551018E+00 0.50563742E+03</pdfrwt>
<pdfrwt beam="2">  1       -2 0.53131593E-02 0.50563742E+03</pdfrwt>
<totfact> 0.21500327E+03</totfact>
</mgrwt>
</event>
<event>
 4    1  0.2153371E-005  0.7167251E+03  0.7818608E-02  0.9689050E-01
          2   -1    0    0  501    0  0.00000000000E+00  0.00000000000E+00  0.30826155430E+04  0.30826155430E+04  0.25500000000E-02 0.  1.
         -2   -1    0    0    0  501 -0.00000000000E+00 -0.00000000000E+00 -0.41660632602E+02  0.41660632680E+02  0.25500000000E-02 0. -1.
    5000001    1    1    2    0    0  0.24355012855E+02 -0.21918288788E+03  0.24394663458E+04  0.24566184802E+04  0.18800000000E+03 0.  0.
   -5000001    1    1    2    0    0 -0.24355012855E+02  0.21918288788E+03  0.60148856461E+03  0.66765769549E+03  0.18800000000E+03 0.  0.
<mgrwt>
<rscale>  0 0.71672509E+03</rscale>
<asrwt>0</asrwt>
<pdfrwt beam="1">  1        2 0.44037375E+00 0.71672509E+03</pdfrwt>
<pdfrwt beam="2">  1       -2 0.59515175E-02 0.71672509E+03</pdfrwt>
<totfact> 0.35111974E+02</totfact>
</mgrwt>
</event>
<event>
 4    1  0.2153371E-005  0.6535503E+03  0.7818608E-02  0.9800140E-01
          2   -1    0    0  501    0  0.00000000000E+00  0.00000000000E+00  0.26389166577E+03  0.26389166578E+03  0.25500000000E-02 0.  1.
         -2   -1    0    0    0  501 -0.00000000000E+00 -0.00000000000E+00 -0.40464325858E+03  0.40464325859E+03  0.25500000000E-02 0. -1.
    5000001    1    1    2    0    0 -0.34863261255E+02  0.19266467929E+03 -0.25648928817E+03  0.37345130951E+03  0.18800000000E+03 0.  0.
   -5000001    1    1    2    0    0  0.34863261255E+02 -0.19266467929E+03  0.11573769536E+03  0.29508361486E+03  0.18800000000E+03 0.  0.
<mgrwt>
<rscale>  0 0.65355025E+03</rscale>
<asrwt>0</asrwt>
<pdfrwt beam="1">  1        2 0.37698809E-01 0.65355025E+03</pdfrwt>
<pdfrwt beam="2">  1       -2 0.57806180E-01 0.65355025E+03</pdfrwt>
<totfact> 0.38898591E+02</totfact>
</mgrwt>
</event>
<event>
 4    1  0.2153371E-005  0.6244708E+03  0.7818608E-02  0.9855898E-01
          2   -1    0    0  501    0  0.00000000000E+00  0.00000000000E+00  0.15290423783E+04  0.15290423783E+04  0.25500000000E-02 0.  1.
         -2   -1    0    0    0  501 -0.00000000000E+00 -0.00000000000E+00 -0.63759487816E+02  0.63759487867E+02  0.25500000000E-02 0. -1.
    5000001    1    1    2    0    0 -0.21909530213E+03  0.10258967682E+03  0.88609530717E+03  0.93756935029E+03  0.18800000000E+03 0.  0.
   -5000001    1    1    2    0    0  0.21909530213E+03 -0.10258967682E+03  0.57918758331E+03  0.65523251588E+03  0.18800000000E+03 0.  0.
<mgrwt>
<rscale>  0 0.62447084E+03</rscale>
<asrwt>0</asrwt>
<pdfrwt beam="1">  1        2 0.21843462E+00 0.62447084E+03</pdfrwt>
<pdfrwt beam="2">  1       -2 0.91084987E-02 0.62447084E+03</pdfrwt>
<totfact> 0.11431823E+03</totfact>
</mgrwt>
</event>
<event>
 4    1  0.2153371E-005  0.5621232E+03  0.7818608E-02  0.9987262E-01
          2   -1    0    0  501    0  0.00000000000E+00  0.00000000000E+00  0.48282830921E+03  0.48282830921E+03  0.25500000000E-02 0.  1.
         -2   -1    0    0    0  501 -0.00000000000E+00 -0.00000000000E+00 -0.16361015745E+03  0.16361015747E+03  0.25500000000E-02 0. -1.
    5000001    1    1    2    0    0 -0.19381262637E+03 -0.76989446404E+02  0.14502151210E+03  0.31601574007E+03  0.18800000000E+03 0.  0.
   -5000001    1    1    2    0    0  0.19381262637E+03  0.76989446404E+02  0.17419663966E+03  0.33042272662E+03  0.18800000000E+03 0.  0.
<mgrwt>
<rscale>  0 0.56212317E+03</rscale>
<asrwt>0</asrwt>
<pdfrwt beam="1">  1        2 0.68975473E-01 0.56212317E+03</pdfrwt>
<pdfrwt beam="2">  1       -2 0.23372879E-01 0.56212317E+03</pdfrwt>
<totfact> 0.11318579E+03</totfact>
</mgrwt>
</event>
<event>
 4    1  0.2153371E-005  0.6014210E+03  0.7818608E-02  0.9902462E-01
          2   -1    0    0  501    0  0.00000000000E+00  0.00000000000E+00  0.23678111525E+03  0.23678111526E+03  0.25500000000E-02 0.  1.
         -2   -1    0    0    0  501 -0.00000000000E+00 -0.00000000000E+00 -0.38190042023E+03  0.38190042024E+03  0.25500000000E-02 0. -1.
    5000001    1    1    2    0    0  0.43970330501E+02 -0.20422004031E+03  0.37485205432E+02  0.28352840326E+03  0.18800000000E+03 0.  0.
   -5000001    1    1    2    0    0 -0.43970330501E+02  0.20422004031E+03 -0.18260451042E+03  0.33515313225E+03  0.18800000000E+03 0.  0.
<mgrwt>
<rscale>  0 0.60142101E+03</rscale>
<asrwt>0</asrwt>
<pdfrwt beam="1">  1        2 0.33825874E-01 0.60142101E+03</pdfrwt>
<pdfrwt beam="2">  1       -2 0.54557203E-01 0.60142101E+03</pdfrwt>
<totfact> 0.49539720E+02</totfact>
</mgrwt>
</event>
<event>
 4    1  0.2153371E-005  0.6047151E+03  0.7818608E-02  0.9895672E-01
          2   -1    0    0  501    0  0.00000000000E+00  0.00000000000E+00  0.12461112559E+04  0.12461112559E+04  0.25500000000E-02 0.  1.
         -2   -1    0    0    0  501 -0.00000000000E+00 -0.00000000000E+00 -0.73364310252E+02  0.73364310296E+02  0.25500000000E-02 0. -1.
    5000001    1    1    2    0    0 -0.69848091928E+02  0.22622367713E+03  0.57657039272E+03  0.65102482733E+03  0.18800000000E+03 0.  0.
   -5000001    1    1    2    0    0  0.69848091928E+02 -0.22622367713E+03  0.59617655297E+03  0.66845073891E+03  0.18800000000E+03 0.  0.
<mgrwt>
<rscale>  0 0.60471512E+03</rscale>
<asrwt>0</asrwt>
<pdfrwt beam="1">  1        2 0.17801589E+00 0.60471512E+03</pdfrwt>
<pdfrwt beam="2">  1       -2 0.10480616E-01 0.60471512E+03</pdfrwt>
<totfact> 0.12907344E+03</totfact>
</mgrwt>
</event>
<event>
 4    1  0.2153371E-005  0.8377445E+03  0.7818608E-02  0.9506935E-01
          2   -1    0    0  501    0  0.00000000000E+00  0.00000000000E+00  0.11443736488E+04  0.11443736488E+04  0.25500000000E-02 0.  1.
         -2   -1    0    0    0  501 -0.00000000000E+00 -0.00000000000E+00 -0.15331875804E+03  0.15331875806E+03  0.25500000000E-02 0. -1.
    5000001    1    1    2    0    0  0.34203416918E+03 -0.15500083845E+01  0.73106259084E+03  0.82872570078E+03  0.18800000000E+03 0.  0.
   -5000001    1    1    2    0    0 -0.34203416918E+03  0.15500083845E+01  0.25999229996E+03  0.46896670612E+03  0.18800000000E+03 0.  0.
<mgrwt>
<rscale>  0 0.83774446E+03</rscale>
<asrwt>0</asrwt>
<pdfrwt beam="1">  1        2 0.16348195E+00 0.83774446E+03</pdfrwt>
<pdfrwt beam="2">  1       -2 0.21902679E-01 0.83774446E+03</pdfrwt>
<totfact> 0.41902976E+02</totfact>
</mgrwt>
</event>
<event>
 4    1  0.2153371E-005  0.4574030E+03  0.7818608E-02  0.1025537E+00
          2   -1    0    0  501    0  0.00000000000E+00  0.00000000000E+00  0.14161846993E+03  0.14161846995E+03  0.25500000000E-02 0.  1.
         -2   -1    0    0    0  501 -0.00000000000E+00 -0.00000000000E+00 -0.36933294211E+03  0.36933294212E+03  0.25500000000E-02 0. -1.
    5000001    1    1    2    0    0 -0.10284516046E+03 -0.69943920730E+02 -0.15699246832E+03  0.27469967999E+03  0.18800000000E+03 0.  0.
   -5000001    1    1    2    0    0  0.10284516046E+03  0.69943920730E+02 -0.70722003857E+02  0.23625173207E+03  0.18800000000E+03 0.  0.
<mgrwt>
<rscale>  0 0.45740296E+03</rscale>
<asrwt>0</asrwt>
<pdfrwt beam="1">  1        2 0.20231210E-01 0.45740296E+03</pdfrwt>
<pdfrwt beam="2">  1       -2 0.52761849E-01 0.45740296E+03</pdfrwt>
<totfact> 0.95184374E+02</totfact>
</mgrwt>
</event>
<event>
 4    1  0.2153371E-005  0.8786346E+03  0.7818608E-02  0.9452691E-01
         -2   -1    0    0    0  501 -0.00000000000E+00  0.00000000000E+00  0.27620047294E+03  0.27620047295E+03  0.25500000000E-02 0. -1.
          2   -1    0    0  501    0  0.00000000000E+00 -0.00000000000E+00 -0.69876662521E+03  0.69876662521E+03  0.25500000000E-02 0.  1.
    5000001    1    1    2    0    0  0.36990453771E+03  0.78119516267E+02 -0.76638343034E+02  0.42912639334E+03  0.18800000000E+03 0.  0.
   -5000001    1    1    2    0    0 -0.36990453771E+03 -0.78119516267E+02 -0.34592780923E+03  0.54584070482E+03  0.18800000000E+03 0.  0.
<mgrwt>
<rscale>  0 0.87863456E+03</rscale>
<asrwt>0</asrwt>
<pdfrwt beam="1">  1        2 0.99823803E-01 0.87863456E+03</pdfrwt>
<pdfrwt beam="2">  1       -2 0.39457211E-01 0.87863456E+03</pdfrwt>
<totfact> 0.27458387E+02</totfact>
</mgrwt>
</event>
<event>
 4    1  0.2153371E-005  0.6673492E+03  0.7818608E-02  0.9774758E-01
          2   -1    0    0  501    0  0.00000000000E+00  0.00000000000E+00  0.44868530329E+03  0.44868530330E+03  0.25500000000E-02 0.  1.
         -2   -1    0    0    0  501 -0.00000000000E+00 -0.00000000000E+00 -0.24814439479E+03  0.24814439481E+03  0.25500000000E-02 0. -1.
    5000001    1    1    2    0    0  0.21761625585E+03  0.92748840971E+02  0.24807039148E+03  0.39095025443E+03  0.18800000000E+03 0.  0.
   -5000001    1    1    2    0    0 -0.21761625585E+03 -0.92748840971E+02 -0.47529482977E+02  0.30587944368E+03  0.18800000000E+03 0.  0.
<mgrwt>
<rscale>  0 0.66734921E+03</rscale>
<asrwt>0</asrwt>
<pdfrwt beam="1">  1        2 0.64097900E-01 0.66734921E+03</pdfrwt>
<pdfrwt beam="2">  1       -2 0.35449200E-01 0.66734921E+03</pdfrwt>
<totfact> 0.57117588E+02</totfact>
</mgrwt>
</event>
<event>
 4    1  0.2153371E-005  0.1408164E+04  0.7818608E-02  0.8947930E-01
          2   -1    0    0  501    0  0.00000000000E+00  0.00000000000E+00  0.73846202141E+03  0.73846202141E+03  0.25500000000E-02 0.  1.
         -2   -1    0    0    0  501 -0.00000000000E+00 -0.00000000000E+00 -0.67130264355E+03  0.67130264355E+03  0.25500000000E-02 0. -1.
    5000001    1    1    2    0    0 -0.57564777610E+03 -0.19038995762E+03  0.33850561737E+03  0.71940861205E+03  0.18800000000E+03 0.  0.
   -5000001    1    1    2    0    0  0.57564777610E+03  0.19038995762E+03 -0.27134623952E+03  0.69035605292E+03  0.18800000000E+03 0.  0.
<mgrwt>
<rscale>  0 0.14081641E+04</rscale>
<asrwt>0</asrwt>
<pdfrwt beam="1">  1        2 0.10549457E+00 0.14081641E+04</pdfrwt>
<pdfrwt beam="2">  1       -2 0.95900378E-01 0.14081641E+04</pdfrwt>
<totfact> 0.37405235E+01</totfact>
</mgrwt>
</event>
<event>
 4    1  0.2153371E-005  0.5419041E+03  0.7818608E-02  0.1003385E+00
         -2   -1    0    0    0  501 -0.00000000000E+00  0.00000000000E+00  0.67565900448E+02  0.67565900496E+02  0.25500000000E-02 0. -1.
          2   -1    0    0  501    0  0.00000000000E+00 -0.00000000000E+00 -0.10865691287E+04  0.10865691287E+04  0.25500000000E-02 0.  1.
    5000001    1    1    2    0    0 -0.12054255641E+03 -0.14642736108E+03 -0.60708961178E+03  0.66322942991E+03  0.18800000000E+03 0.  0.
   -5000001    1    1    2    0    0  0.12054255641E+03  0.14642736108E+03 -0.41191361652E+03  0.49090559933E+03  0.18800000000E+03 0.  0.
<mgrwt>
<rscale>  0 0.54190413E+03</rscale>
<asrwt>0</asrwt>
<pdfrwt beam="1">  1        2 0.15522415E+00 0.54190413E+03</pdfrwt>
<pdfrwt beam="2">  1       -2 0.96522721E-02 0.54190413E+03</pdfrwt>
<totfact> 0.18185972E+03</totfact>
</mgrwt>
</event>
<event>
 4    1  0.2153371E-005  0.8738625E+03  0.7818608E-02  0.9458858E-01
          2   -1    0    0  501    0  0.00000000000E+00  0.00000000000E+00  0.54349323210E+03  0.54349323211E+03  0.25500000000E-02 0.  1.
         -2   -1    0    0    0  501 -0.00000000000E+00 -0.00000000000E+00 -0.35126272382E+03  0.35126272383E+03  0.25500000000E-02 0. -1.
    5000001    1    1    2    0    0 -0.19683199170E+03 -0.33860743232E+03  0.14378026150E+03  0.45761838881E+03  0.18800000000E+03 0.  0.
   -5000001    1    1    2    0    0  0.19683199170E+03  0.33860743232E+03  0.48450246781E+02  0.43713756713E+03  0.18800000000E+03 0.  0.
<mgrwt>
<rscale>  0 0.87386249E+03</rscale>
<asrwt>0</asrwt>
<pdfrwt beam="1">  1        2 0.77641890E-01 0.87386249E+03</pdfrwt>
<pdfrwt beam="2">  1       -2 0.50180389E-01 0.87386249E+03</pdfrwt>
<totfact> 0.22988806E+02</totfact>
</mgrwt>
</event>
<event>
 4    1  0.2153371E-005  0.5288340E+03  0.7818608E-02  0.1006515E+00
         -2   -1    0    0    0  501 -0.00000000000E+00  0.00000000000E+00  0.11648506056E+03  0.11648506059E+03  0.25500000000E-02 0.  1.
          2   -1    0    0  501    0  0.00000000000E+00 -0.00000000000E+00 -0.60021729413E+03  0.60021729414E+03  0.25500000000E-02 0. -1.
    5000001    1    1    2    0    0 -0.64464078083E+01  0.18549993504E+03 -0.25674709638E+03  0.36839496953E+03  0.18800000000E+03 0.  0.
   -5000001    1    1    2    0    0  0.64464078083E+01 -0.18549993504E+03 -0.22698513720E+03  0.34830738520E+03  0.18800000000E+03 0.  0.
<mgrwt>
<rscale>  0 0.52883399E+03</rscale>
<asrwt>0</asrwt>
<pdfrwt beam="1">  1        2 0.85745326E-01 0.52883399E+03</pdfrwt>
<pdfrwt beam="2">  1       -2 0.16640723E-01 0.52883399E+03</pdfrwt>
<totfact> 0.15896117E+03</totfact>
</mgrwt>
</event>
<event>
 4    1  0.2153371E-005  0.4623062E+03  0.7818608E-02  0.1024114E+00
         -2   -1    0    0    0  501 -0.00000000000E+00  0.00000000000E+00  0.16098852696E+03  0.16098852698E+03  0.25500000000E-02 0. -1.
          2   -1    0    0  501    0  0.00000000000E+00 -0.00000000000E+00 -0.33189796925E+03  0.33189796926E+03  0.25500000000E-02 0.  1.
    5000001    1    1    2    0    0  0.59053766134E+02 -0.92618944163E+02 -0.16819041511E+03  0.27513202621E+03  0.18800000000E+03 0.  0.
   -5000001    1    1    2    0    0 -0.59053766134E+02  0.92618944163E+02 -0.27190271833E+01  0.21775447004E+03  0.18800000000E+03 0.  0.
<mgrwt>
<rscale>  0 0.46230624E+03</rscale>
<asrwt>0</asrwt>
<pdfrwt beam="1">  1        2 0.47413996E-01 0.46230624E+03</pdfrwt>
<pdfrwt beam="2">  1       -2 0.22998361E-01 0.46230624E+03</pdfrwt>
<totfact> 0.17637511E+03</totfact>
</mgrwt>
</event>
<event>
 4    1  0.2153371E-005  0.6464782E+03  0.7818608E-02  0.9813410E-01
          2   -1    0    0  501    0  0.00000000000E+00  0.00000000000E+00  0.12954601920E+04  0.12954601920E+04  0.25500000000E-02 0.  1.
         -2   -1    0    0    0  501 -0.00000000000E+00 -0.00000000000E+00 -0.80653584898E+02  0.80653584938E+02  0.25500000000E-02 0. -1.
    5000001    1    1    2    0    0 -0.20886861538E+03  0.32904160794E+02  0.94011545484E+03  0.98176873586E+03  0.18800000000E+03 0.  0.
   -5000001    1    1    2    0    0  0.20886861538E+03 -0.32904160794E+02  0.27469115226E+03  0.39434504107E+03  0.18800000000E+03 0.  0.
<mgrwt>
<rscale>  0 0.64647818E+03</rscale>
<asrwt>0</asrwt>
<pdfrwt beam="1">  1        2 0.18506576E+00 0.64647818E+03</pdfrwt>
<pdfrwt beam="2">  1       -2 0.11521940E-01 0.64647818E+03</pdfrwt>
<totfact> 0.10372896E+03</totfact>
</mgrwt>
</event>
<event>
 4    1  0.2153371E-005  0.1011834E+04  0.7818608E-02  0.9295660E-01
         -2   -1    0    0    0  501 -0.00000000000E+00  0.00000000000E+00  0.72513737784E+02  0.72513737829E+02  0.25500000000E-02 0. -1.
          2   -1    0    0  501    0  0.00000000000E+00 -0.00000000000E+00 -0.35297014037E+04  0.35297014037E+04  0.25500000000E-02 0.  1.
    5000001    1    1    2    0    0 -0.44512431397E+03  0.14917295058E+03 -0.17813525882E+04  0.18517422250E+04  0.18800000000E+03 0.  0.
   -5000001    1    1    2    0    0  0.44512431397E+03 -0.14917295058E+03 -0.16758350777E+04  0.17504729166E+04  0.18800000000E+03 0.  0.
<mgrwt>
<rscale>  0 0.10118337E+04</rscale>
<asrwt>0</asrwt>
<pdfrwt beam="1">  1        2 0.50424295E+00 0.10118337E+04</pdfrwt>
<pdfrwt beam="2">  1       -2 0.10359108E-01 0.10118337E+04</pdfrwt>
<totfact> 0.77201254E+01</totfact>
</mgrwt>
</event>
<event>
 4    1  0.2153371E-005  0.4326540E+03  0.7818608E-02  0.1033025E+00
          2   -1    0    0  501    0  0.00000000000E+00  0.00000000000E+00  0.32287210917E+03  0.32287210918E+03  0.25500000000E-02 0.  1.
         -2   -1    0    0    0  501 -0.00000000000E+00 -0.00000000000E+00 -0.14494089525E+03  0.14494089528E+03  0.25500000000E-02 0. -1.
    5000001    1    1    2    0    0  0.52104712657E+02  0.74413048044E+02  0.15014228808E+03  0.25717486166E+03  0.18800000000E+03 0.  0.
   -5000001    1    1    2    0    0 -0.52104712657E+02 -0.74413048044E+02  0.27788925835E+02  0.21063814279E+03  0.18800000000E+03 0.  0.
<mgrwt>
<rscale>  0 0.43265401E+03</rscale>
<asrwt>0</asrwt>
<pdfrwt beam="1">  1        2 0.46124587E-01 0.43265401E+03</pdfrwt>
<pdfrwt beam="2">  1       -2 0.20705842E-01 0.43265401E+03</pdfrwt>
<totfact> 0.21831554E+03</totfact>
</mgrwt>
</event>
<event>
 4    1  0.2153371E-005  0.8159952E+03  0.7818608E-02  0.9537149E-01
          2   -1    0    0  501    0  0.00000000000E+00  0.00000000000E+00  0.10376788321E+04  0.10376788321E+04  0.25500000000E-02 0.  1.
         -2   -1    0    0    0  501 -0.00000000000E+00 -0.00000000000E+00 -0.16041768403E+03  0.16041768405E+03  0.25500000000E-02 0. -1.
    5000001    1    1    2    0    0 -0.20359575220E+03  0.12958672168E+03  0.42269705805E+02  0.30882790803E+03  0.18800000000E+03 0.  0.
   -5000001    1    1    2    0    0  0.20359575220E+03 -0.12958672168E+03  0.83499144223E+03  0.88926860810E+03  0.18800000000E+03 0.  0.
<mgrwt>
<rscale>  0 0.81599518E+03</rscale>
<asrwt>0</asrwt>
<pdfrwt beam="1">  1        2 0.14823984E+00 0.81599518E+03</pdfrwt>
<pdfrwt beam="2">  1       -2 0.22916811E-01 0.81599518E+03</pdfrwt>
<totfact> 0.44741514E+02</totfact>
</mgrwt>
</event>
<event>
 4    1  0.2153371E-005  0.6516725E+03  0.7818608E-02  0.9803646E-01
          2   -1    0    0  501    0  0.00000000000E+00  0.00000000000E+00  0.40419589858E+03  0.40419589859E+03  0.25500000000E-02 0.  1.
         -2   -1    0    0    0  501 -0.00000000000E+00 -0.00000000000E+00 -0.26266785943E+03  0.26266785944E+03  0.25500000000E-02 0. -1.
    5000001    1    1    2    0    0  0.19845318116E+03  0.10226755592E+03  0.21899569213E+03  0.36489098547E+03  0.18800000000E+03 0.  0.
   -5000001    1    1    2    0    0 -0.19845318116E+03 -0.10226755592E+03 -0.77467652975E+02  0.30197277256E+03  0.18800000000E+03 0.  0.
<mgrwt>
<rscale>  0 0.65167253E+03</rscale>
<asrwt>0</asrwt>
<pdfrwt beam="1">  1        2 0.57742271E-01 0.65167253E+03</pdfrwt>
<pdfrwt beam="2">  1       -2 0.37523980E-01 0.65167253E+03</pdfrwt>
<totfact> 0.57604632E+02</totfact>
</mgrwt>
</event>
<event>
 4    1  0.2153371E-005  0.6912821E+03  0.7818608E-02  0.9732258E-01
          2   -1    0    0  501    0  0.00000000000E+00  0.00000000000E+00  0.56546672638E+02  0.56546672695E+02  0.25500000000E-02 0.  1.
         -2   -1    0    0    0  501 -0.00000000000E+00 -0.00000000000E+00 -0.21127279034E+04  0.21127279034E+04  0.25500000000E-02 0. -1.
    5000001    1    1    2    0    0  0.21693175836E+03 -0.16983109752E+03 -0.13126292129E+04  0.13543416999E+04  0.18800000000E+03 0.  0.
   -5000001    1    1    2    0    0 -0.21693175836E+03  0.16983109752E+03 -0.74355201782E+03  0.81493287618E+03  0.18800000000E+03 0.  0.
<mgrwt>
<rscale>  0 0.69128209E+03</rscale>
<asrwt>0</asrwt>
<pdfrwt beam="1">  1        2 0.80780974E-02 0.69128209E+03</pdfrwt>
<pdfrwt beam="2">  1       -2 0.30181822E+00 0.69128209E+03</pdfrwt>
<totfact> 0.28403560E+01</totfact>
</mgrwt>
</event>
<event>
 4    1  0.2153371E-005  0.5865016E+03  0.7818608E-02  0.9933814E-01
         -2   -1    0    0    0  501 -0.00000000000E+00  0.00000000000E+00  0.54493853570E+03  0.54493853571E+03  0.25500000000E-02 0. -1.
          2   -1    0    0  501    0  0.00000000000E+00 -0.00000000000E+00 -0.15780867102E+03  0.15780867104E+03  0.25500000000E-02 0.  1.
    5000001    1    1    2    0    0  0.18724996774E+03  0.12119653565E+03  0.22952846255E+03  0.37118521764E+03  0.18800000000E+03 0.  0.
   -5000001    1    1    2    0    0 -0.18724996774E+03 -0.12119653565E+03  0.15760140213E+03  0.33156198911E+03  0.18800000000E+03 0.  0.
<mgrwt>
<rscale>  0 0.58650158E+03</rscale>
<asrwt>0</asrwt>
<pdfrwt beam="1">  1        2 0.22544096E-01 0.58650158E+03</pdfrwt>
<pdfrwt beam="2">  1       -2 0.77848362E-01 0.58650158E+03</pdfrwt>
<totfact> 0.36661486E+02</totfact>
</mgrwt>
</event>
<event>
 4    1  0.2153371E-005  0.1914089E+04  0.7818608E-02  0.8647875E-01
         -2   -1    0    0    0  501 -0.00000000000E+00  0.00000000000E+00  0.16775319692E+04  0.16775319692E+04  0.25500000000E-02 0. -1.
          2   -1    0    0  501    0  0.00000000000E+00 -0.00000000000E+00 -0.54600093197E+03  0.54600093197E+03  0.25500000000E-02 0.  1.
    5000001    1    1    2    0    0  0.89597744049E+03  0.22482684488E+03  0.75758946117E+03  0.12093835106E+04  0.18800000000E+03 0.  0.
   -5000001    1    1    2    0    0 -0.89597744049E+03 -0.22482684488E+03  0.37394157602E+03  0.10141493905E+04  0.18800000000E+03 0.  0.
<mgrwt>
<rscale>  0 0.19140888E+04</rscale>
<asrwt>0</asrwt>
<pdfrwt beam="1">  1        2 0.78000134E-01 0.19140888E+04</pdfrwt>
<pdfrwt beam="2">  1       -2 0.23964742E+00 0.19140888E+04</pdfrwt>
<totfact> 0.42351592E+00</totfact>
</mgrwt>
</event>
<event>
 4    1  0.2153371E-005  0.7058423E+03  0.7818608E-02  0.9707293E-01
         -2   -1    0    0    0  501 -0.00000000000E+00  0.00000000000E+00  0.32306308438E+03  0.32306308439E+03  0.25500000000E-02 0. -1.
          2   -1    0    0  501    0  0.00000000000E+00 -0.00000000000E+00 -0.38553870334E+03  0.38553870335E+03  0.25500000000E-02 0.  1.
    5000001    1    1    2    0    0 -0.18618651717E+03 -0.14183938065E+03  0.15502865748E+03  0.33787825281E+03  0.18800000000E+03 0.  0.
   -5000001    1    1    2    0    0  0.18618651717E+03  0.14183938065E+03 -0.21750427645E+03  0.37072353493E+03  0.18800000000E+03 0.  0.
<mgrwt>
<rscale>  0 0.70584226E+03</rscale>
<asrwt>0</asrwt>
<pdfrwt beam="1">  1        2 0.55076958E-01 0.70584226E+03</pdfrwt>
<pdfrwt beam="2">  1       -2 0.46151869E-01 0.70584226E+03</pdfrwt>
<totfact> 0.40424860E+02</totfact>
</mgrwt>
</event>
<event>
 4    1  0.2153371E-005  0.4914922E+03  0.7818608E-02  0.1016024E+00
          2   -1    0    0  501    0  0.00000000000E+00  0.00000000000E+00  0.90136057949E+03  0.90136057949E+03  0.25500000000E-02 0. -1.
         -2   -1    0    0    0  501 -0.00000000000E+00 -0.00000000000E+00 -0.66999984090E+02  0.66999984139E+02  0.25500000000E-02 0.  1.
    5000001    1    1    2    0    0  0.89274106597E+02 -0.92569455374E+02  0.23544526278E+03  0.32759340949E+03  0.18800000000E+03 0.  0.
   -5000001    1    1    2    0    0 -0.89274106597E+02  0.92569455374E+02  0.59891533262E+03  0.64076715414E+03  0.18800000000E+03 0.  0.
<mgrwt>
<rscale>  0 0.49149220E+03</rscale>
<asrwt>0</asrwt>
<pdfrwt beam="1">  1        2 0.12876580E+00 0.49149220E+03</pdfrwt>
<pdfrwt beam="2">  1       -2 0.95714260E-02 0.49149220E+03</pdfrwt>
<totfact> 0.23909342E+03</totfact>
</mgrwt>
</event>
<event>
 4    1  0.2153371E-005  0.4392959E+03  0.7818608E-02  0.1030963E+00
          2   -1    0    0  501    0  0.00000000000E+00  0.00000000000E+00  0.16373935762E+04  0.16373935762E+04  0.25500000000E-02 0.  1.
         -2   -1    0    0    0  501 -0.00000000000E+00 -0.00000000000E+00 -0.29464649851E+02  0.29464649961E+02  0.25500000000E-02 0. -1.
    5000001    1    1    2    0    0 -0.40426681301E+02  0.31826627503E+02  0.11881912754E+04  0.12040721564E+04  0.18800000000E+03 0.  0.
   -5000001    1    1    2    0    0  0.40426681301E+02 -0.31826627503E+02  0.41973765092E+03  0.46278606978E+03  0.18800000000E+03 0.  0.
<mgrwt>
<rscale>  0 0.43929593E+03</rscale>
<asrwt>0</asrwt>
<pdfrwt beam="1">  1        2 0.23391334E+00 0.43929593E+03</pdfrwt>
<pdfrwt beam="2">  1       -2 0.42092362E-02 0.43929593E+03</pdfrwt>
<totfact> 0.33861156E+03</totfact>
</mgrwt>
</event>
<event>
 4    1  0.2153371E-005  0.4672759E+03  0.7818608E-02  0.1022692E+00
         -2   -1    0    0    0  501 -0.00000000000E+00  0.00000000000E+00  0.18712098885E+02  0.18712099059E+02  0.25500000000E-02 0. -1.
          2   -1    0    0  501    0  0.00000000000E+00 -0.00000000000E+00 -0.29171875132E+04  0.29171875132E+04  0.25500000000E-02 0.  1.
    5000001    1    1    2    0    0  0.12749739595E+03 -0.34174445461E+02 -0.17172228529E+04  0.17325189192E+04  0.18800000000E+03 0.  0.
   -5000001    1    1    2    0    0 -0.12749739595E+03  0.34174445461E+02 -0.11812525614E+04  0.12033806930E+04  0.18800000000E+03 0.  0.
<mgrwt>
<rscale>  0 0.46727594E+03</rscale>
<asrwt>0</asrwt>
<pdfrwt beam="1">  1        2 0.41674078E+00 0.46727594E+03</pdfrwt>
<pdfrwt beam="2">  1       -2 0.26731589E-02 0.46727594E+03</pdfrwt>
<totfact> 0.15119153E+03</totfact>
</mgrwt>
</event>
<event>
 4    1  0.2153371E-005  0.4877417E+03  0.7818608E-02  0.1017029E+00
         -2   -1    0    0    0  501 -0.00000000000E+00  0.00000000000E+00  0.33629138844E+03  0.33629138845E+03  0.25500000000E-02 0. -1.
          2   -1    0    0  501    0  0.00000000000E+00 -0.00000000000E+00 -0.17684955611E+03  0.17684955613E+03  0.25500000000E-02 0.  1.
    5000001    1    1    2    0    0 -0.42198029448E+02 -0.14731022382E+02 -0.76792054875E+02  0.20793916515E+03  0.18800000000E+03 0.  0.
   -5000001    1    1    2    0    0  0.42198029448E+02  0.14731022382E+02  0.23623388720E+03  0.30520177944E+03  0.18800000000E+03 0.  0.
<mgrwt>
<rscale>  0 0.48774166E+03</rscale>
<asrwt>0</asrwt>
<pdfrwt beam="1">  1        2 0.25264222E-01 0.48774166E+03</pdfrwt>
<pdfrwt beam="2">  1       -2 0.48041627E-01 0.48774166E+03</pdfrwt>
<totfact> 0.89142133E+02</totfact>
</mgrwt>
</event>
<event>
 4    1  0.2153371E-005  0.5630529E+03  0.7818608E-02  0.9985170E-01
         -2   -1    0    0    0  501 -0.00000000000E+00  0.00000000000E+00  0.28305695685E+02  0.28305695800E+02  0.25500000000E-02 0. -1.
          2   -1    0    0  501    0  0.00000000000E+00 -0.00000000000E+00 -0.28000424078E+04  0.28000424078E+04  0.25500000000E-02 0.  1.
    5000001    1    1    2    0    0 -0.88572421008E+02 -0.17570424807E+03 -0.10237737503E+04  0.10593270261E+04  0.18800000000E+03 0.  0.
   -5000001    1    1    2    0    0  0.88572421008E+02  0.17570424807E+03 -0.17479629619E+04  0.17690210775E+04  0.18800000000E+03 0.  0.
<mgrwt>
<rscale>  0 0.56305292E+03</rscale>
<asrwt>0</asrwt>
<pdfrwt beam="1">  1        2 0.40000588E+00 0.56305292E+03</pdfrwt>
<pdfrwt beam="2">  1       -2 0.40436726E-02 0.56305292E+03</pdfrwt>
<totfact> 0.92260883E+02</totfact>
</mgrwt>
</event>
<event>
 4    1  0.2153371E-005  0.7625869E+03  0.7818608E-02  0.9615808E-01
         -2   -1    0    0    0  501 -0.00000000000E+00  0.00000000000E+00  0.20370178763E+03  0.20370178764E+03  0.25500000000E-02 0. -1.
          2   -1    0    0  501    0  0.00000000000E+00 -0.00000000000E+00 -0.71371343674E+03  0.71371343675E+03  0.25500000000E-02 0.  1.
    5000001    1    1    2    0    0 -0.18883786187E+02 -0.29860563895E+03 -0.82679217902E+02  0.36290739599E+03  0.18800000000E+03 0.  0.
   -5000001    1    1    2    0    0  0.18883786187E+02  0.29860563895E+03 -0.42733243121E+03  0.55450782840E+03  0.18800000000E+03 0.  0.
<mgrwt>
<rscale>  0 0.76258692E+03</rscale>
<asrwt>0</asrwt>
<pdfrwt beam="1">  1        2 0.10195906E+00 0.76258692E+03</pdfrwt>
<pdfrwt beam="2">  1       -2 0.29100256E-01 0.76258692E+03</pdfrwt>
<totfact> 0.47833742E+02</totfact>
</mgrwt>
</event>
<event>
 4    1  0.2153371E-005  0.5006130E+03  0.7818608E-02  0.1013619E+00
         -2   -1    0    0    0  501 -0.00000000000E+00  0.00000000000E+00  0.33339799352E+02  0.33339799450E+02  0.25500000000E-02 0. -1.
          2   -1    0    0  501    0  0.00000000000E+00 -0.00000000000E+00 -0.18792356880E+04  0.18792356880E+04  0.25500000000E-02 0.  1.
    5000001    1    1    2    0    0  0.11515418138E+03  0.28515084361E+02 -0.13624801213E+04  0.13804961704E+04  0.18800000000E+03 0.  0.
   -5000001    1    1    2    0    0 -0.11515418138E+03 -0.28515084361E+02 -0.48341576737E+03  0.53207931708E+03  0.18800000000E+03 0.  0.
<mgrwt>
<rscale>  0 0.50061299E+03</rscale>
<asrwt>0</asrwt>
<pdfrwt beam="1">  1        2 0.26846217E+00 0.50061299E+03</pdfrwt>
<pdfrwt beam="2">  1       -2 0.47628297E-02 0.50061299E+03</pdfrwt>
<totfact> 0.21147307E+03</totfact>
</mgrwt>
</event>
<event>
 4    1  0.2153371E-005  0.5666538E+03  0.7818608E-02  0.9977111E-01
         -2   -1    0    0    0  501 -0.00000000000E+00  0.00000000000E+00  0.38088491650E+02  0.38088491735E+02  0.25500000000E-02 0. -1.
          2   -1    0    0  501    0  0.00000000000E+00 -0.00000000000E+00 -0.21075694846E+04  0.21075694846E+04  0.25500000000E-02 0.  1.
    5000001    1    1    2    0    0  0.16628710286E+03 -0.81028088409E+02 -0.14266647030E+04  0.14508387665E+04  0.18800000000E+03 0.  0.
   -5000001    1    1    2    0    0 -0.16628710286E+03  0.81028088409E+02 -0.64281628997E+03  0.69481920983E+03  0.18800000000E+03 0.  0.
<mgrwt>
<rscale>  0 0.56665384E+03</rscale>
<asrwt>0</asrwt>
<pdfrwt beam="1">  1        2 0.30108128E+00 0.56665384E+03</pdfrwt>
<pdfrwt beam="2">  1       -2 0.54412144E-02 0.56665384E+03</pdfrwt>
<totfact> 0.13186645E+03</totfact>
</mgrwt>
</event>
<event>
 4    1  0.2153371E-005  0.5531506E+03  0.7818608E-02  0.1000767E+00
          2   -1    0    0  501    0  0.00000000000E+00  0.00000000000E+00  0.46619542099E+03  0.46619542100E+03  0.25500000000E-02 0.  1.
         -2   -1    0    0    0  501 -0.00000000000E+00 -0.00000000000E+00 -0.16408116982E+03  0.16408116984E+03  0.25500000000E-02 0. -1.
    5000001    1    1    2    0    0 -0.69667406160E+02  0.12779442707E+03  0.31205556672E+03  0.39231064195E+03  0.18800000000E+03 0.  0.
   -5000001    1    1    2    0    0  0.69667406160E+02 -0.12779442707E+03 -0.99413155478E+01  0.23796594888E+03  0.18800000000E+03 0.  0.
<mgrwt>
<rscale>  0 0.55315058E+03</rscale>
<asrwt>0</asrwt>
<pdfrwt beam="1">  1        2 0.66599346E-01 0.55315058E+03</pdfrwt>
<pdfrwt beam="2">  1       -2 0.23440167E-01 0.55315058E+03</pdfrwt>
<totfact> 0.11715332E+03</totfact>
</mgrwt>
</event>
<event>
 4    1  0.2153371E-005  0.8384978E+03  0.7818608E-02  0.9505906E-01
         -2   -1    0    0    0  501 -0.00000000000E+00  0.00000000000E+00  0.32201310452E+03  0.32201310453E+03  0.25500000000E-02 0. -1.
          2   -1    0    0  501    0  0.00000000000E+00 -0.00000000000E+00 -0.54584622629E+03  0.54584622629E+03  0.25500000000E-02 0.  1.
    5000001    1    1    2    0    0 -0.18464386336E+03  0.28589870097E+03  0.50400395291E+02  0.39206584056E+03  0.18800000000E+03 0.  0.
   -5000001    1    1    2    0    0  0.18464386336E+03 -0.28589870097E+03 -0.27423351706E+03  0.47579349026E+03  0.18800000000E+03 0.  0.
<mgrwt>
<rscale>  0 0.83849779E+03</rscale>
<asrwt>0</asrwt>
<pdfrwt beam="1">  1        2 0.77978032E-01 0.83849779E+03</pdfrwt>
<pdfrwt beam="2">  1       -2 0.46001872E-01 0.83849779E+03</pdfrwt>
<totfact> 0.27303446E+02</totfact>
</mgrwt>
</event>
<event>
 4    1  0.2153371E-005  0.5531079E+03  0.7818608E-02  0.1000777E+00
         -2   -1    0    0    0  501 -0.00000000000E+00  0.00000000000E+00  0.25099909067E+02  0.25099909197E+02  0.25500000000E-02 0. -1.
          2   -1    0    0  501    0  0.00000000000E+00 -0.00000000000E+00 -0.30471065073E+04  0.30471065073E+04  0.25500000000E-02 0.  1.
    5000001    1    1    2    0    0  0.18350486865E+03 -0.32623325444E+01 -0.10314706199E+04  0.10644060876E+04  0.18800000000E+03 0.  0.
   -5000001    1    1    2    0    0 -0.18350486865E+03  0.32623325444E+01 -0.19905359784E+04  0.20078003289E+04  0.18800000000E+03 0.  0.
<mgrwt>
<rscale>  0 0.55310793E+03</rscale>
<asrwt>0</asrwt>
<pdfrwt beam="1">  1        2 0.43530069E+00 0.55310793E+03</pdfrwt>
<pdfrwt beam="2">  1       -2 0.35857032E-02 0.55310793E+03</pdfrwt>
<totfact> 0.81774050E+02</totfact>
</mgrwt>
</event>
<event>
 4    1  0.2153371E-005  0.5907428E+03  0.7818608E-02  0.9924800E-01
          2   -1    0    0  501    0  0.00000000000E+00  0.00000000000E+00  0.81003390778E+03  0.81003390778E+03  0.25500000000E-02 0.  1.
         -2   -1    0    0    0  501 -0.00000000000E+00 -0.00000000000E+00 -0.10770445330E+03  0.10770445333E+03  0.25500000000E-02 0. -1.
    5000001    1    1    2    0    0 -0.10987671111E+03  0.14469715347E+03  0.56468425681E+03  0.62227202071E+03  0.18800000000E+03 0.  0.
   -5000001    1    1    2    0    0  0.10987671111E+03 -0.14469715347E+03  0.13764519767E+03  0.29546634040E+03  0.18800000000E+03 0.  0.
<mgrwt>
<rscale>  0 0.59074278E+03</rscale>
<asrwt>0</asrwt>
<pdfrwt beam="1">  1        2 0.11571912E+00 0.59074278E+03</pdfrwt>
<pdfrwt beam="2">  1       -2 0.15386351E-01 0.59074278E+03</pdfrwt>
<totfact> 0.12578256E+03</totfact>
</mgrwt>
</event>
<event>
 4    1  0.2153371E-005  0.6451518E+03  0.7818608E-02  0.9815919E-01
         -2   -1    0    0    0  501 -0.00000000000E+00  0.00000000000E+00  0.38056717524E+03  0.38056717525E+03  0.25500000000E-02 0.  1.
          2   -1    0    0  501    0  0.00000000000E+00 -0.00000000000E+00 -0.27342143099E+03  0.27342143100E+03  0.25500000000E-02 0. -1.
    5000001    1    1    2    0    0  0.21219336321E+03 -0.87181126758E+02  0.18213529443E+03  0.34805723341E+03  0.18800000000E+03 0.  0.
   -5000001    1    1    2    0    0 -0.21219336321E+03  0.87181126758E+02 -0.74989550176E+02  0.30593137284E+03  0.18800000000E+03 0.  0.
<mgrwt>
<rscale>  0 0.64515183E+03</rscale>
<asrwt>0</asrwt>
<pdfrwt beam="1">  1        2 0.39060204E-01 0.64515183E+03</pdfrwt>
<pdfrwt beam="2">  1       -2 0.54366739E-01 0.64515183E+03</pdfrwt>
<totfact> 0.42484086E+02</totfact>
</mgrwt>
</event>
<event>
 4    1  0.2153371E-005  0.5873849E+03  0.7818608E-02  0.9931930E-01
         -2   -1    0    0    0  501 -0.00000000000E+00  0.00000000000E+00  0.23249842273E+03  0.23249842275E+03  0.25500000000E-02 0. -1.
          2   -1    0    0  501    0  0.00000000000E+00 -0.00000000000E+00 -0.37099280173E+03  0.37099280174E+03  0.25500000000E-02 0.  1.
    5000001    1    1    2    0    0 -0.53095057732E+02  0.19623468939E+03  0.31335662949E+02  0.27866299045E+03  0.18800000000E+03 0.  0.
   -5000001    1    1    2    0    0  0.53095057732E+02 -0.19623468939E+03 -0.16983004195E+03  0.32482823403E+03  0.18800000000E+03 0.  0.
<mgrwt>
<rscale>  0 0.58738485E+03</rscale>
<asrwt>0</asrwt>
<pdfrwt beam="1">  1        2 0.52998971E-01 0.58738485E+03</pdfrwt>
<pdfrwt beam="2">  1       -2 0.33214061E-01 0.58738485E+03</pdfrwt>
<totfact> 0.79968588E+02</totfact>
</mgrwt>
</event>
<event>
 4    1  0.2153371E-005  0.8067797E+03  0.7818608E-02  0.9550255E-01
          2   -1    0    0  501    0  0.00000000000E+00  0.00000000000E+00  0.24508729165E+03  0.24508729166E+03  0.25500000000E-02 0.  1.
         -2   -1    0    0    0  501 -0.00000000000E+00 -0.00000000000E+00 -0.66394044038E+03  0.66394044039E+03  0.25500000000E-02 0. -1.
    5000001    1    1    2    0    0  0.19798334821E+03  0.20919960844E+02 -0.54318456305E+03  0.60829969625E+03  0.18800000000E+03 0.  0.
   -5000001    1    1    2    0    0 -0.19798334821E+03 -0.20919960844E+02  0.12433141431E+03  0.30072803580E+03  0.18800000000E+03 0.  0.
<mgrwt>
<rscale>  0 0.80677968E+03</rscale>
<asrwt>0</asrwt>
<pdfrwt beam="1">  1        2 0.35012471E-01 0.80677968E+03</pdfrwt>
<pdfrwt beam="2">  1       -2 0.94848633E-01 0.80677968E+03</pdfrwt>
<totfact> 0.14085019E+02</totfact>
</mgrwt>
</event>
<event>
 4    1  0.2153371E-005  0.5468193E+03  0.7818608E-02  0.1002233E+00
          2   -1    0    0  501    0  0.00000000000E+00  0.00000000000E+00  0.18156545553E+04  0.18156545553E+04  0.25500000000E-02 0.  1.
         -2   -1    0    0    0  501 -0.00000000000E+00 -0.00000000000E+00 -0.41171291208E+02  0.41171291287E+02  0.25500000000E-02 0. -1.
    5000001    1    1    2    0    0  0.10851468085E+03  0.16609707018E+03  0.86441974744E+03  0.90660309533E+03  0.18800000000E+03 0.  0.
   -5000001    1    1    2    0    0 -0.10851468085E+03 -0.16609707018E+03  0.91006351660E+03  0.95022275122E+03  0.18800000000E+03 0.  0.
<mgrwt>
<rscale>  0 0.54681932E+03</rscale>
<asrwt>0</asrwt>
<pdfrwt beam="1">  1        2 0.25937925E+00 0.54681932E+03</pdfrwt>
<pdfrwt beam="2">  1       -2 0.58816125E-02 0.54681932E+03</pdfrwt>
<totfact> 0.16377486E+03</totfact>
</mgrwt>
</event>
<event>
 4    1  0.2153371E-005  0.7036706E+03  0.7818608E-02  0.9710976E-01
          2   -1    0    0  501    0  0.00000000000E+00  0.00000000000E+00  0.20302696293E+04  0.20302696293E+04  0.25500000000E-02 0.  1.
         -2   -1    0    0    0  501 -0.00000000000E+00 -0.00000000000E+00 -0.60971248790E+02  0.60971248844E+02  0.25500000000E-02 0. -1.
    5000001    1    1    2    0    0  0.22909535264E+03  0.17849315928E+03  0.79436413869E+03  0.86643111287E+03  0.18800000000E+03 0.  0.
   -5000001    1    1    2    0    0 -0.22909535264E+03 -0.17849315928E+03  0.11749342418E+04  0.12248097653E+04  0.18800000000E+03 0.  0.
<mgrwt>
<rscale>  0 0.70367059E+03</rscale>
<asrwt>0</asrwt>
<pdfrwt beam="1">  1        2 0.29003850E+00 0.70367059E+03</pdfrwt>
<pdfrwt beam="2">  1       -2 0.87101789E-02 0.70367059E+03</pdfrwt>
<totfact> 0.67992631E+02</totfact>
</mgrwt>
</event>
<event>
 4    1  0.2153371E-005  0.4645127E+03  0.7818608E-02  0.1023480E+00
          2   -1    0    0  501    0  0.00000000000E+00  0.00000000000E+00  0.10607327409E+04  0.10607327409E+04  0.25500000000E-02 0.  1.
         -2   -1    0    0    0  501 -0.00000000000E+00 -0.00000000000E+00 -0.50854473644E+02  0.50854473708E+02  0.25500000000E-02 0. -1.
    5000001    1    1    2    0    0 -0.10155040629E+03 -0.45142774601E+02  0.69410339223E+03  0.72764955454E+03  0.18800000000E+03 0.  0.
   -5000001    1    1    2    0    0  0.10155040629E+03  0.45142774601E+02  0.31577487498E+03  0.38393766003E+03  0.18800000000E+03 0.  0.
<mgrwt>
<rscale>  0 0.46451267E+03</rscale>
<asrwt>0</asrwt>
<pdfrwt beam="1">  1        2 0.15153326E+00 0.46451267E+03</pdfrwt>
<pdfrwt beam="2">  1       -2 0.72649242E-02 0.46451267E+03</pdfrwt>
<totfact> 0.29617239E+03</totfact>
</mgrwt>
</event>
<event>
 4    1  0.2153371E-005  0.5911210E+03  0.7818608E-02  0.9924000E-01
          2   -1    0    0  501    0  0.00000000000E+00  0.00000000000E+00  0.41181931099E+04  0.41181931099E+04  0.25500000000E-02 0.  1.
         -2   -1    0    0    0  501 -0.00000000000E+00 -0.00000000000E+00 -0.21212218783E+02  0.21212218936E+02  0.25500000000E-02 0. -1.
    5000001    1    1    2    0    0 -0.65763024174E+02 -0.21337814700E+03  0.23737178176E+04  0.23915968069E+04  0.18800000000E+03 0.  0.
   -5000001    1    1    2    0    0  0.65763024174E+02  0.21337814700E+03  0.17232630735E+04  0.17478085219E+04  0.18800000000E+03 0.  0.
<mgrwt>
<rscale>  0 0.59112101E+03</rscale>
<asrwt>0</asrwt>
<pdfrwt beam="1">  1        2 0.58831390E+00 0.59112101E+03</pdfrwt>
<pdfrwt beam="2">  1       -2 0.30303139E-02 0.59112101E+03</pdfrwt>
<totfact> 0.23480119E+02</totfact>
</mgrwt>
</event>
<event>
 4    1  0.2153371E-005  0.6713988E+03  0.7818608E-02  0.9767434E-01
          2   -1    0    0  501    0  0.00000000000E+00  0.00000000000E+00  0.82177792199E+03  0.82177792200E+03  0.25500000000E-02 0.  1.
         -2   -1    0    0    0  501 -0.00000000000E+00 -0.00000000000E+00 -0.13713447822E+03  0.13713447824E+03  0.25500000000E-02 0. -1.
    5000001    1    1    2    0    0  0.73030395333E+02  0.24265269140E+03  0.50601664975E+03  0.59633096272E+03  0.18800000000E+03 0.  0.
   -5000001    1    1    2    0    0 -0.73030395333E+02 -0.24265269140E+03  0.17862679403E+03  0.36258143751E+03  0.18800000000E+03 0.  0.
<mgrwt>
<rscale>  0 0.67139880E+03</rscale>
<asrwt>0</asrwt>
<pdfrwt beam="1">  1        2 0.11739685E+00 0.67139880E+03</pdfrwt>
<pdfrwt beam="2">  1       -2 0.19590639E-01 0.67139880E+03</pdfrwt>
<totfact> 0.81489438E+02</totfact>
</mgrwt>
</event>
<event>
 4    1  0.2153371E-005  0.4234604E+03  0.7818608E-02  0.1035946E+00
          2   -1    0    0  501    0  0.00000000000E+00  0.00000000000E+00  0.99140831638E+03  0.99140831638E+03  0.25500000000E-02 0.  1.
         -2   -1    0    0    0  501 -0.00000000000E+00 -0.00000000000E+00 -0.45218168578E+02  0.45218168650E+02  0.25500000000E-02 0. -1.
    5000001    1    1    2    0    0 -0.25955267360E+02  0.89569218802E+02  0.40431800292E+03  0.45553635239E+03  0.18800000000E+03 0.  0.
   -5000001    1    1    2    0    0  0.25955267360E+02 -0.89569218802E+02  0.54187214488E+03  0.58109013265E+03  0.18800000000E+03 0.  0.
<mgrwt>
<rscale>  0 0.42346036E+03</rscale>
<asrwt>0</asrwt>
<pdfrwt beam="1">  1        2 0.14162976E+00 0.42346036E+03</pdfrwt>
<pdfrwt beam="2">  1       -2 0.64597383E-02 0.42346036E+03</pdfrwt>
<totfact> 0.39125983E+03</totfact>
</mgrwt>
</event>
<event>
 4    1  0.2153371E-005  0.4707071E+03  0.7818608E-02  0.1021721E+00
         -2   -1    0    0    0  501 -0.00000000000E+00  0.00000000000E+00  0.97670312251E+02  0.97670312284E+02  0.25500000000E-02 0. -1.
          2   -1    0    0  501    0  0.00000000000E+00 -0.00000000000E+00 -0.56712529389E+03  0.56712529389E+03  0.25500000000E-02 0.  1.
    5000001    1    1    2    0    0  0.25540599461E+02  0.83255356887E+02 -0.39240067664E+03  0.44374099168E+03  0.18800000000E+03 0.  0.
   -5000001    1    1    2    0    0 -0.25540599461E+02 -0.83255356887E+02 -0.77054304995E+02  0.22105461449E+03  0.18800000000E+03 0.  0.
<mgrwt>
<rscale>  0 0.47070715E+03</rscale>
<asrwt>0</asrwt>
<pdfrwt beam="1">  1        2 0.81017897E-01 0.47070715E+03</pdfrwt>
<pdfrwt beam="2">  1       -2 0.13952902E-01 0.47070715E+03</pdfrwt>
<totfact> 0.22815187E+03</totfact>
</mgrwt>
</event>
<event>
 4    1  0.2153371E-005  0.4476561E+03  0.7818608E-02  0.1028423E+00
          2   -1    0    0  501    0  0.00000000000E+00  0.00000000000E+00  0.11388732146E+03  0.11388732149E+03  0.25500000000E-02 0.  1.
         -2   -1    0    0    0  501 -0.00000000000E+00 -0.00000000000E+00 -0.43989974515E+03  0.43989974516E+03  0.25500000000E-02 0. -1.
    5000001    1    1    2    0    0 -0.55900846708E+02 -0.90390299544E+02 -0.23577029080E+03  0.31972948087E+03  0.18800000000E+03 0.  0.
   -5000001    1    1    2    0    0  0.55900846708E+02  0.90390299544E+02 -0.90242132893E+02  0.23405758578E+03  0.18800000000E+03 0.  0.
<mgrwt>
<rscale>  0 0.44765613E+03</rscale>
<asrwt>0</asrwt>
<pdfrwt beam="1">  1        2 0.16269618E-01 0.44765613E+03</pdfrwt>
<pdfrwt beam="2">  1       -2 0.62842820E-01 0.44765613E+03</pdfrwt>
<totfact> 0.85569674E+02</totfact>
</mgrwt>
</event>
<event>
 4    1  0.2153371E-005  0.6036407E+03  0.7818608E-02  0.9897881E-01
          2   -1    0    0  501    0  0.00000000000E+00  0.00000000000E+00  0.16062640386E+04  0.16062640386E+04  0.25500000000E-02 0.  1.
         -2   -1    0    0    0  501 -0.00000000000E+00 -0.00000000000E+00 -0.56712673800E+02  0.56712673857E+02  0.25500000000E-02 0. -1.
    5000001    1    1    2    0    0 -0.22939046954E+03 -0.43650149417E+02  0.87124501264E+03  0.92137787857E+03  0.18800000000E+03 0.  0.
   -5000001    1    1    2    0    0  0.22939046954E+03  0.43650149417E+02  0.67830635221E+03  0.74159883394E+03  0.18800000000E+03 0.  0.
<mgrwt>
<rscale>  0 0.60364072E+03</rscale>
<asrwt>0</asrwt>
<pdfrwt beam="1">  1        2 0.22946628E+00 0.60364072E+03</pdfrwt>
<pdfrwt beam="2">  1       -2 0.81018110E-02 0.60364072E+03</pdfrwt>
<totfact> 0.12592453E+03</totfact>
</mgrwt>
</event>
<event>
 4    1  0.2153371E-005  0.4690384E+03  0.7818608E-02  0.1022192E+00
         -2   -1    0    0    0  501 -0.00000000000E+00  0.00000000000E+00  0.38425800571E+02  0.38425800656E+02  0.25500000000E-02 0. -1.
          2   -1    0    0  501    0  0.00000000000E+00 -0.00000000000E+00 -0.14313107110E+04  0.14313107110E+04  0.25500000000E-02 0.  1.
    5000001    1    1    2    0    0  0.13665961064E+03 -0.22893178483E+02 -0.62957940497E+03  0.67150143258E+03  0.18800000000E+03 0.  0.
   -5000001    1    1    2    0    0 -0.13665961064E+03  0.22893178483E+02 -0.76330550550E+03  0.79823507911E+03  0.18800000000E+03 0.  0.
<mgrwt>
<rscale>  0 0.46903842E+03</rscale>
<asrwt>0</asrwt>
<pdfrwt beam="1">  1        2 0.20447293E+00 0.46903842E+03</pdfrwt>
<pdfrwt beam="2">  1       -2 0.54894010E-02 0.46903842E+03</pdfrwt>
<totfact> 0.28705811E+03</totfact>
</mgrwt>
</event>
<event>
 4    1  0.2153371E-005  0.7632291E+03  0.7818608E-02  0.9614822E-01
          2   -1    0    0  501    0  0.00000000000E+00  0.00000000000E+00  0.54620037703E+03  0.54620037704E+03  0.25500000000E-02 0.  1.
         -2   -1    0    0    0  501 -0.00000000000E+00 -0.00000000000E+00 -0.26662313172E+03  0.26662313173E+03  0.25500000000E-02 0. -1.
    5000001    1    1    2    0    0  0.94691782364E+02 -0.28636592666E+03 -0.82155083128E+01  0.35550453186E+03  0.18800000000E+03 0.  0.
   -5000001    1    1    2    0    0 -0.94691782364E+02  0.28636592666E+03  0.28779275363E+03  0.45731897691E+03  0.18800000000E+03 0.  0.
<mgrwt>
<rscale>  0 0.76322907E+03</rscale>
<asrwt>0</asrwt>
<pdfrwt beam="1">  1        2 0.78028626E-01 0.76322907E+03</pdfrwt>
<pdfrwt beam="2">  1       -2 0.38089019E-01 0.76322907E+03</pdfrwt>
<totfact> 0.39649426E+02</totfact>
</mgrwt>
</event>
<event>
 4    1  0.2153371E-005  0.5399199E+03  0.7818608E-02  0.1003854E+00
         -2   -1    0    0    0  501 -0.00000000000E+00  0.00000000000E+00  0.84386577165E+02  0.84386577203E+02  0.25500000000E-02 0. -1.
          2   -1    0    0  501    0  0.00000000000E+00 -0.00000000000E+00 -0.86362530626E+03  0.86362530626E+03  0.25500000000E-02 0.  1.
    5000001    1    1    2    0    0 -0.44727466773E+02  0.18466762145E+03 -0.32318214104E+03  0.41939643892E+03  0.18800000000E+03 0.  0.
   -5000001    1    1    2    0    0  0.44727466773E+02 -0.18466762145E+03 -0.45605658806E+03  0.52861544454E+03  0.18800000000E+03 0.  0.
<mgrwt>
<rscale>  0 0.53991993E+03</rscale>
<asrwt>0</asrwt>
<pdfrwt beam="1">  1        2 0.12337504E+00 0.53991993E+03</pdfrwt>
<pdfrwt beam="2">  1       -2 0.12055226E-01 0.53991993E+03</pdfrwt>
<totfact> 0.17385698E+03</totfact>
</mgrwt>
</event>
<event>
 4    1  0.2153371E-005  0.6194410E+03  0.7818608E-02  0.9865873E-01
          2   -1    0    0  501    0  0.00000000000E+00  0.00000000000E+00  0.59736038435E+02  0.59736038489E+02  0.25500000000E-02 0.  1.
         -2   -1    0    0    0  501 -0.00000000000E+00 -0.00000000000E+00 -0.16058442394E+04  0.16058442394E+04  0.25500000000E-02 0. -1.
    5000001    1    1    2    0    0 -0.15335079606E+03  0.17524739029E+03 -0.98739831922E+03  0.10317594464E+04  0.18800000000E+03 0.  0.
   -5000001    1    1    2    0    0  0.15335079606E+03 -0.17524739029E+03 -0.55870988170E+03  0.63382083144E+03  0.18800000000E+03 0.  0.
<mgrwt>
<rscale>  0 0.61944095E+03</rscale>
<asrwt>0</asrwt>
<pdfrwt beam="1">  1        2 0.85337208E-02 0.61944095E+03</pdfrwt>
<pdfrwt beam="2">  1       -2 0.22940629E+00 0.61944095E+03</pdfrwt>
<totfact> 0.72517647E+01</totfact>
</mgrwt>
</event>
<event>
 4    1  0.2153371E-005  0.6521757E+03  0.7818608E-02  0.9802705E-01
         -2   -1    0    0    0  501 -0.00000000000E+00  0.00000000000E+00  0.37926159450E+03  0.37926159451E+03  0.25500000000E-02 0. -1.
          2   -1    0    0  501    0  0.00000000000E+00 -0.00000000000E+00 -0.28036923016E+03  0.28036923017E+03  0.25500000000E-02 0.  1.
    5000001    1    1    2    0    0 -0.28773873654E+02  0.23422956633E+03 -0.75652178652E+02  0.31106056916E+03  0.18800000000E+03 0.  0.
   -5000001    1    1    2    0    0  0.28773873654E+02 -0.23422956633E+03  0.17454454299E+03  0.34857025553E+03  0.18800000000E+03 0.  0.
<mgrwt>
<rscale>  0 0.65217569E+03</rscale>
<asrwt>0</asrwt>
<pdfrwt beam="1">  1        2 0.40052747E-01 0.65217569E+03</pdfrwt>
<pdfrwt beam="2">  1       -2 0.54180228E-01 0.65217569E+03</pdfrwt>
<totfact> 0.41606224E+02</totfact>
</mgrwt>
</event>
<event>
 4    1  0.2153371E-005  0.5647004E+03  0.7818608E-02  0.9981475E-01
         -2   -1    0    0    0  501 -0.00000000000E+00  0.00000000000E+00  0.91556133606E+03  0.91556133607E+03  0.25500000000E-02 0. -1.
          2   -1    0    0  501    0  0.00000000000E+00 -0.00000000000E+00 -0.87074057603E+02  0.87074057641E+02  0.25500000000E-02 0.  1.
    5000001    1    1    2    0    0 -0.16339373729E+03 -0.11298132015E+03  0.28976292331E+03  0.39845808288E+03  0.18800000000E+03 0.  0.
   -5000001    1    1    2    0    0  0.16339373729E+03  0.11298132015E+03  0.53872435515E+03  0.60417731083E+03  0.18800000000E+03 0.  0.
<mgrwt>
<rscale>  0 0.56470042E+03</rscale>
<asrwt>0</asrwt>
<pdfrwt beam="1">  1        2 0.12439151E-01 0.56470042E+03</pdfrwt>
<pdfrwt beam="2">  1       -2 0.13079448E+00 0.56470042E+03</pdfrwt>
<totfact> 0.21903421E+02</totfact>
</mgrwt>
</event>
<event>
 4    1  0.2153371E-005  0.5837080E+03  0.7818608E-02  0.9939795E-01
          2   -1    0    0  501    0  0.00000000000E+00  0.00000000000E+00  0.18768360568E+03  0.18768360570E+03  0.25500000000E-02 0.  1.
         -2   -1    0    0    0  501 -0.00000000000E+00 -0.00000000000E+00 -0.45384231896E+03  0.45384231897E+03  0.25500000000E-02 0. -1.
    5000001    1    1    2    0    0 -0.15555628779E+02  0.21160627013E+03 -0.56811335509E+02  0.28912059593E+03  0.18800000000E+03 0.  0.
   -5000001    1    1    2    0    0  0.15555628779E+02 -0.21160627013E+03 -0.20934737777E+03  0.35240532874E+03  0.18800000000E+03 0.  0.
<mgrwt>
<rscale>  0 0.58370802E+03</rscale>
<asrwt>0</asrwt>
<pdfrwt beam="1">  1        2 0.26811944E-01 0.58370802E+03</pdfrwt>
<pdfrwt beam="2">  1       -2 0.64834616E-01 0.58370802E+03</pdfrwt>
<totfact> 0.44791002E+02</totfact>
</mgrwt>
</event>
<event>
 4    1  0.2153371E-005  0.6013006E+03  0.7818608E-02  0.9902711E-01
         -2   -1    0    0    0  501 -0.00000000000E+00  0.00000000000E+00  0.22464958888E+03  0.22464958890E+03  0.25500000000E-02 0. -1.
          2   -1    0    0  501    0  0.00000000000E+00 -0.00000000000E+00 -0.40236263206E+03  0.40236263206E+03  0.25500000000E-02 0.  1.
    5000001    1    1    2    0    0 -0.12492110095E+03  0.16764668826E+03  0.22166361237E+02  0.28203907729E+03  0.18800000000E+03 0.  0.
   -5000001    1    1    2    0    0  0.12492110095E+03 -0.16764668826E+03 -0.19987940441E+03  0.34497314367E+03  0.18800000000E+03 0.  0.
<mgrwt>
<rscale>  0 0.60130059E+03</rscale>
<asrwt>0</asrwt>
<pdfrwt beam="1">  1        2 0.57480376E-01 0.60130059E+03</pdfrwt>
<pdfrwt beam="2">  1       -2 0.32092798E-01 0.60130059E+03</pdfrwt>
<totfact> 0.77920220E+02</totfact>
</mgrwt>
</event>
<event>
 4    1  0.2153371E-005  0.4514803E+03  0.7818608E-02  0.1027282E+00
          2   -1    0    0  501    0  0.00000000000E+00  0.00000000000E+00  0.17789950022E+04  0.17789950022E+04  0.25500000000E-02 0.  1.
         -2   -1    0    0    0  501 -0.00000000000E+00 -0.00000000000E+00 -0.28644610597E+02  0.28644610710E+02  0.25500000000E-02 0. -1.
    5000001    1    1    2    0    0  0.10093840293E+03  0.63622420653E+02  0.72653497699E+03  0.75989041736E+03  0.18800000000E+03 0.  0.
   -5000001    1    1    2    0    0 -0.10093840293E+03 -0.63622420653E+02  0.10238154146E+04  0.10477491956E+04  0.18800000000E+03 0.  0.
<mgrwt>
<rscale>  0 0.45148032E+03</rscale>
<asrwt>0</asrwt>
<pdfrwt beam="1">  1        2 0.25414208E+00 0.45148032E+03</pdfrwt>
<pdfrwt beam="2">  1       -2 0.40920882E-02 0.45148032E+03</pdfrwt>
<totfact> 0.30001664E+03</totfact>
</mgrwt>
</event>
<event>
 4    1  0.2153371E-005  0.5350025E+03  0.7818608E-02  0.1005026E+00
          2   -1    0    0  501    0  0.00000000000E+00  0.00000000000E+00  0.60036044563E+03  0.60036044564E+03  0.25500000000E-02 0. -1.
         -2   -1    0    0    0  501 -0.00000000000E+00 -0.00000000000E+00 -0.11918992395E+03  0.11918992397E+03  0.25500000000E-02 0.  1.
    5000001    1    1    2    0    0 -0.39016296266E+02  0.18625360772E+03  0.23992898128E+03  0.35933632411E+03  0.18800000000E+03 0.  0.
   -5000001    1    1    2    0    0  0.39016296266E+02 -0.18625360772E+03  0.24124154040E+03  0.36021404550E+03  0.18800000000E+03 0.  0.
<mgrwt>
<rscale>  0 0.53500249E+03</rscale>
<asrwt>0</asrwt>
<pdfrwt beam="1">  1        2 0.85765779E-01 0.53500249E+03</pdfrwt>
<pdfrwt beam="2">  1       -2 0.17027132E-01 0.53500249E+03</pdfrwt>
<totfact> 0.15283239E+03</totfact>
</mgrwt>
</event>
<event>
 4    1  0.2153371E-005  0.5261273E+03  0.7818608E-02  0.1007176E+00
          2   -1    0    0  501    0  0.00000000000E+00  0.00000000000E+00  0.59606009544E+02  0.59606009599E+02  0.25500000000E-02 0.  1.
         -2   -1    0    0    0  501 -0.00000000000E+00 -0.00000000000E+00 -0.11609983194E+04  0.11609983194E+04  0.25500000000E-02 0. -1.
    5000001    1    1    2    0    0  0.14737971041E+03  0.16209869943E+02 -0.80350936690E+03  0.83842402256E+03  0.18800000000E+03 0.  0.
   -5000001    1    1    2    0    0 -0.14737971041E+03 -0.16209869943E+02 -0.29788294297E+03  0.38218030645E+03  0.18800000000E+03 0.  0.
<mgrwt>
<rscale>  0 0.52612727E+03</rscale>
<asrwt>0</asrwt>
<pdfrwt beam="1">  1        2 0.85151449E-02 0.52612727E+03</pdfrwt>
<pdfrwt beam="2">  1       -2 0.16585689E+00 0.52612727E+03</pdfrwt>
<totfact> 0.19019352E+02</totfact>
</mgrwt>
</event>
<event>
 4    1  0.2153371E-005  0.5650133E+03  0.7818608E-02  0.9980774E-01
          2   -1    0    0  501    0  0.00000000000E+00  0.00000000000E+00  0.12252209321E+03  0.12252209324E+03  0.25500000000E-02 0.  1.
         -2   -1    0    0    0  501 -0.00000000000E+00 -0.00000000000E+00 -0.65139287110E+03  0.65139287110E+03  0.25500000000E-02 0. -1.
    5000001    1    1    2    0    0 -0.17936039340E+03  0.11335760162E+02 -0.11334638295E+03  0.28370768884E+03  0.18800000000E+03 0.  0.
   -5000001    1    1    2    0    0  0.17936039340E+03 -0.11335760162E+02 -0.41552439493E+03  0.49020727550E+03  0.18800000000E+03 0.  0.
<mgrwt>
<rscale>  0 0.56501334E+03</rscale>
<asrwt>0</asrwt>
<pdfrwt beam="1">  1        2 0.17503156E-01 0.56501334E+03</pdfrwt>
<pdfrwt beam="2">  1       -2 0.93056123E-01 0.56501334E+03</pdfrwt>
<totfact> 0.32916210E+02</totfact>
</mgrwt>
</event>
<event>
 4    1  0.2153371E-005  0.9380621E+03  0.7818608E-02  0.9379214E-01
         -2   -1    0    0    0  501 -0.00000000000E+00  0.00000000000E+00  0.10442616023E+03  0.10442616026E+03  0.25500000000E-02 0. -1.
          2   -1    0    0  501    0  0.00000000000E+00 -0.00000000000E+00 -0.21066571653E+04  0.21066571653E+04  0.25500000000E-02 0.  1.
    5000001    1    1    2    0    0 -0.90086024622E+02 -0.37897537152E+03 -0.14287041986E+04  0.14927416090E+04  0.18800000000E+03 0.  0.
   -5000001    1    1    2    0    0  0.90086024622E+02  0.37897537152E+03 -0.57352680643E+03  0.71834171655E+03  0.18800000000E+03 0.  0.
<mgrwt>
<rscale>  0 0.93806208E+03</rscale>
<asrwt>0</asrwt>
<pdfrwt beam="1">  1        2 0.30095100E+00 0.93806208E+03</pdfrwt>
<pdfrwt beam="2">  1       -2 0.14918024E-01 0.93806208E+03</pdfrwt>
<totfact> 0.25203621E+02</totfact>
</mgrwt>
</event>
<event>
 4    1  0.2153371E-005  0.6350121E+03  0.7818608E-02  0.9835317E-01
          2   -1    0    0  501    0  0.00000000000E+00  0.00000000000E+00  0.19278433334E+04  0.19278433334E+04  0.25500000000E-02 0.  1.
         -2   -1    0    0    0  501 -0.00000000000E+00 -0.00000000000E+00 -0.52291639622E+02  0.52291639685E+02  0.25500000000E-02 0. -1.
    5000001    1    1    2    0    0 -0.22719506032E+03  0.94673972507E+02  0.11557273452E+04  0.11965076067E+04  0.18800000000E+03 0.  0.
   -5000001    1    1    2    0    0  0.22719506032E+03 -0.94673972507E+02  0.71982434856E+03  0.78362736634E+03  0.18800000000E+03 0.  0.
<mgrwt>
<rscale>  0 0.63501209E+03</rscale>
<asrwt>0</asrwt>
<pdfrwt beam="1">  1        2 0.27540621E+00 0.63501209E+03</pdfrwt>
<pdfrwt beam="2">  1       -2 0.74702338E-02 0.63501209E+03</pdfrwt>
<totfact> 0.98275807E+02</totfact>
</mgrwt>
</event>
<event>
 4    1  0.2153371E-005  0.8569397E+03  0.7818608E-02  0.9481070E-01
          2   -1    0    0  501    0  0.00000000000E+00  0.00000000000E+00  0.21339909997E+04  0.21339909997E+04  0.25500000000E-02 0. -1.
         -2   -1    0    0    0  501 -0.00000000000E+00 -0.00000000000E+00 -0.86029602872E+02  0.86029602910E+02  0.25500000000E-02 0.  1.
    5000001    1    1    2    0    0 -0.28647096850E+03  0.20681572835E+03  0.62765507966E+03  0.74440127640E+03  0.18800000000E+03 0.  0.
   -5000001    1    1    2    0    0  0.28647096850E+03 -0.20681572835E+03  0.14203063172E+04  0.14756193262E+04  0.18800000000E+03 0.  0.
<mgrwt>
<rscale>  0 0.85693967E+03</rscale>
<asrwt>0</asrwt>
<pdfrwt beam="1">  1        2 0.30485589E+00 0.85693967E+03</pdfrwt>
<pdfrwt beam="2">  1       -2 0.12289942E-01 0.85693967E+03</pdfrwt>
<totfact> 0.33978262E+02</totfact>
</mgrwt>
</event>
<event>
 4    1  0.2153371E-005  0.6061700E+03  0.7818608E-02  0.9892687E-01
          2   -1    0    0  501    0  0.00000000000E+00  0.00000000000E+00  0.31617565678E+03  0.31617565679E+03  0.25500000000E-02 0.  1.
         -2   -1    0    0    0  501 -0.00000000000E+00 -0.00000000000E+00 -0.29053635403E+03  0.29053635405E+03  0.25500000000E-02 0. -1.
    5000001    1    1    2    0    0 -0.14496367142E+01  0.23169928194E+03 -0.40424377837E+02  0.30110594318E+03  0.18800000000E+03 0.  0.
   -5000001    1    1    2    0    0  0.14496367142E+01 -0.23169928194E+03  0.66063680586E+02  0.30560606766E+03  0.18800000000E+03 0.  0.
<mgrwt>
<rscale>  0 0.60617002E+03</rscale>
<asrwt>0</asrwt>
<pdfrwt beam="1">  1        2 0.45167951E-01 0.60617002E+03</pdfrwt>
<pdfrwt beam="2">  1       -2 0.41505193E-01 0.60617002E+03</pdfrwt>
<totfact> 0.62253860E+02</totfact>
</mgrwt>
</event>
<event>
 4    1  0.2153371E-005  0.4361098E+03  0.7818608E-02  0.1031947E+00
          2   -1    0    0  501    0  0.00000000000E+00  0.00000000000E+00  0.23276446558E+04  0.23276446558E+04  0.25500000000E-02 0.  1.
         -2   -1    0    0    0  501 -0.00000000000E+00 -0.00000000000E+00 -0.20427494689E+02  0.20427494848E+02  0.25500000000E-02 0. -1.
    5000001    1    1    2    0    0  0.90051904009E+02 -0.13468069082E+02  0.81680058899E+03  0.84308833255E+03  0.18800000000E+03 0.  0.
   -5000001    1    1    2    0    0 -0.90051904009E+02  0.13468069082E+02  0.14904165721E+04  0.15049838181E+04  0.18800000000E+03 0.  0.
<mgrwt>
<rscale>  0 0.43610984E+03</rscale>
<asrwt>0</asrwt>
<pdfrwt beam="1">  1        2 0.33252064E+00 0.43610984E+03</pdfrwt>
<pdfrwt beam="2">  1       -2 0.29182137E-02 0.43610984E+03</pdfrwt>
<totfact> 0.26716460E+03</totfact>
</mgrwt>
</event>
<event>
 4    1  0.2153371E-005  0.6133724E+03  0.7818608E-02  0.9878044E-01
         -2   -1    0    0    0  501 -0.00000000000E+00  0.00000000000E+00  0.16556493221E+03  0.16556493223E+03  0.25500000000E-02 0. -1.
          2   -1    0    0  501    0  0.00000000000E+00 -0.00000000000E+00 -0.56809388301E+03  0.56809388302E+03  0.25500000000E-02 0.  1.
    5000001    1    1    2    0    0  0.17274015061E+03 -0.51376452940E+02 -0.39499582177E+03  0.47312197029E+03  0.18800000000E+03 0.  0.
   -5000001    1    1    2    0    0 -0.17274015061E+03  0.51376452940E+02 -0.75331290274E+01  0.26053684496E+03  0.18800000000E+03 0.  0.
<mgrwt>
<rscale>  0 0.61337240E+03</rscale>
<asrwt>0</asrwt>
<pdfrwt beam="1">  1        2 0.81156268E-01 0.61337240E+03</pdfrwt>
<pdfrwt beam="2">  1       -2 0.23652133E-01 0.61337240E+03</pdfrwt>
<totfact> 0.91925337E+02</totfact>
</mgrwt>
</event>
<event>
 4    1  0.2153371E-005  0.5507368E+03  0.7818608E-02  0.1001324E+00
         -2   -1    0    0    0  501 -0.00000000000E+00  0.00000000000E+00  0.87871454322E+02  0.87871454359E+02  0.25500000000E-02 0. -1.
          2   -1    0    0  501    0  0.00000000000E+00 -0.00000000000E+00 -0.86293942208E+03  0.86293942208E+03  0.25500000000E-02 0.  1.
    5000001    1    1    2    0    0  0.23795512646E+02 -0.13718531045E+03 -0.13676853183E+03  0.27099016056E+03  0.18800000000E+03 0.  0.
   -5000001    1    1    2    0    0 -0.23795512646E+02  0.13718531045E+03 -0.63829943593E+03  0.67982071588E+03  0.18800000000E+03 0.  0.
<mgrwt>
<rscale>  0 0.55073675E+03</rscale>
<asrwt>0</asrwt>
<pdfrwt beam="1">  1        2 0.12327706E+00 0.55073675E+03</pdfrwt>
<pdfrwt beam="2">  1       -2 0.12553065E-01 0.55073675E+03</pdfrwt>
<totfact> 0.16280625E+03</totfact>
</mgrwt>
</event>
<event>
 4    1  0.2153371E-005  0.6738321E+03  0.7818608E-02  0.9763060E-01
         -2   -1    0    0    0  501 -0.00000000000E+00  0.00000000000E+00  0.12288224777E+03  0.12288224779E+03  0.25500000000E-02 0. -1.
          2   -1    0    0  501    0  0.00000000000E+00 -0.00000000000E+00 -0.92374949651E+03  0.92374949651E+03  0.25500000000E-02 0.  1.
    5000001    1    1    2    0    0 -0.64931481379E+02  0.27008263596E+03 -0.44974022415E+03  0.56104455860E+03  0.18800000000E+03 0.  0.
   -5000001    1    1    2    0    0  0.64931481379E+02 -0.27008263596E+03 -0.35112702459E+03  0.48558718570E+03  0.18800000000E+03 0.  0.
<mgrwt>
<rscale>  0 0.67383207E+03</rscale>
<asrwt>0</asrwt>
<pdfrwt beam="1">  1        2 0.13196421E+00 0.67383207E+03</pdfrwt>
<pdfrwt beam="2">  1       -2 0.17554607E-01 0.67383207E+03</pdfrwt>
<totfact> 0.84355510E+02</totfact>
</mgrwt>
</event>
<event>
 4    1  0.2153371E-005  0.7797657E+03  0.7818608E-02  0.9589776E-01
          2   -1    0    0  501    0  0.00000000000E+00  0.00000000000E+00  0.45853640325E+03  0.45853640325E+03  0.25500000000E-02 0.  1.
         -2   -1    0    0    0  501 -0.00000000000E+00 -0.00000000000E+00 -0.33150830231E+03  0.33150830232E+03  0.25500000000E-02 0. -1.
    5000001    1    1    2    0    0  0.33544345361E+03  0.51618246631E+02  0.24564202478E+02  0.38875976387E+03  0.18800000000E+03 0.  0.
   -5000001    1    1    2    0    0 -0.33544345361E+03 -0.51618246631E+02  0.10246389846E+03  0.40128494171E+03  0.18800000000E+03 0.  0.
<mgrwt>
<rscale>  0 0.77976567E+03</rscale>
<asrwt>0</asrwt>
<pdfrwt beam="1">  1        2 0.65505200E-01 0.77976567E+03</pdfrwt>
<pdfrwt beam="2">  1       -2 0.47358329E-01 0.77976567E+03</pdfrwt>
<totfact> 0.31525863E+02</totfact>
</mgrwt>
</event>
<event>
 4    1  0.2153371E-005  0.1078423E+04  0.7818608E-02  0.9226481E-01
         -2   -1    0    0    0  501 -0.00000000000E+00  0.00000000000E+00  0.20083975430E+03  0.20083975432E+03  0.25500000000E-02 0. -1.
          2   -1    0    0  501    0  0.00000000000E+00 -0.00000000000E+00 -0.14476663507E+04  0.14476663507E+04  0.25500000000E-02 0.  1.
    5000001    1    1    2    0    0 -0.16523977310E+03  0.46459550762E+03 -0.45421297719E+03  0.69628054473E+03  0.18800000000E+03 0.  0.
   -5000001    1    1    2    0    0  0.16523977310E+03 -0.46459550762E+03 -0.79261361918E+03  0.95222556026E+03  0.18800000000E+03 0.  0.
<mgrwt>
<rscale>  0 0.10784228E+04</rscale>
<asrwt>0</asrwt>
<pdfrwt beam="1">  1        2 0.20680947E+00 0.10784228E+04</pdfrwt>
<pdfrwt beam="2">  1       -2 0.28691394E-01 0.10784228E+04</pdfrwt>
<totfact> 0.17237002E+02</totfact>
</mgrwt>
</event>
<event>
 4    1  0.2153371E-005  0.1239894E+04  0.7818608E-02  0.9078636E-01
         -2   -1    0    0    0  501 -0.00000000000E+00  0.00000000000E+00  0.22378504697E+03  0.22378504698E+03  0.25500000000E-02 0. -1.
          2   -1    0    0  501    0  0.00000000000E+00 -0.00000000000E+00 -0.17174274499E+04  0.17174274499E+04  0.25500000000E-02 0.  1.
    5000001    1    1    2    0    0  0.23195703239E+03  0.47903176081E+03 -0.34547338586E+03  0.66179404128E+03  0.18800000000E+03 0.  0.
   -5000001    1    1    2    0    0 -0.23195703239E+03 -0.47903176081E+03 -0.11481690171E+04  0.12794184556E+04  0.18800000000E+03 0.  0.
<mgrwt>
<rscale>  0 0.12398945E+04</rscale>
<asrwt>0</asrwt>
<pdfrwt beam="1">  1        2 0.24534677E+00 0.12398945E+04</pdfrwt>
<pdfrwt beam="2">  1       -2 0.31969293E-01 0.12398945E+04</pdfrwt>
<totfact> 0.10056888E+02</totfact>
</mgrwt>
</event>
<event>
 4    1  0.2153371E-005  0.5411590E+03  0.7818608E-02  0.1003561E+00
          2   -1    0    0  501    0  0.00000000000E+00  0.00000000000E+00  0.50549919851E+03  0.50549919852E+03  0.25500000000E-02 0.  1.
         -2   -1    0    0    0  501 -0.00000000000E+00 -0.00000000000E+00 -0.14483358320E+03  0.14483358322E+03  0.25500000000E-02 0. -1.
    5000001    1    1    2    0    0  0.14619984590E+03 -0.39745300734E+01  0.26064361375E+02  0.23961123255E+03  0.18800000000E+03 0.  0.
   -5000001    1    1    2    0    0 -0.14619984590E+03  0.39745300734E+01  0.33460125394E+03  0.41072154919E+03  0.18800000000E+03 0.  0.
<mgrwt>
<rscale>  0 0.54115898E+03</rscale>
<asrwt>0</asrwt>
<pdfrwt beam="1">  1        2 0.72214173E-01 0.54115898E+03</pdfrwt>
<pdfrwt beam="2">  1       -2 0.20690511E-01 0.54115898E+03</pdfrwt>
<totfact> 0.13318458E+03</totfact>
</mgrwt>
</event>
<event>
 4    1  0.2153371E-005  0.7054263E+03  0.7818608E-02  0.9707997E-01
         -2   -1    0    0    0  501 -0.00000000000E+00  0.00000000000E+00  0.67456655399E+02  0.67456655447E+02  0.25500000000E-02 0. -1.
          2   -1    0    0  501    0  0.00000000000E+00 -0.00000000000E+00 -0.18442447219E+04  0.18442447219E+04  0.25500000000E-02 0.  1.
    5000001    1    1    2    0    0 -0.54818700383E+02  0.28077922126E+03 -0.65811594791E+03  0.74182387525E+03  0.18800000000E+03 0.  0.
   -5000001    1    1    2    0    0  0.54818700383E+02 -0.28077922126E+03 -0.11186721186E+04  0.11698775021E+04  0.18800000000E+03 0.  0.
<mgrwt>
<rscale>  0 0.70542634E+03</rscale>
<asrwt>0</asrwt>
<pdfrwt beam="1">  1        2 0.26346350E+00 0.70542634E+03</pdfrwt>
<pdfrwt beam="2">  1       -2 0.96366662E-02 0.70542634E+03</pdfrwt>
<totfact> 0.71703029E+02</totfact>
</mgrwt>
</event>
<event>
 4    1  0.2153371E-005  0.4653408E+03  0.7818608E-02  0.1023244E+00
         -2   -1    0    0    0  501 -0.00000000000E+00  0.00000000000E+00  0.45153627931E+03  0.45153627932E+03  0.25500000000E-02 0. -1.
          2   -1    0    0  501    0  0.00000000000E+00 -0.00000000000E+00 -0.11989185590E+03  0.11989185592E+03  0.25500000000E-02 0.  1.
    5000001    1    1    2    0    0  0.87890767541E+02 -0.41124635952E+02  0.28472380464E+03  0.35472195820E+03  0.18800000000E+03 0.  0.
   -5000001    1    1    2    0    0 -0.87890767541E+02  0.41124635952E+02  0.46920618776E+02  0.21670617704E+03  0.18800000000E+03 0.  0.
<mgrwt>
<rscale>  0 0.46534083E+03</rscale>
<asrwt>0</asrwt>
<pdfrwt beam="1">  1        2 0.17127408E-01 0.46534083E+03</pdfrwt>
<pdfrwt beam="2">  1       -2 0.64505183E-01 0.46534083E+03</pdfrwt>
<totfact> 0.76178099E+02</totfact>
</mgrwt>
</event>
<event>
 4    1  0.2153371E-005  0.5711999E+03  0.7818608E-02  0.9967027E-01
          2   -1    0    0  501    0  0.00000000000E+00  0.00000000000E+00  0.85908018938E+03  0.85908018939E+03  0.25500000000E-02 0. -1.
         -2   -1    0    0    0  501 -0.00000000000E+00 -0.00000000000E+00 -0.94947298557E+02  0.94947298591E+02  0.25500000000E-02 0.  1.
    5000001    1    1    2    0    0 -0.72104165048E+02 -0.20213355001E+03  0.40360903748E+03  0.49426838639E+03  0.18800000000E+03 0.  0.
   -5000001    1    1    2    0    0  0.72104165048E+02  0.20213355001E+03  0.36052385335E+03  0.45975910158E+03  0.18800000000E+03 0.  0.
<mgrwt>
<rscale>  0 0.57119994E+03</rscale>
<asrwt>0</asrwt>
<pdfrwt beam="1">  1        2 0.12272573E+00 0.57119994E+03</pdfrwt>
<pdfrwt beam="2">  1       -2 0.13563901E-01 0.57119994E+03</pdfrwt>
<totfact> 0.14400856E+03</totfact>
</mgrwt>
</event>
<event>
 4    1  0.2153371E-005  0.6253675E+03  0.7818608E-02  0.9854131E-01
          2   -1    0    0  501    0  0.00000000000E+00  0.00000000000E+00  0.38928209279E+04  0.38928209279E+04  0.25500000000E-02 0.  1.
         -2   -1    0    0    0  501 -0.00000000000E+00 -0.00000000000E+00 -0.25115752638E+02  0.25115752768E+02  0.25500000000E-02 0. -1.
    5000001    1    1    2    0    0  0.90849746178E+02 -0.23271211919E+03  0.19608146879E+04  0.19855847620E+04  0.18800000000E+03 0.  0.
   -5000001    1    1    2    0    0 -0.90849746178E+02  0.23271211919E+03  0.19068904873E+04  0.19323519186E+04  0.18800000000E+03 0.  0.
<mgrwt>
<rscale>  0 0.62536750E+03</rscale>
<asrwt>0</asrwt>
<pdfrwt beam="1">  1        2 0.55611673E+00 0.62536750E+03</pdfrwt>
<pdfrwt beam="2">  1       -2 0.35879682E-02 0.62536750E+03</pdfrwt>
<totfact> 0.25545660E+02</totfact>
</mgrwt>
</event>
<event>
 4    1  0.2153371E-005  0.6433700E+03  0.7818608E-02  0.9819300E-01
          2   -1    0    0  501    0  0.00000000000E+00  0.00000000000E+00  0.17293617586E+04  0.17293617586E+04  0.25500000000E-02 0. -1.
         -2   -1    0    0    0  501 -0.00000000000E+00 -0.00000000000E+00 -0.59837814321E+02  0.59837814376E+02  0.25500000000E-02 0.  1.
    5000001    1    1    2    0    0 -0.80781368353E+02 -0.21853901452E+03  0.50745224738E+03  0.58918309014E+03  0.18800000000E+03 0.  0.
   -5000001    1    1    2    0    0  0.80781368353E+02  0.21853901452E+03  0.11620716969E+04  0.12000164829E+04  0.18800000000E+03 0.  0.
<mgrwt>
<rscale>  0 0.64336996E+03</rscale>
<asrwt>0</asrwt>
<pdfrwt beam="1">  1        2 0.24705167E+00 0.64336996E+03</pdfrwt>
<pdfrwt beam="2">  1       -2 0.85482597E-02 0.64336996E+03</pdfrwt>
<totfact> 0.99813793E+02</totfact>
</mgrwt>
</event>
<event>
 4    1  0.2153371E-005  0.3936202E+03  0.7818608E-02  0.1046011E+00
          2   -1    0    0  501    0  0.00000000000E+00  0.00000000000E+00  0.12282703199E+04  0.12282703199E+04  0.25500000000E-02 0.  1.
         -2   -1    0    0    0  501 -0.00000000000E+00 -0.00000000000E+00 -0.31535574403E+02  0.31535574506E+02  0.25500000000E-02 0. -1.
    5000001    1    1    2    0    0 -0.18458416899E+02 -0.46075177440E+02  0.50094323373E+03  0.53735626781E+03  0.18800000000E+03 0.  0.
   -5000001    1    1    2    0    0  0.18458416899E+02  0.46075177440E+02  0.69579151176E+03  0.72244962659E+03  0.18800000000E+03 0.  0.
<mgrwt>
<rscale>  0 0.39362017E+03</rscale>
<asrwt>0</asrwt>
<pdfrwt beam="1">  1        2 0.17546716E+00 0.39362017E+03</pdfrwt>
<pdfrwt beam="2">  1       -2 0.45050829E-02 0.39362017E+03</pdfrwt>
<totfact> 0.49898741E+03</totfact>
</mgrwt>
</event>
<event>
 4    1  0.2153371E-005  0.6328971E+03  0.7818608E-02  0.9839411E-01
          2   -1    0    0  501    0  0.00000000000E+00  0.00000000000E+00  0.19162425121E+04  0.19162425121E+04  0.25500000000E-02 0.  1.
         -2   -1    0    0    0  501 -0.00000000000E+00 -0.00000000000E+00 -0.52258363138E+02  0.52258363200E+02  0.25500000000E-02 0. -1.
    5000001    1    1    2    0    0 -0.14513402366E+03  0.17916178549E+03  0.12674560270E+04  0.13019030727E+04  0.18800000000E+03 0.  0.
   -5000001    1    1    2    0    0  0.14513402366E+03 -0.17916178549E+03  0.59652812196E+03  0.66659780265E+03  0.18800000000E+03 0.  0.
<mgrwt>
<rscale>  0 0.63289714E+03</rscale>
<asrwt>0</asrwt>
<pdfrwt beam="1">  1        2 0.27374886E+00 0.63289714E+03</pdfrwt>
<pdfrwt beam="2">  1       -2 0.74654825E-02 0.63289714E+03</pdfrwt>
<totfact> 0.99718991E+02</totfact>
</mgrwt>
</event>
<event>
 4    1  0.2153371E-005  0.1843686E+04  0.7818608E-02  0.8683407E-01
          2   -1    0    0  501    0  0.00000000000E+00  0.00000000000E+00  0.19453420254E+04  0.19453420254E+04  0.25500000000E-02 0.  1.
         -2   -1    0    0    0  501 -0.00000000000E+00 -0.00000000000E+00 -0.43683553199E+03  0.43683553200E+03  0.25500000000E-02 0. -1.
    5000001    1    1    2    0    0 -0.12110574397E+03 -0.68059148556E+03  0.15038553100E+04  0.16657719426E+04  0.18800000000E+03 0.  0.
   -5000001    1    1    2    0    0  0.12110574397E+03  0.68059148556E+03  0.46511834548E+01  0.71640561482E+03  0.18800000000E+03 0.  0.
<mgrwt>
<rscale>  0 0.18436860E+04</rscale>
<asrwt>0</asrwt>
<pdfrwt beam="1">  1        2 0.27790601E+00 0.18436860E+04</pdfrwt>
<pdfrwt beam="2">  1       -2 0.62405075E-01 0.18436860E+04</pdfrwt>
<totfact> 0.19244761E+01</totfact>
</mgrwt>
</event>
<event>
 4    1  0.2153371E-005  0.4330302E+03  0.7818608E-02  0.1032907E+00
         -2   -1    0    0    0  501 -0.00000000000E+00  0.00000000000E+00  0.74303619940E+02  0.74303619984E+02  0.25500000000E-02 0. -1.
          2   -1    0    0  501    0  0.00000000000E+00 -0.00000000000E+00 -0.63090863006E+03  0.63090863006E+03  0.25500000000E-02 0.  1.
    5000001    1    1    2    0    0  0.49531769383E+02  0.91809348408E+02 -0.23670447769E+03  0.31977392388E+03  0.18800000000E+03 0.  0.
   -5000001    1    1    2    0    0 -0.49531769383E+02 -0.91809348408E+02 -0.31990053243E+03  0.38543832617E+03  0.18800000000E+03 0.  0.
<mgrwt>
<rscale>  0 0.43303023E+03</rscale>
<asrwt>0</asrwt>
<pdfrwt beam="1">  1        2 0.90129802E-01 0.43303023E+03</pdfrwt>
<pdfrwt beam="2">  1       -2 0.10614803E-01 0.43303023E+03</pdfrwt>
<totfact> 0.31513673E+03</totfact>
</mgrwt>
</event>
<event>
 4    1  0.2153371E-005  0.5566468E+03  0.7818608E-02  0.9999671E-01
         -2   -1    0    0    0  501 -0.00000000000E+00  0.00000000000E+00  0.18479272067E+03  0.18479272069E+03  0.25500000000E-02 0. -1.
          2   -1    0    0  501    0  0.00000000000E+00 -0.00000000000E+00 -0.41919354841E+03  0.41919354842E+03  0.25500000000E-02 0.  1.
    5000001    1    1    2    0    0 -0.16440806928E+03 -0.73812306847E+02 -0.10657898574E+02  0.26064508568E+03  0.18800000000E+03 0.  0.
   -5000001    1    1    2    0    0  0.16440806928E+03  0.73812306847E+02 -0.22374292916E+03  0.34334118343E+03  0.18800000000E+03 0.  0.
<mgrwt>
<rscale>  0 0.55664680E+03</rscale>
<asrwt>0</asrwt>
<pdfrwt beam="1">  1        2 0.59884792E-01 0.55664680E+03</pdfrwt>
<pdfrwt beam="2">  1       -2 0.26398960E-01 0.55664680E+03</pdfrwt>
<totfact> 0.10662608E+03</totfact>
</mgrwt>
</event>
<event>
 4    1  0.2153371E-005  0.5771371E+03  0.7818608E-02  0.9954008E-01
         -2   -1    0    0    0  501 -0.00000000000E+00  0.00000000000E+00  0.10038855154E+03  0.10038855158E+03  0.25500000000E-02 0. -1.
          2   -1    0    0  501    0  0.00000000000E+00 -0.00000000000E+00 -0.82949503052E+03  0.82949503053E+03  0.25500000000E-02 0.  1.
    5000001    1    1    2    0    0 -0.15828945402E+03  0.13351353533E+03 -0.47900961007E+03  0.55468515566E+03  0.18800000000E+03 0.  0.
   -5000001    1    1    2    0    0  0.15828945402E+03 -0.13351353533E+03 -0.25009686891E+03  0.37519842645E+03  0.18800000000E+03 0.  0.
<mgrwt>
<rscale>  0 0.57713709E+03</rscale>
<asrwt>0</asrwt>
<pdfrwt beam="1">  1        2 0.11849929E+00 0.57713709E+03</pdfrwt>
<pdfrwt beam="2">  1       -2 0.14341222E-01 0.57713709E+03</pdfrwt>
<totfact> 0.13733097E+03</totfact>
</mgrwt>
</event>
<event>
 4    1  0.2153371E-005  0.4882468E+03  0.7818608E-02  0.1016893E+00
          2   -1    0    0  501    0  0.00000000000E+00  0.00000000000E+00  0.10231483859E+04  0.10231483859E+04  0.25500000000E-02 0. -1.
         -2   -1    0    0    0  501 -0.00000000000E+00 -0.00000000000E+00 -0.58247901630E+02  0.58247901686E+02  0.25500000000E-02 0.  1.
    5000001    1    1    2    0    0 -0.29324796013E+02  0.10017530287E+03  0.73842864648E+03  0.76910070921E+03  0.18800000000E+03 0.  0.
   -5000001    1    1    2    0    0  0.29324796013E+02 -0.10017530287E+03  0.22647183782E+03  0.31229557840E+03  0.18800000000E+03 0.  0.
<mgrwt>
<rscale>  0 0.48824685E+03</rscale>
<asrwt>0</asrwt>
<pdfrwt beam="1">  1        2 0.14616405E+00 0.48824685E+03</pdfrwt>
<pdfrwt beam="2">  1       -2 0.83211293E-02 0.48824685E+03</pdfrwt>
<totfact> 0.25150261E+03</totfact>
</mgrwt>
</event>
<event>
 4    1  0.2153371E-005  0.9876894E+03  0.7818608E-02  0.9322151E-01
          2   -1    0    0  501    0  0.00000000000E+00  0.00000000000E+00  0.24537436975E+03  0.24537436976E+03  0.25500000000E-02 0.  1.
         -2   -1    0    0    0  501 -0.00000000000E+00 -0.00000000000E+00 -0.99392035719E+03  0.99392035719E+03  0.25500000000E-02 0. -1.
    5000001    1    1    2    0    0 -0.12860603750E+03 -0.35815631427E+03 -0.69101286824E+03  0.81096130759E+03  0.18800000000E+03 0.  0.
   -5000001    1    1    2    0    0  0.12860603750E+03  0.35815631427E+03 -0.57533119199E+02  0.42833341936E+03  0.18800000000E+03 0.  0.
<mgrwt>
<rscale>  0 0.98768939E+03</rscale>
<asrwt>0</asrwt>
<pdfrwt beam="1">  1        2 0.35053482E-01 0.98768939E+03</pdfrwt>
<pdfrwt beam="2">  1       -2 0.14198862E+00 0.98768939E+03</pdfrwt>
<totfact> 0.51637082E+01</totfact>
</mgrwt>
</event>
<event>
 4    1  0.2153371E-005  0.7168820E+03  0.7818608E-02  0.9688790E-01
          2   -1    0    0  501    0  0.00000000000E+00  0.00000000000E+00  0.22683978052E+03  0.22683978054E+03  0.25500000000E-02 0.  1.
         -2   -1    0    0    0  501 -0.00000000000E+00 -0.00000000000E+00 -0.56639066855E+03  0.56639066855E+03  0.25500000000E-02 0. -1.
    5000001    1    1    2    0    0 -0.25975792099E+03  0.89259139529E+02 -0.22587698492E+02  0.33360991536E+03  0.18800000000E+03 0.  0.
   -5000001    1    1    2    0    0  0.25975792099E+03 -0.89259139529E+02 -0.31696318953E+03  0.45962053373E+03  0.18800000000E+03 0.  0.
<mgrwt>
<rscale>  0 0.71688196E+03</rscale>
<asrwt>0</asrwt>
<pdfrwt beam="1">  1        2 0.32405683E-01 0.71688196E+03</pdfrwt>
<pdfrwt beam="2">  1       -2 0.80912952E-01 0.71688196E+03</pdfrwt>
<totfact> 0.22180735E+02</totfact>
</mgrwt>
</event>
<event>
 4    1  0.2153371E-005  0.7379072E+03  0.7818608E-02  0.9654515E-01
          2   -1    0    0  501    0  0.00000000000E+00  0.00000000000E+00  0.67524688021E+03  0.67524688022E+03  0.25500000000E-02 0.  1.
         -2   -1    0    0    0  501 -0.00000000000E+00 -0.00000000000E+00 -0.20159554298E+03  0.20159554299E+03  0.25500000000E-02 0. -1.
    5000001    1    1    2    0    0  0.89311992521E+02  0.26371643736E+03  0.55598831542E+02  0.34052638871E+03  0.18800000000E+03 0.  0.
   -5000001    1    1    2    0    0 -0.89311992521E+02 -0.26371643736E+03  0.41805250570E+03  0.53631603450E+03  0.18800000000E+03 0.  0.
<mgrwt>
<rscale>  0 0.73790721E+03</rscale>
<asrwt>0</asrwt>
<pdfrwt beam="1">  1        2 0.96463839E-01 0.73790721E+03</pdfrwt>
<pdfrwt beam="2">  1       -2 0.28799363E-01 0.73790721E+03</pdfrwt>
<totfact> 0.52237686E+02</totfact>
</mgrwt>
</event>
<event>
 4    1  0.2153371E-005  0.7405921E+03  0.7818608E-02  0.9650227E-01
          2   -1    0    0  501    0  0.00000000000E+00  0.00000000000E+00  0.18751740385E+04  0.18751740385E+04  0.25500000000E-02 0.  1.
         -2   -1    0    0    0  501 -0.00000000000E+00 -0.00000000000E+00 -0.73123433490E+02  0.73123433534E+02  0.25500000000E-02 0. -1.
    5000001    1    1    2    0    0 -0.15461217149E+02  0.29359404125E+03  0.12268393582E+04  0.12755059079E+04  0.18800000000E+03 0.  0.
   -5000001    1    1    2    0    0  0.15461217149E+02 -0.29359404125E+03  0.57521124676E+03  0.67279156408E+03  0.18800000000E+03 0.  0.
<mgrwt>
<rscale>  0 0.74059210E+03</rscale>
<asrwt>0</asrwt>
<pdfrwt beam="1">  1        2 0.26788199E+00 0.74059210E+03</pdfrwt>
<pdfrwt beam="2">  1       -2 0.10446205E-01 0.74059210E+03</pdfrwt>
<totfact> 0.60530457E+02</totfact>
</mgrwt>
</event>
<event>
 4    1  0.2153371E-005  0.5017780E+03  0.7818608E-02  0.1013316E+00
          2   -1    0    0  501    0  0.00000000000E+00  0.00000000000E+00  0.63005896320E+03  0.63005896320E+03  0.25500000000E-02 0.  1.
         -2   -1    0    0    0  501 -0.00000000000E+00 -0.00000000000E+00 -0.99903819743E+02  0.99903819775E+02  0.25500000000E-02 0. -1.
    5000001    1    1    2    0    0 -0.10945654178E+03 -0.12252403315E+03  0.22919428641E+03  0.33892018848E+03  0.18800000000E+03 0.  0.
   -5000001    1    1    2    0    0  0.10945654178E+03  0.12252403315E+03  0.30096085704E+03  0.39104259449E+03  0.18800000000E+03 0.  0.
<mgrwt>
<rscale>  0 0.50177803E+03</rscale>
<asrwt>0</asrwt>
<pdfrwt beam="1">  1        2 0.90008418E-01 0.50177803E+03</pdfrwt>
<pdfrwt beam="2">  1       -2 0.14271975E-01 0.50177803E+03</pdfrwt>
<totfact> 0.19439488E+03</totfact>
</mgrwt>
</event>
<event>
 4    1  0.2153371E-005  0.4581021E+03  0.7818608E-02  0.1025333E+00
         -2   -1    0    0    0  501 -0.00000000000E+00  0.00000000000E+00  0.31851318250E+03  0.31851318251E+03  0.25500000000E-02 0. -1.
          2   -1    0    0  501    0  0.00000000000E+00 -0.00000000000E+00 -0.16471654537E+03  0.16471654539E+03  0.25500000000E-02 0.  1.
    5000001    1    1    2    0    0  0.96999393517E+02  0.76060036494E+02  0.30600314994E+02  0.22687968347E+03  0.18800000000E+03 0.  0.
   -5000001    1    1    2    0    0 -0.96999393517E+02 -0.76060036494E+02  0.12319632214E+03  0.25635004444E+03  0.18800000000E+03 0.  0.
<mgrwt>
<rscale>  0 0.45810213E+03</rscale>
<asrwt>0</asrwt>
<pdfrwt beam="1">  1        2 0.23530935E-01 0.45810213E+03</pdfrwt>
<pdfrwt beam="2">  1       -2 0.45501883E-01 0.45810213E+03</pdfrwt>
<totfact> 0.10767276E+03</totfact>
</mgrwt>
</event>
<event>
 4    1  0.2153371E-005  0.5560747E+03  0.7818608E-02  0.1000098E+00
         -2   -1    0    0    0  501 -0.00000000000E+00  0.00000000000E+00  0.42308215076E+02  0.42308215153E+02  0.25500000000E-02 0. -1.
          2   -1    0    0  501    0  0.00000000000E+00 -0.00000000000E+00 -0.18271807763E+04  0.18271807763E+04  0.25500000000E-02 0.  1.
    5000001    1    1    2    0    0  0.17608363776E+02  0.20369956536E+03 -0.93458672654E+03  0.97498713675E+03  0.18800000000E+03 0.  0.
   -5000001    1    1    2    0    0 -0.17608363776E+02 -0.20369956536E+03 -0.85028583468E+03  0.89450185470E+03  0.18800000000E+03 0.  0.
<mgrwt>
<rscale>  0 0.55607466E+03</rscale>
<asrwt>0</asrwt>
<pdfrwt beam="1">  1        2 0.26102578E+00 0.55607466E+03</pdfrwt>
<pdfrwt beam="2">  1       -2 0.60440319E-02 0.55607466E+03</pdfrwt>
<totfact> 0.15480991E+03</totfact>
</mgrwt>
</event>
<event>
 4    1  0.2153371E-005  0.6158671E+03  0.7818608E-02  0.9873023E-01
         -2   -1    0    0    0  501 -0.00000000000E+00  0.00000000000E+00  0.81112993291E+02  0.81112993331E+02  0.25500000000E-02 0. -1.
          2   -1    0    0  501    0  0.00000000000E+00 -0.00000000000E+00 -0.11690244140E+04  0.11690244140E+04  0.25500000000E-02 0.  1.
    5000001    1    1    2    0    0  0.13992197082E+03  0.19777410991E+03 -0.48703524010E+03  0.57553460501E+03  0.18800000000E+03 0.  0.
   -5000001    1    1    2    0    0 -0.13992197082E+03 -0.19777410991E+03 -0.60087618059E+03  0.67460280230E+03  0.18800000000E+03 0.  0.
<mgrwt>
<rscale>  0 0.61586709E+03</rscale>
<asrwt>0</asrwt>
<pdfrwt beam="1">  1        2 0.16700348E+00 0.61586709E+03</pdfrwt>
<pdfrwt beam="2">  1       -2 0.11587571E-01 0.61586709E+03</pdfrwt>
<totfact> 0.12093572E+03</totfact>
</mgrwt>
</event>
<event>
 4    1  0.2153371E-005  0.6735129E+03  0.7818608E-02  0.9763632E-01
         -2   -1    0    0    0  501 -0.00000000000E+00  0.00000000000E+00  0.15713425077E+03  0.15713425079E+03  0.25500000000E-02 0. -1.
          2   -1    0    0  501    0  0.00000000000E+00 -0.00000000000E+00 -0.72170709680E+03  0.72170709681E+03  0.25500000000E-02 0.  1.
    5000001    1    1    2    0    0 -0.14052701637E+03 -0.23086263565E+03 -0.37469704751E+03  0.49878580200E+03  0.18800000000E+03 0.  0.
   -5000001    1    1    2    0    0  0.14052701637E+03  0.23086263565E+03 -0.18987579853E+03  0.38005554559E+03  0.18800000000E+03 0.  0.
<mgrwt>
<rscale>  0 0.67351289E+03</rscale>
<asrwt>0</asrwt>
<pdfrwt beam="1">  1        2 0.10310101E+00 0.67351289E+03</pdfrwt>
<pdfrwt beam="2">  1       -2 0.22447751E-01 0.67351289E+03</pdfrwt>
<totfact> 0.75620420E+02</totfact>
</mgrwt>
</event>
<event>
 4    1  0.2153371E-005  0.7495491E+03  0.7818608E-02  0.9636058E-01
          2   -1    0    0  501    0  0.00000000000E+00  0.00000000000E+00  0.72843748509E+03  0.72843748509E+03  0.25500000000E-02 0.  1.
         -2   -1    0    0    0  501 -0.00000000000E+00 -0.00000000000E+00 -0.19281812605E+03  0.19281812607E+03  0.25500000000E-02 0. -1.
    5000001    1    1    2    0    0 -0.25291805799E+03  0.20175417043E+03  0.29358115528E+03  0.47561137926E+03  0.18800000000E+03 0.  0.
   -5000001    1    1    2    0    0  0.25291805799E+03 -0.20175417043E+03  0.24203820376E+03  0.44564423190E+03  0.18800000000E+03 0.  0.
<mgrwt>
<rscale>  0 0.74954907E+03</rscale>
<asrwt>0</asrwt>
<pdfrwt beam="1">  1        2 0.10406250E+00 0.74954907E+03</pdfrwt>
<pdfrwt beam="2">  1       -2 0.27545447E-01 0.74954907E+03</pdfrwt>
<totfact> 0.51607762E+02</totfact>
</mgrwt>
</event>
<event>
 4    1  0.2153371E-005  0.4349151E+03  0.7818608E-02  0.1032318E+00
          2   -1    0    0  501    0  0.00000000000E+00  0.00000000000E+00  0.97683260990E+03  0.97683260991E+03  0.25500000000E-02 0.  1.
         -2   -1    0    0    0  501 -0.00000000000E+00 -0.00000000000E+00 -0.48409295099E+02  0.48409295166E+02  0.25500000000E-02 0. -1.
    5000001    1    1    2    0    0  0.10535764387E+03 -0.12301670840E+02  0.52623312688E+03  0.56878543235E+03  0.18800000000E+03 0.  0.
   -5000001    1    1    2    0    0 -0.10535764387E+03  0.12301670840E+02  0.40219018793E+03  0.45645647273E+03  0.18800000000E+03 0.  0.
<mgrwt>
<rscale>  0 0.43491506E+03</rscale>
<asrwt>0</asrwt>
<pdfrwt beam="1">  1        2 0.13954751E+00 0.43491506E+03</pdfrwt>
<pdfrwt beam="2">  1       -2 0.69156141E-02 0.43491506E+03</pdfrwt>
<totfact> 0.35901371E+03</totfact>
</mgrwt>
</event>
<event>
 4    1  0.2153371E-005  0.5910780E+03  0.7818608E-02  0.9924091E-01
         -2   -1    0    0    0  501 -0.00000000000E+00  0.00000000000E+00  0.28421388163E+03  0.28421388164E+03  0.25500000000E-02 0. -1.
          2   -1    0    0  501    0  0.00000000000E+00 -0.00000000000E+00 -0.30731537605E+03  0.30731537606E+03  0.25500000000E-02 0.  1.
    5000001    1    1    2    0    0 -0.10793732691E+03 -0.13275143460E+03  0.13931542040E+03  0.28987272429E+03  0.18800000000E+03 0.  0.
   -5000001    1    1    2    0    0  0.10793732691E+03  0.13275143460E+03 -0.16241691482E+03  0.30165653341E+03  0.18800000000E+03 0.  0.
<mgrwt>
<rscale>  0 0.59107798E+03</rscale>
<asrwt>0</asrwt>
<pdfrwt beam="1">  1        2 0.43902197E-01 0.59107798E+03</pdfrwt>
<pdfrwt beam="2">  1       -2 0.40601983E-01 0.59107798E+03</pdfrwt>
<totfact> 0.67068462E+02</totfact>
</mgrwt>
</event>
<event>
 4    1  0.2153371E-005  0.9219033E+03  0.7818608E-02  0.9398608E-01
         -2   -1    0    0    0  501 -0.00000000000E+00  0.00000000000E+00  0.54641112718E+03  0.54641112719E+03  0.25500000000E-02 0.  1.
          2   -1    0    0  501    0  0.00000000000E+00 -0.00000000000E+00 -0.38885817864E+03  0.38885817865E+03  0.25500000000E-02 0. -1.
    5000001    1    1    2    0    0  0.31006781215E+03 -0.25858395629E+03  0.19934704102E+03  0.48794564589E+03  0.18800000000E+03 0.  0.
   -5000001    1    1    2    0    0 -0.31006781215E+03  0.25858395629E+03 -0.41794092483E+02  0.44732365995E+03  0.18800000000E+03 0.  0.
<mgrwt>
<rscale>  0 0.92190333E+03</rscale>
<asrwt>0</asrwt>
<pdfrwt beam="1">  1        2 0.55551169E-01 0.92190333E+03</pdfrwt>
<pdfrwt beam="2">  1       -2 0.78058732E-01 0.92190333E+03</pdfrwt>
<totfact> 0.13077941E+02</totfact>
</mgrwt>
</event>
<event>
 4    1  0.2153371E-005  0.1405836E+04  0.7818608E-02  0.8949605E-01
          2   -1    0    0  501    0  0.00000000000E+00  0.00000000000E+00  0.36376517994E+04  0.36376517994E+04  0.25500000000E-02 0.  1.
         -2   -1    0    0    0  501 -0.00000000000E+00 -0.00000000000E+00 -0.13582755926E+03  0.13582755929E+03  0.25500000000E-02 0. -1.
    5000001    1    1    2    0    0  0.62516264874E+03 -0.52308773177E+02  0.24362120827E+04  0.25227044728E+04  0.18800000000E+03 0.  0.
   -5000001    1    1    2    0    0 -0.62516264874E+03  0.52308773177E+02  0.10656121575E+04  0.12507748859E+04  0.18800000000E+03 0.  0.
<mgrwt>
<rscale>  0 0.14058355E+04</rscale>
<asrwt>0</asrwt>
<pdfrwt beam="1">  1        2 0.51966466E+00 0.14058355E+04</pdfrwt>
<pdfrwt beam="2">  1       -2 0.19403933E-01 0.14058355E+04</pdfrwt>
<totfact> 0.22000343E+01</totfact>
</mgrwt>
</event>
<event>
 4    1  0.2153371E-005  0.7493547E+03  0.7818608E-02  0.9636363E-01
         -2   -1    0    0    0  501 -0.00000000000E+00  0.00000000000E+00  0.59141235792E+02  0.59141235847E+02  0.25500000000E-02 0. -1.
          2   -1    0    0  501    0  0.00000000000E+00 -0.00000000000E+00 -0.23736925738E+04  0.23736925738E+04  0.25500000000E-02 0.  1.
    5000001    1    1    2    0    0  0.25075732207E+03 -0.10838866613E+03 -0.59110691663E+03  0.67777483312E+03  0.18800000000E+03 0.  0.
   -5000001    1    1    2    0    0 -0.25075732207E+03  0.10838866613E+03 -0.17234444214E+04  0.17550589765E+04  0.18800000000E+03 0.  0.
<mgrwt>
<rscale>  0 0.74935469E+03</rscale>
<asrwt>0</asrwt>
<pdfrwt beam="1">  1        2 0.33909888E+00 0.74935469E+03</pdfrwt>
<pdfrwt beam="2">  1       -2 0.84487495E-02 0.74935469E+03</pdfrwt>
<totfact> 0.47655471E+02</totfact>
</mgrwt>
</event>
<event>
 4    1  0.2153371E-005  0.4293242E+03  0.7818608E-02  0.1034074E+00
         -2   -1    0    0    0  501 -0.00000000000E+00  0.00000000000E+00  0.14982439474E+03  0.14982439477E+03  0.25500000000E-02 0. -1.
          2   -1    0    0  501    0  0.00000000000E+00 -0.00000000000E+00 -0.30755880956E+03  0.30755880957E+03  0.25500000000E-02 0.  1.
    5000001    1    1    2    0    0  0.83313629075E+02 -0.60324479065E+02 -0.65577600700E+02  0.22410851228E+03  0.18800000000E+03 0.  0.
   -5000001    1    1    2    0    0 -0.83313629075E+02  0.60324479065E+02 -0.92156814114E+02  0.23327469205E+03  0.18800000000E+03 0.  0.
<mgrwt>
<rscale>  0 0.42932418E+03</rscale>
<asrwt>0</asrwt>
<pdfrwt beam="1">  1        2 0.43936973E-01 0.42932418E+03</pdfrwt>
<pdfrwt beam="2">  1       -2 0.21403485E-01 0.42932418E+03</pdfrwt>
<totfact> 0.21729273E+03</totfact>
</mgrwt>
</event>
<event>
 4    1  0.2153371E-005  0.9076483E+03  0.7818608E-02  0.9416071E-01
          2   -1    0    0  501    0  0.00000000000E+00  0.00000000000E+00  0.90447252231E+03  0.90447252231E+03  0.25500000000E-02 0.  1.
         -2   -1    0    0    0  501 -0.00000000000E+00 -0.00000000000E+00 -0.22770880624E+03  0.22770880626E+03  0.25500000000E-02 0. -1.
    5000001    1    1    2    0    0  0.36733626657E+03  0.18771635194E+03  0.31224646239E+03  0.55046817782E+03  0.18800000000E+03 0.  0.
   -5000001    1    1    2    0    0 -0.36733626657E+03 -0.18771635194E+03  0.36451725367E+03  0.58171315074E+03  0.18800000000E+03 0.  0.
<mgrwt>
<rscale>  0 0.90764830E+03</rscale>
<asrwt>0</asrwt>
<pdfrwt beam="1">  1        2 0.12921036E+00 0.90764830E+03</pdfrwt>
<pdfrwt beam="2">  1       -2 0.32529830E-01 0.90764830E+03</pdfrwt>
<totfact> 0.28434931E+02</totfact>
</mgrwt>
</event>
<event>
 4    1  0.2153371E-005  0.3969782E+03  0.7818608E-02  0.1044831E+00
          2   -1    0    0  501    0  0.00000000000E+00  0.00000000000E+00  0.28737119230E+03  0.28737119231E+03  0.25500000000E-02 0.  1.
         -2   -1    0    0    0  501 -0.00000000000E+00 -0.00000000000E+00 -0.13709770379E+03  0.13709770381E+03  0.25500000000E-02 0. -1.
    5000001    1    1    2    0    0 -0.42528177910E+02  0.46742396159E+02  0.83448955675E+02  0.21517719609E+03  0.18800000000E+03 0.  0.
   -5000001    1    1    2    0    0  0.42528177910E+02 -0.46742396159E+02  0.66824532836E+02  0.20929170004E+03  0.18800000000E+03 0.  0.
<mgrwt>
<rscale>  0 0.39697824E+03</rscale>
<asrwt>0</asrwt>
<pdfrwt beam="1">  1        2 0.41053027E-01 0.39697824E+03</pdfrwt>
<pdfrwt beam="2">  1       -2 0.19585386E-01 0.39697824E+03</pdfrwt>
<totfact> 0.27259893E+03</totfact>
</mgrwt>
</event>
<event>
 4    1  0.2153371E-005  0.4712985E+03  0.7818608E-02  0.1021554E+00
         -2   -1    0    0    0  501 -0.00000000000E+00  0.00000000000E+00  0.35580092468E+02  0.35580092559E+02  0.25500000000E-02 0. -1.
          2   -1    0    0  501    0  0.00000000000E+00 -0.00000000000E+00 -0.15607202157E+04  0.15607202158E+04  0.25500000000E-02 0.  1.
    5000001    1    1    2    0    0 -0.53266361583E+02 -0.12747366798E+03 -0.65024898685E+03  0.69083615004E+03  0.18800000000E+03 0.  0.
   -5000001    1    1    2    0    0  0.53266361583E+02  0.12747366798E+03 -0.87489113644E+03  0.90546415827E+03  0.18800000000E+03 0.  0.
<mgrwt>
<rscale>  0 0.47129850E+03</rscale>
<asrwt>0</asrwt>
<pdfrwt beam="1">  1        2 0.22295999E+00 0.47129850E+03</pdfrwt>
<pdfrwt beam="2">  1       -2 0.50828713E-02 0.47129850E+03</pdfrwt>
<totfact> 0.27716212E+03</totfact>
</mgrwt>
</event>
<event>
 4    1  0.2153371E-005  0.5442733E+03  0.7818608E-02  0.1002828E+00
         -2   -1    0    0    0  501 -0.00000000000E+00  0.00000000000E+00  0.14285795131E+03  0.14285795133E+03  0.25500000000E-02 0. -1.
          2   -1    0    0  501    0  0.00000000000E+00 -0.00000000000E+00 -0.51840559398E+03  0.51840559398E+03  0.25500000000E-02 0.  1.
    5000001    1    1    2    0    0 -0.16651305967E+03 -0.10207052975E+03 -0.21676423801E+03  0.34709613504E+03  0.18800000000E+03 0.  0.
   -5000001    1    1    2    0    0  0.16651305967E+03  0.10207052975E+03 -0.15878340466E+03  0.31416741027E+03  0.18800000000E+03 0.  0.
<mgrwt>
<rscale>  0 0.54427332E+03</rscale>
<asrwt>0</asrwt>
<pdfrwt beam="1">  1        2 0.74057941E-01 0.54427332E+03</pdfrwt>
<pdfrwt beam="2">  1       -2 0.20408279E-01 0.54427332E+03</pdfrwt>
<totfact> 0.13255283E+03</totfact>
</mgrwt>
</event>
<event>
 4    1  0.2153371E-005  0.5108810E+03  0.7818608E-02  0.1010977E+00
         -2   -1    0    0    0  501 -0.00000000000E+00  0.00000000000E+00  0.89317962578E+02  0.89317962615E+02  0.25500000000E-02 0. -1.
          2   -1    0    0  501    0  0.00000000000E+00 -0.00000000000E+00 -0.73053453007E+03  0.73053453007E+03  0.25500000000E-02 0.  1.
    5000001    1    1    2    0    0 -0.87457866959E+02 -0.14363497724E+03 -0.25589814975E+03  0.35931566655E+03  0.18800000000E+03 0.  0.
   -5000001    1    1    2    0    0  0.87457866959E+02  0.14363497724E+03 -0.38531841774E+03  0.46053682614E+03  0.18800000000E+03 0.  0.
<mgrwt>
<rscale>  0 0.51088103E+03</rscale>
<asrwt>0</asrwt>
<pdfrwt beam="1">  1        2 0.10436207E+00 0.51088103E+03</pdfrwt>
<pdfrwt beam="2">  1       -2 0.12759709E-01 0.51088103E+03</pdfrwt>
<totfact> 0.19583033E+03</totfact>
</mgrwt>
</event>
<event>
 4    1  0.2153371E-005  0.5403595E+03  0.7818608E-02  0.1003750E+00
          2   -1    0    0  501    0  0.00000000000E+00  0.00000000000E+00  0.13409763116E+04  0.13409763116E+04  0.25500000000E-02 0.  1.
         -2   -1    0    0    0  501 -0.00000000000E+00 -0.00000000000E+00 -0.54435786899E+02  0.54435786959E+02  0.25500000000E-02 0. -1.
    5000001    1    1    2    0    0  0.12550000484E+03  0.99286998563E+02  0.35985578586E+03  0.43640387936E+03  0.18800000000E+03 0.  0.
   -5000001    1    1    2    0    0 -0.12550000484E+03 -0.99286998563E+02  0.92668473880E+03  0.95900821916E+03  0.18800000000E+03 0.  0.
<mgrwt>
<rscale>  0 0.54035951E+03</rscale>
<asrwt>0</asrwt>
<pdfrwt beam="1">  1        2 0.19156800E+00 0.54035951E+03</pdfrwt>
<pdfrwt beam="2">  1       -2 0.77765428E-02 0.54035951E+03</pdfrwt>
<totfact> 0.18541514E+03</totfact>
</mgrwt>
</event>
<event>
 4    1  0.2153371E-005  0.5738615E+03  0.7818608E-02  0.9961170E-01
         -2   -1    0    0    0  501 -0.00000000000E+00  0.00000000000E+00  0.44019489718E+03  0.44019489718E+03  0.25500000000E-02 0. -1.
          2   -1    0    0  501    0  0.00000000000E+00 -0.00000000000E+00 -0.18702912422E+03  0.18702912424E+03  0.25500000000E-02 0.  1.
    5000001    1    1    2    0    0 -0.19888151135E+03  0.78115165712E+02  0.86731031807E+02  0.29752664847E+03  0.18800000000E+03 0.  0.
   -5000001    1    1    2    0    0  0.19888151135E+03 -0.78115165712E+02  0.16643474115E+03  0.32969737295E+03  0.18800000000E+03 0.  0.
<mgrwt>
<rscale>  0 0.57386154E+03</rscale>
<asrwt>0</asrwt>
<pdfrwt beam="1">  1        2 0.26718446E-01 0.57386154E+03</pdfrwt>
<pdfrwt beam="2">  1       -2 0.62884986E-01 0.57386154E+03</pdfrwt>
<totfact> 0.47996395E+02</totfact>
</mgrwt>
</event>
<event>
 4    1  0.2153371E-005  0.1120403E+04  0.7818608E-02  0.9185531E-01
         -2   -1    0    0    0  501 -0.00000000000E+00  0.00000000000E+00  0.57958713333E+03  0.57958713334E+03  0.25500000000E-02 0. -1.
          2   -1    0    0  501    0  0.00000000000E+00 -0.00000000000E+00 -0.54146444547E+03  0.54146444547E+03  0.25500000000E-02 0.  1.
    5000001    1    1    2    0    0  0.50512265176E+03  0.34579697719E+02 -0.12981043470E+03  0.55546322810E+03  0.18800000000E+03 0.  0.
   -5000001    1    1    2    0    0 -0.50512265176E+03 -0.34579697719E+02  0.16793312256E+03  0.56558835072E+03  0.18800000000E+03 0.  0.
<mgrwt>
<rscale>  0 0.11204032E+04</rscale>
<asrwt>0</asrwt>
<pdfrwt beam="1">  1        2 0.77352063E-01 0.11204032E+04</pdfrwt>
<pdfrwt beam="2">  1       -2 0.82798162E-01 0.11204032E+04</pdfrwt>
<totfact> 0.77751943E+01</totfact>
</mgrwt>
</event>
<event>
 4    1  0.2153371E-005  0.5831675E+03  0.7818608E-02  0.9940957E-01
         -2   -1    0    0    0  501 -0.00000000000E+00  0.00000000000E+00  0.16317996826E+03  0.16317996828E+03  0.25500000000E-02 0. -1.
          2   -1    0    0  501    0  0.00000000000E+00 -0.00000000000E+00 -0.52102643362E+03  0.52102643363E+03  0.25500000000E-02 0.  1.
    5000001    1    1    2    0    0  0.21682725037E+03 -0.27128614274E+01 -0.23938490258E+03  0.37372523022E+03  0.18800000000E+03 0.  0.
   -5000001    1    1    2    0    0 -0.21682725037E+03  0.27128614274E+01 -0.11846156278E+03  0.31048117169E+03  0.18800000000E+03 0.  0.
<mgrwt>
<rscale>  0 0.58316748E+03</rscale>
<asrwt>0</asrwt>
<pdfrwt beam="1">  1        2 0.74432347E-01 0.58316748E+03</pdfrwt>
<pdfrwt beam="2">  1       -2 0.23311424E-01 0.58316748E+03</pdfrwt>
<totfact> 0.10426987E+03</totfact>
</mgrwt>
</event>
<event>
 4    1  0.2153371E-005  0.4841267E+03  0.7818608E-02  0.1018007E+00
          2   -1    0    0  501    0  0.00000000000E+00  0.00000000000E+00  0.14545982586E+04  0.14545982586E+04  0.25500000000E-02 0.  1.
         -2   -1    0    0    0  501 -0.00000000000E+00 -0.00000000000E+00 -0.40282369149E+02  0.40282369230E+02  0.25500000000E-02 0. -1.
    5000001    1    1    2    0    0 -0.82180466776E+02  0.86613175346E+02  0.41430289140E+03  0.47036832067E+03  0.18800000000E+03 0.  0.
   -5000001    1    1    2    0    0  0.82180466776E+02 -0.86613175346E+02  0.10000129980E+04  0.10245123071E+04  0.18800000000E+03 0.  0.
<mgrwt>
<rscale>  0 0.48412669E+03</rscale>
<asrwt>0</asrwt>
<pdfrwt beam="1">  1        2 0.20779971E+00 0.48412669E+03</pdfrwt>
<pdfrwt beam="2">  1       -2 0.57546252E-02 0.48412669E+03</pdfrwt>
<totfact> 0.25937782E+03</totfact>
</mgrwt>
</event>
<event>
 4    1  0.2153371E-005  0.1946200E+04  0.7818608E-02  0.8632195E-01
         -2   -1    0    0    0  501 -0.00000000000E+00  0.00000000000E+00  0.51886654565E+03  0.51886654566E+03  0.25500000000E-02 0. -1.
          2   -1    0    0  501    0  0.00000000000E+00 -0.00000000000E+00 -0.18249854737E+04  0.18249854737E+04  0.25500000000E-02 0.  1.
    5000001    1    1    2    0    0 -0.85248262062E+03  0.27563559643E+03 -0.25567275843E+03  0.95048101500E+03  0.18800000000E+03 0.  0.
   -5000001    1    1    2    0    0  0.85248262062E+03 -0.27563559643E+03 -0.10504461696E+04  0.13933710043E+04  0.18800000000E+03 0.  0.
<mgrwt>
<rscale>  0 0.19462003E+04</rscale>
<asrwt>0</asrwt>
<pdfrwt beam="1">  1        2 0.26071221E+00 0.19462003E+04</pdfrwt>
<pdfrwt beam="2">  1       -2 0.74123793E-01 0.19462003E+04</pdfrwt>
<totfact> 0.15161162E+01</totfact>
</mgrwt>
</event>
<event>
 4    1  0.2153371E-005  0.9460444E+03  0.7818608E-02  0.9369786E-01
          2   -1    0    0  501    0  0.00000000000E+00  0.00000000000E+00  0.18233403518E+04  0.18233403518E+04  0.25500000000E-02 0.  1.
         -2   -1    0    0    0  501 -0.00000000000E+00 -0.00000000000E+00 -0.12271434689E+03  0.12271434692E+03  0.25500000000E-02 0. -1.
    5000001    1    1    2    0    0  0.30799454057E+03  0.28308178711E+02  0.22386289473E+03  0.42558264255E+03  0.18800000000E+03 0.  0.
   -5000001    1    1    2    0    0 -0.30799454057E+03 -0.28308178711E+02  0.14767631102E+04  0.15204720562E+04  0.18800000000E+03 0.  0.
<mgrwt>
<rscale>  0 0.94604444E+03</rscale>
<asrwt>0</asrwt>
<pdfrwt beam="1">  1        2 0.26047718E+00 0.94604444E+03</pdfrwt>
<pdfrwt beam="2">  1       -2 0.17530622E-01 0.94604444E+03</pdfrwt>
<totfact> 0.26658400E+02</totfact>
</mgrwt>
</event>
<event>
 4    1  0.2153371E-005  0.1234974E+04  0.7818608E-02  0.9082783E-01
         -2   -1    0    0    0  501 -0.00000000000E+00  0.00000000000E+00  0.69525093069E+03  0.69525093069E+03  0.25500000000E-02 0. -1.
          2   -1    0    0  501    0  0.00000000000E+00 -0.00000000000E+00 -0.54842090640E+03  0.54842090640E+03  0.25500000000E-02 0.  1.
    5000001    1    1    2    0    0 -0.27803425485E+03  0.51618105379E+03  0.12065186042E+03  0.62741278165E+03  0.18800000000E+03 0.  0.
   -5000001    1    1    2    0    0  0.27803425485E+03 -0.51618105379E+03  0.26178163869E+02  0.61625905545E+03  0.18800000000E+03 0.  0.
<mgrwt>
<rscale>  0 0.12349739E+04</rscale>
<asrwt>0</asrwt>
<pdfrwt beam="1">  1        2 0.78345843E-01 0.12349739E+04</pdfrwt>
<pdfrwt beam="2">  1       -2 0.99321562E-01 0.12349739E+04</pdfrwt>
<totfact> 0.49920297E+01</totfact>
</mgrwt>
</event>
<event>
 4    1  0.2153371E-005  0.4880775E+03  0.7818608E-02  0.1016939E+00
          2   -1    0    0  501    0  0.00000000000E+00  0.00000000000E+00  0.10646258516E+04  0.10646258516E+04  0.25500000000E-02 0.  1.
         -2   -1    0    0    0  501 -0.00000000000E+00 -0.00000000000E+00 -0.55939767834E+02  0.55939767892E+02  0.25500000000E-02 0. -1.
    5000001    1    1    2    0    0  0.89648491564E+02  0.39476266420E+00  0.21236106540E+03  0.29745290379E+03  0.18800000000E+03 0.  0.
   -5000001    1    1    2    0    0 -0.89648491564E+02 -0.39476266420E+00  0.79632501841E+03  0.82311271575E+03  0.18800000000E+03 0.  0.
<mgrwt>
<rscale>  0 0.48807755E+03</rscale>
<asrwt>0</asrwt>
<pdfrwt beam="1">  1        2 0.15208939E+00 0.48807755E+03</pdfrwt>
<pdfrwt beam="2">  1       -2 0.79913961E-02 0.48807755E+03</pdfrwt>
<totfact> 0.25344655E+03</totfact>
</mgrwt>
</event>
<event>
 4    1  0.2153371E-005  0.4202295E+03  0.7818608E-02  0.1036992E+00
         -2   -1    0    0    0  501 -0.00000000000E+00  0.00000000000E+00  0.48347645099E+02  0.48347645167E+02  0.25500000000E-02 0. -1.
          2   -1    0    0  501    0  0.00000000000E+00 -0.00000000000E+00 -0.91314068239E+03  0.91314068239E+03  0.25500000000E-02 0.  1.
    5000001    1    1    2    0    0  0.18811213794E+02  0.91723273036E+02 -0.41844509342E+03  0.46819581031E+03  0.18800000000E+03 0.  0.
   -5000001    1    1    2    0    0 -0.18811213794E+02 -0.91723273036E+02 -0.44634794386E+03  0.49329251725E+03  0.18800000000E+03 0.  0.
<mgrwt>
<rscale>  0 0.42022947E+03</rscale>
<asrwt>0</asrwt>
<pdfrwt beam="1">  1        2 0.13044866E+00 0.42022947E+03</pdfrwt>
<pdfrwt beam="2">  1       -2 0.69068070E-02 0.42022947E+03</pdfrwt>
<totfact> 0.39385330E+03</totfact>
</mgrwt>
</event>
<event>
 4    1  0.2153371E-005  0.7208130E+03  0.7818608E-02  0.9682287E-01
         -2   -1    0    0    0  501 -0.00000000000E+00  0.00000000000E+00  0.38313501867E+02  0.38313501952E+02  0.25500000000E-02 0. -1.
          2   -1    0    0  501    0  0.00000000000E+00 -0.00000000000E+00 -0.33902628970E+04  0.33902628971E+04  0.25500000000E-02 0.  1.
    5000001    1    1    2    0    0 -0.24173334956E+03  0.17312712649E+03 -0.20487136257E+04  0.20786965950E+04  0.18800000000E+03 0.  0.
   -5000001    1    1    2    0    0  0.24173334956E+03 -0.17312712649E+03 -0.13032357695E+04  0.13498798040E+04  0.18800000000E+03 0.  0.
<mgrwt>
<rscale>  0 0.72081300E+03</rscale>
<asrwt>0</asrwt>
<pdfrwt beam="1">  1        2 0.48432308E+00 0.72081300E+03</pdfrwt>
<pdfrwt beam="2">  1       -2 0.54733595E-02 0.72081300E+03</pdfrwt>
<totfact> 0.26756763E+02</totfact>
</mgrwt>
</event>
<event>
 4    1  0.2153371E-005  0.6694943E+03  0.7818608E-02  0.9770872E-01
          2   -1    0    0  501    0  0.00000000000E+00  0.00000000000E+00  0.87314512819E+03  0.87314512820E+03  0.25500000000E-02 0.  1.
         -2   -1    0    0    0  501 -0.00000000000E+00 -0.00000000000E+00 -0.12833564841E+03  0.12833564843E+03  0.25500000000E-02 0. -1.
    5000001    1    1    2    0    0 -0.19290839778E+03  0.11199031336E+02  0.75585071615E+02  0.27999316293E+03  0.18800000000E+03 0.  0.
   -5000001    1    1    2    0    0  0.19290839778E+03 -0.11199031336E+02  0.66922440817E+03  0.72148761370E+03  0.18800000000E+03 0.  0.
<mgrwt>
<rscale>  0 0.66949428E+03</rscale>
<asrwt>0</asrwt>
<pdfrwt beam="1">  1        2 0.12473502E+00 0.66949428E+03</pdfrwt>
<pdfrwt beam="2">  1       -2 0.18333664E-01 0.66949428E+03</pdfrwt>
<totfact> 0.84437962E+02</totfact>
</mgrwt>
</event>
<event>
 4    1  0.2153371E-005  0.8025093E+03  0.7818608E-02  0.9556392E-01
         -2   -1    0    0    0  501 -0.00000000000E+00  0.00000000000E+00  0.23498013138E+03  0.23498013139E+03  0.25500000000E-02 0. -1.
          2   -1    0    0  501    0  0.00000000000E+00 -0.00000000000E+00 -0.68518683278E+03  0.68518683278E+03  0.25500000000E-02 0.  1.
    5000001    1    1    2    0    0  0.17286161761E+03 -0.98306303890E+02 -0.56158280465E+03  0.62471154520E+03  0.18800000000E+03 0.  0.
   -5000001    1    1    2    0    0 -0.17286161761E+03  0.98306303890E+02  0.11137610325E+03  0.29545541898E+03  0.18800000000E+03 0.  0.
<mgrwt>
<rscale>  0 0.80250929E+03</rscale>
<asrwt>0</asrwt>
<pdfrwt beam="1">  1        2 0.97883832E-01 0.80250929E+03</pdfrwt>
<pdfrwt beam="2">  1       -2 0.33568591E-01 0.80250929E+03</pdfrwt>
<totfact> 0.38468522E+02</totfact>
</mgrwt>
</event>
<event>
 4    1  0.2153371E-005  0.5332418E+03  0.7818608E-02  0.1005449E+00
          2   -1    0    0  501    0  0.00000000000E+00  0.00000000000E+00  0.24821162043E+03  0.24821162045E+03  0.25500000000E-02 0.  1.
         -2   -1    0    0    0  501 -0.00000000000E+00 -0.00000000000E+00 -0.28639553205E+03  0.28639553206E+03  0.25500000000E-02 0. -1.
    5000001    1    1    2    0    0  0.14406782534E+03 -0.11818365474E+03 -0.51107789100E+02  0.26959028294E+03  0.18800000000E+03 0.  0.
   -5000001    1    1    2    0    0 -0.14406782534E+03  0.11818365474E+03  0.12923877484E+02  0.26501686957E+03  0.18800000000E+03 0.  0.
<mgrwt>
<rscale>  0 0.53324178E+03</rscale>
<asrwt>0</asrwt>
<pdfrwt beam="1">  1        2 0.35458803E-01 0.53324178E+03</pdfrwt>
<pdfrwt beam="2">  1       -2 0.40913647E-01 0.53324178E+03</pdfrwt>
<totfact> 0.83705362E+02</totfact>
</mgrwt>
</event>
<event>
 4    1  0.2153371E-005  0.8578149E+03  0.7818608E-02  0.9479908E-01
          2   -1    0    0  501    0  0.00000000000E+00  0.00000000000E+00  0.56098122477E+03  0.56098122478E+03  0.25500000000E-02 0.  1.
         -2   -1    0    0    0  501 -0.00000000000E+00 -0.00000000000E+00 -0.32792828563E+03  0.32792828564E+03  0.25500000000E-02 0. -1.
    5000001    1    1    2    0    0 -0.11759213055E+03 -0.36679462518E+03  0.13295697754E+03  0.44876248072E+03  0.18800000000E+03 0.  0.
   -5000001    1    1    2    0    0  0.11759213055E+03  0.36679462518E+03  0.10009596160E+03  0.44014702970E+03  0.18800000000E+03 0.  0.
<mgrwt>
<rscale>  0 0.85781492E+03</rscale>
<asrwt>0</asrwt>
<pdfrwt beam="1">  1        2 0.80140174E-01 0.85781492E+03</pdfrwt>
<pdfrwt beam="2">  1       -2 0.46846898E-01 0.85781492E+03</pdfrwt>
<totfact> 0.25477433E+02</totfact>
</mgrwt>
</event>
<event>
 4    1  0.2153371E-005  0.4679620E+03  0.7818608E-02  0.1022497E+00
          2   -1    0    0  501    0  0.00000000000E+00  0.00000000000E+00  0.25696598068E+04  0.25696598068E+04  0.25500000000E-02 0.  1.
         -2   -1    0    0    0  501 -0.00000000000E+00 -0.00000000000E+00 -0.21305196642E+02  0.21305196795E+02  0.25500000000E-02 0. -1.
    5000001    1    1    2    0    0 -0.14075289150E+02 -0.13784924881E+03  0.11953734136E+04  0.12179746004E+04  0.18800000000E+03 0.  0.
   -5000001    1    1    2    0    0  0.14075289150E+02  0.13784924881E+03  0.13529811965E+04  0.13729904032E+04  0.18800000000E+03 0.  0.
<mgrwt>
<rscale>  0 0.46796200E+03</rscale>
<asrwt>0</asrwt>
<pdfrwt beam="1">  1        2 0.36709406E+00 0.46796200E+03</pdfrwt>
<pdfrwt beam="2">  1       -2 0.30436012E-02 0.46796200E+03</pdfrwt>
<totfact> 0.18875059E+03</totfact>
</mgrwt>
</event>
<event>
 4    1  0.2153371E-005  0.4806320E+03  0.7818608E-02  0.1018962E+00
         -2   -1    0    0    0  501 -0.00000000000E+00  0.00000000000E+00  0.39056486834E+02  0.39056486917E+02  0.25500000000E-02 0. -1.
          2   -1    0    0  501    0  0.00000000000E+00 -0.00000000000E+00 -0.14786731614E+04  0.14786731614E+04  0.25500000000E-02 0.  1.
    5000001    1    1    2    0    0  0.78134127996E+02 -0.10227509119E+03 -0.47843660744E+03  0.52991577027E+03  0.18800000000E+03 0.  0.
   -5000001    1    1    2    0    0 -0.78134127996E+02  0.10227509119E+03 -0.96118006712E+03  0.98781387805E+03  0.18800000000E+03 0.  0.
<mgrwt>
<rscale>  0 0.48063200E+03</rscale>
<asrwt>0</asrwt>
<pdfrwt beam="1">  1        2 0.21123899E+00 0.48063200E+03</pdfrwt>
<pdfrwt beam="2">  1       -2 0.55794990E-02 0.48063200E+03</pdfrwt>
<totfact> 0.26441244E+03</totfact>
</mgrwt>
</event>
<event>
 4    1  0.2153371E-005  0.4245846E+03  0.7818608E-02  0.1035584E+00
          2   -1    0    0  501    0  0.00000000000E+00  0.00000000000E+00  0.22006543925E+04  0.22006543925E+04  0.25500000000E-02 0.  1.
         -2   -1    0    0    0  501 -0.00000000000E+00 -0.00000000000E+00 -0.20479371408E+02  0.20479371566E+02  0.25500000000E-02 0. -1.
    5000001    1    1    2    0    0 -0.60615759210E+02  0.65220843992E+02  0.86838916613E+03  0.89295675853E+03  0.18800000000E+03 0.  0.
   -5000001    1    1    2    0    0  0.60615759210E+02 -0.65220843992E+02  0.13117858549E+04  0.13281770055E+04  0.18800000000E+03 0.  0.
<mgrwt>
<rscale>  0 0.42458459E+03</rscale>
<asrwt>0</asrwt>
<pdfrwt beam="1">  1        2 0.31437934E+00 0.42458459E+03</pdfrwt>
<pdfrwt beam="2">  1       -2 0.29256232E-02 0.42458459E+03</pdfrwt>
<totfact> 0.30812994E+03</totfact>
</mgrwt>
</event>
<event>
 4    1  0.2153371E-005  0.5768940E+03  0.7818608E-02  0.9954538E-01
          2   -1    0    0  501    0  0.00000000000E+00  0.00000000000E+00  0.88064706213E+03  0.88064706213E+03  0.25500000000E-02 0.  1.
         -2   -1    0    0    0  501 -0.00000000000E+00 -0.00000000000E+00 -0.94477901123E+02  0.94477901157E+02  0.25500000000E-02 0. -1.
    5000001    1    1    2    0    0 -0.34467691997E+02  0.14158752404E+03  0.66888171727E+03  0.70991675600E+03  0.18800000000E+03 0.  0.
   -5000001    1    1    2    0    0  0.34467691997E+02 -0.14158752404E+03  0.11728744374E+03  0.26520820729E+03  0.18800000000E+03 0.  0.
<mgrwt>
<rscale>  0 0.57689405E+03</rscale>
<asrwt>0</asrwt>
<pdfrwt beam="1">  1        2 0.12580672E+00 0.57689405E+03</pdfrwt>
<pdfrwt beam="2">  1       -2 0.13496843E-01 0.57689405E+03</pdfrwt>
<totfact> 0.14052577E+03</totfact>
</mgrwt>
</event>
<event>
 4    1  0.2153371E-005  0.7637340E+03  0.7818608E-02  0.9614047E-01
         -2   -1    0    0    0  501 -0.00000000000E+00  0.00000000000E+00  0.17987306457E+03  0.17987306459E+03  0.25500000000E-02 0. -1.
          2   -1    0    0  501    0  0.00000000000E+00 -0.00000000000E+00 -0.81069617999E+03  0.81069617999E+03  0.25500000000E-02 0.  1.
    5000001    1    1    2    0    0 -0.23040900889E+03 -0.18468557481E+03 -0.11751117272E+03  0.36925593920E+03  0.18800000000E+03 0.  0.
   -5000001    1    1    2    0    0  0.23040900889E+03  0.18468557481E+03 -0.51331194270E+03  0.62131330538E+03  0.18800000000E+03 0.  0.
<mgrwt>
<rscale>  0 0.76373400E+03</rscale>
<asrwt>0</asrwt>
<pdfrwt beam="1">  1        2 0.11581374E+00 0.76373400E+03</pdfrwt>
<pdfrwt beam="2">  1       -2 0.25696153E-01 0.76373400E+03</pdfrwt>
<totfact> 0.51101466E+02</totfact>
</mgrwt>
</event>
<event>
 4    1  0.2153371E-005  0.4445307E+03  0.7818608E-02  0.1029366E+00
          2   -1    0    0  501    0  0.00000000000E+00  0.00000000000E+00  0.65807538540E+03  0.65807538541E+03  0.25500000000E-02 0.  1.
         -2   -1    0    0    0  501 -0.00000000000E+00 -0.00000000000E+00 -0.75070258510E+02  0.75070258553E+02  0.25500000000E-02 0. -1.
    5000001    1    1    2    0    0 -0.11445803101E+03 -0.18373068872E+02  0.25044702029E+03  0.33392502226E+03  0.18800000000E+03 0.  0.
   -5000001    1    1    2    0    0  0.11445803101E+03  0.18373068872E+02  0.33255810661E+03  0.39922062170E+03  0.18800000000E+03 0.  0.
<mgrwt>
<rscale>  0 0.44453072E+03</rscale>
<asrwt>0</asrwt>
<pdfrwt beam="1">  1        2 0.94010769E-01 0.44453072E+03</pdfrwt>
<pdfrwt beam="2">  1       -2 0.10724323E-01 0.44453072E+03</pdfrwt>
<totfact> 0.29495336E+03</totfact>
</mgrwt>
</event>
<event>
 4    1  0.2153371E-005  0.6659282E+03  0.7818608E-02  0.9777342E-01
          2   -1    0    0  501    0  0.00000000000E+00  0.00000000000E+00  0.80099336772E+03  0.80099336773E+03  0.25500000000E-02 0.  1.
         -2   -1    0    0    0  501 -0.00000000000E+00 -0.00000000000E+00 -0.13840948354E+03  0.13840948357E+03  0.25500000000E-02 0. -1.
    5000001    1    1    2    0    0 -0.27865986008E+01  0.27448250845E+03  0.31275544618E+03  0.45662718019E+03  0.18800000000E+03 0.  0.
   -5000001    1    1    2    0    0  0.27865986008E+01 -0.27448250845E+03  0.34982843799E+03  0.48277567110E+03  0.18800000000E+03 0.  0.
<mgrwt>
<rscale>  0 0.66592816E+03</rscale>
<asrwt>0</asrwt>
<pdfrwt beam="1">  1        2 0.11442762E+00 0.66592816E+03</pdfrwt>
<pdfrwt beam="2">  1       -2 0.19772784E-01 0.66592816E+03</pdfrwt>
<totfact> 0.82889256E+02</totfact>
</mgrwt>
</event>
<event>
 4    1  0.2153371E-005  0.7580928E+03  0.7818608E-02  0.9622739E-01
         -2   -1    0    0    0  501 -0.00000000000E+00  0.00000000000E+00  0.47398241112E+03  0.47398241113E+03  0.25500000000E-02 0. -1.
          2   -1    0    0  501    0  0.00000000000E+00 -0.00000000000E+00 -0.30312557323E+03  0.30312557324E+03  0.25500000000E-02 0.  1.
    5000001    1    1    2    0    0 -0.15577137331E+03 -0.21045479209E+03  0.28987078158E+03  0.43350318369E+03  0.18800000000E+03 0.  0.
   -5000001    1    1    2    0    0  0.15577137331E+03  0.21045479209E+03 -0.11901394369E+03  0.34360480068E+03  0.18800000000E+03 0.  0.
<mgrwt>
<rscale>  0 0.75809284E+03</rscale>
<asrwt>0</asrwt>
<pdfrwt beam="1">  1        2 0.43303654E-01 0.75809284E+03</pdfrwt>
<pdfrwt beam="2">  1       -2 0.67711772E-01 0.75809284E+03</pdfrwt>
<totfact> 0.23755465E+02</totfact>
</mgrwt>
</event>
<event>
 4    1  0.2153371E-005  0.4014223E+03  0.7818608E-02  0.1043288E+00
         -2   -1    0    0    0  501 -0.00000000000E+00  0.00000000000E+00  0.48069819423E+03  0.48069819424E+03  0.25500000000E-02 0. -1.
          2   -1    0    0  501    0  0.00000000000E+00 -0.00000000000E+00 -0.83805126279E+02  0.83805126317E+02  0.25500000000E-02 0.  1.
    5000001    1    1    2    0    0 -0.53234411780E+02  0.36439196679E+02  0.23770242419E+03  0.30985183575E+03  0.18800000000E+03 0.  0.
   -5000001    1    1    2    0    0  0.53234411780E+02 -0.36439196679E+02  0.15919064376E+03  0.25465148481E+03  0.18800000000E+03 0.  0.
<mgrwt>
<rscale>  0 0.40142234E+03</rscale>
<asrwt>0</asrwt>
<pdfrwt beam="1">  1        2 0.11972160E-01 0.40142234E+03</pdfrwt>
<pdfrwt beam="2">  1       -2 0.68671173E-01 0.40142234E+03</pdfrwt>
<totfact> 0.10264425E+03</totfact>
</mgrwt>
</event>
<event>
 4    1  0.2153371E-005  0.4852320E+03  0.7818608E-02  0.1017707E+00
          2   -1    0    0  501    0  0.00000000000E+00  0.00000000000E+00  0.23393801037E+04  0.23393801037E+04  0.25500000000E-02 0.  1.
         -2   -1    0    0    0  501 -0.00000000000E+00 -0.00000000000E+00 -0.25161594944E+02  0.25161595073E+02  0.25500000000E-02 0. -1.
    5000001    1    1    2    0    0  0.16486479993E+02 -0.13952973172E+03  0.85758010477E+03  0.88911640754E+03  0.18800000000E+03 0.  0.
   -5000001    1    1    2    0    0 -0.16486479993E+02  0.13952973172E+03  0.14566384040E+04  0.14754252912E+04  0.18800000000E+03 0.  0.
<mgrwt>
<rscale>  0 0.48523205E+03</rscale>
<asrwt>0</asrwt>
<pdfrwt beam="1">  1        2 0.33419738E+00 0.48523205E+03</pdfrwt>
<pdfrwt beam="2">  1       -2 0.35945112E-02 0.48523205E+03</pdfrwt>
<totfact> 0.19172491E+03</totfact>
</mgrwt>
</event>
<event>
 4    1  0.2153371E-005  0.4436986E+03  0.7818608E-02  0.1029618E+00
          2   -1    0    0  501    0  0.00000000000E+00  0.00000000000E+00  0.14865964170E+04  0.14865964170E+04  0.25500000000E-02 0.  1.
         -2   -1    0    0    0  501 -0.00000000000E+00 -0.00000000000E+00 -0.33107249469E+02  0.33107249567E+02  0.25500000000E-02 0. -1.
    5000001    1    1    2    0    0 -0.69064097832E+02  0.87994408751E+02  0.60042209913E+03  0.63903330329E+03  0.18800000000E+03 0.  0.
   -5000001    1    1    2    0    0  0.69064097832E+02 -0.87994408751E+02  0.85306706838E+03  0.88067036326E+03  0.18800000000E+03 0.  0.
<mgrwt>
<rscale>  0 0.44369863E+03</rscale>
<asrwt>0</asrwt>
<pdfrwt beam="1">  1        2 0.21237085E+00 0.44369863E+03</pdfrwt>
<pdfrwt beam="2">  1       -2 0.47296086E-02 0.44369863E+03</pdfrwt>
<totfact> 0.33817470E+03</totfact>
</mgrwt>
</event>
<event>
 4    1  0.2153371E-005  0.5102994E+03  0.7818608E-02  0.1011125E+00
          2   -1    0    0  501    0  0.00000000000E+00  0.00000000000E+00  0.51898348571E+03  0.51898348572E+03  0.25500000000E-02 0.  1.
         -2   -1    0    0    0  501 -0.00000000000E+00 -0.00000000000E+00 -0.12544016057E+03  0.12544016059E+03  0.25500000000E-02 0. -1.
    5000001    1    1    2    0    0  0.13386348729E+03 -0.90325722573E+02  0.27337068767E+03  0.36899011134E+03  0.18800000000E+03 0.  0.
   -5000001    1    1    2    0    0 -0.13386348729E+03  0.90325722573E+02  0.12017263747E+03  0.27543353497E+03  0.18800000000E+03 0.  0.
<mgrwt>
<rscale>  0 0.51029941E+03</rscale>
<asrwt>0</asrwt>
<pdfrwt beam="1">  1        2 0.74140498E-01 0.51029941E+03</pdfrwt>
<pdfrwt beam="2">  1       -2 0.17920023E-01 0.51029941E+03</pdfrwt>
<totfact> 0.16570758E+03</totfact>
</mgrwt>
</event>
<event>
 4    1  0.2153371E-005  0.9390982E+03  0.7818608E-02  0.9377985E-01
         -2   -1    0    0    0  501 -0.00000000000E+00  0.00000000000E+00  0.11580362606E+03  0.11580362608E+03  0.25500000000E-02 0. -1.
          2   -1    0    0  501    0  0.00000000000E+00 -0.00000000000E+00 -0.19038811854E+04  0.19038811854E+04  0.25500000000E-02 0.  1.
    5000001    1    1    2    0    0 -0.14070045371E+03 -0.40453129133E+03 -0.80562158922E+03  0.93156445206E+03  0.18800000000E+03 0.  0.
   -5000001    1    1    2    0    0  0.14070045371E+03  0.40453129133E+03 -0.98245597011E+03  0.10881203594E+04  0.18800000000E+03 0.  0.
<mgrwt>
<rscale>  0 0.93909817E+03</rscale>
<asrwt>0</asrwt>
<pdfrwt beam="1">  1        2 0.27198301E+00 0.93909817E+03</pdfrwt>
<pdfrwt beam="2">  1       -2 0.16543376E-01 0.93909817E+03</pdfrwt>
<totfact> 0.26802735E+02</totfact>
</mgrwt>
</event>
<event>
 4    1  0.2153371E-005  0.6593187E+03  0.7818608E-02  0.9789449E-01
          2   -1    0    0  501    0  0.00000000000E+00  0.00000000000E+00  0.76960847981E+03  0.76960847981E+03  0.25500000000E-02 0.  1.
         -2   -1    0    0    0  501 -0.00000000000E+00 -0.00000000000E+00 -0.14120855024E+03  0.14120855026E+03  0.25500000000E-02 0. -1.
    5000001    1    1    2    0    0 -0.24911056829E+03  0.56823371348E+02  0.43811801303E+03  0.54090328536E+03  0.18800000000E+03 0.  0.
   -5000001    1    1    2    0    0  0.24911056829E+03 -0.56823371348E+02  0.19028191653E+03  0.36991374471E+03  0.18800000000E+03 0.  0.
<mgrwt>
<rscale>  0 0.65931873E+03</rscale>
<asrwt>0</asrwt>
<pdfrwt beam="1">  1        2 0.10994407E+00 0.65931873E+03</pdfrwt>
<pdfrwt beam="2">  1       -2 0.20172650E-01 0.65931873E+03</pdfrwt>
<totfact> 0.84236926E+02</totfact>
</mgrwt>
</event>
<event>
 4    1  0.2153371E-005  0.1003817E+04  0.7818608E-02  0.9304369E-01
         -2   -1    0    0    0  501 -0.00000000000E+00  0.00000000000E+00  0.29468199254E+03  0.29468199255E+03  0.25500000000E-02 0. -1.
          2   -1    0    0  501    0  0.00000000000E+00 -0.00000000000E+00 -0.85486060868E+03  0.85486060869E+03  0.25500000000E-02 0.  1.
    5000001    1    1    2    0    0 -0.10387898482E+03  0.45333004525E+03 -0.26130520642E+03  0.56561770156E+03  0.18800000000E+03 0.  0.
   -5000001    1    1    2    0    0  0.10387898482E+03 -0.45333004525E+03 -0.29887340972E+03  0.58392489967E+03  0.18800000000E+03 0.  0.
<mgrwt>
<rscale>  0 0.10038168E+04</rscale>
<asrwt>0</asrwt>
<pdfrwt beam="1">  1        2 0.12212294E+00 0.10038168E+04</pdfrwt>
<pdfrwt beam="2">  1       -2 0.42097428E-01 0.10038168E+04</pdfrwt>
<totfact> 0.18577787E+02</totfact>
</mgrwt>
</event>
<event>
 4    1  0.2153371E-005  0.4833406E+03  0.7818608E-02  0.1018221E+00
         -2   -1    0    0    0  501 -0.00000000000E+00  0.00000000000E+00  0.22672255224E+03  0.22672255225E+03  0.25500000000E-02 0. -1.
          2   -1    0    0  501    0  0.00000000000E+00 -0.00000000000E+00 -0.25760359765E+03  0.25760359766E+03  0.25500000000E-02 0.  1.
    5000001    1    1    2    0    0  0.65802936119E+02  0.13664355002E+03 -0.77398702331E+01  0.24167207484E+03  0.18800000000E+03 0.  0.
   -5000001    1    1    2    0    0 -0.65802936119E+02 -0.13664355002E+03 -0.23141175177E+02  0.24265407508E+03  0.18800000000E+03 0.  0.
<mgrwt>
<rscale>  0 0.48334065E+03</rscale>
<asrwt>0</asrwt>
<pdfrwt beam="1">  1        2 0.36800514E-01 0.48334065E+03</pdfrwt>
<pdfrwt beam="2">  1       -2 0.32388936E-01 0.48334065E+03</pdfrwt>
<totfact> 0.12530249E+03</totfact>
</mgrwt>
</event>
<event>
 4    1  0.2153371E-005  0.4720760E+03  0.7818608E-02  0.1021336E+00
          2   -1    0    0  501    0  0.00000000000E+00  0.00000000000E+00  0.42344178518E+02  0.42344178595E+02  0.25500000000E-02 0.  1.
         -2   -1    0    0    0  501 -0.00000000000E+00 -0.00000000000E+00 -0.13157401307E+04  0.13157401307E+04  0.25500000000E-02 0. -1.
    5000001    1    1    2    0    0 -0.10146428655E+03 -0.59957143690E+02 -0.86827998596E+03  0.89618301397E+03  0.18800000000E+03 0.  0.
   -5000001    1    1    2    0    0  0.10146428655E+03  0.59957143690E+02 -0.40511596619E+03  0.46190129529E+03  0.18800000000E+03 0.  0.
<mgrwt>
<rscale>  0 0.47207599E+03</rscale>
<asrwt>0</asrwt>
<pdfrwt beam="1">  1        2 0.60491692E-02 0.47207599E+03</pdfrwt>
<pdfrwt beam="2">  1       -2 0.18796285E+00 0.47207599E+03</pdfrwt>
<totfact> 0.21003144E+02</totfact>
</mgrwt>
</event>
<event>
 4    1  0.2153371E-005  0.4241554E+03  0.7818608E-02  0.1035722E+00
         -2   -1    0    0    0  501 -0.00000000000E+00  0.00000000000E+00  0.18446725028E+02  0.18446725205E+02  0.25500000000E-02 0. -1.
          2   -1    0    0  501    0  0.00000000000E+00 -0.00000000000E+00 -0.24382083258E+04  0.24382083258E+04  0.25500000000E-02 0.  1.
    5000001    1    1    2    0    0  0.91270728935E+02 -0.23322420944E+02 -0.13694127746E+04  0.13854636872E+04  0.18800000000E+03 0.  0.
   -5000001    1    1    2    0    0 -0.91270728935E+02  0.23322420944E+02 -0.10503488262E+04  0.10711913638E+04  0.18800000000E+03 0.  0.
<mgrwt>
<rscale>  0 0.42415544E+03</rscale>
<asrwt>0</asrwt>
<pdfrwt beam="1">  1        2 0.34831527E+00 0.42415544E+03</pdfrwt>
<pdfrwt beam="2">  1       -2 0.26352480E-02 0.42415544E+03</pdfrwt>
<totfact> 0.27418744E+03</totfact>
</mgrwt>
</event>
<event>
 4    1  0.2153371E-005  0.6059952E+03  0.7818608E-02  0.9893045E-01
          2   -1    0    0  501    0  0.00000000000E+00  0.00000000000E+00  0.11547392665E+04  0.11547392665E+04  0.25500000000E-02 0.  1.
         -2   -1    0    0    0  501 -0.00000000000E+00 -0.00000000000E+00 -0.79505009346E+02  0.79505009387E+02  0.25500000000E-02 0. -1.
    5000001    1    1    2    0    0  0.78445975682E+01 -0.13827935834E+03  0.93087257199E+03  0.95971374063E+03  0.18800000000E+03 0.  0.
   -5000001    1    1    2    0    0 -0.78445975682E+01  0.13827935834E+03  0.14436168517E+03  0.27453053527E+03  0.18800000000E+03 0.  0.
<mgrwt>
<rscale>  0 0.60599523E+03</rscale>
<asrwt>0</asrwt>
<pdfrwt beam="1">  1        2 0.16496275E+00 0.60599523E+03</pdfrwt>
<pdfrwt beam="2">  1       -2 0.11357858E-01 0.60599523E+03</pdfrwt>
<totfact> 0.12736566E+03</totfact>
</mgrwt>
</event>
<event>
 4    1  0.2153371E-005  0.8670920E+03  0.7818608E-02  0.9467679E-01
         -2   -1    0    0    0  501 -0.00000000000E+00  0.00000000000E+00  0.31198176649E+03  0.31198176650E+03  0.25500000000E-02 0. -1.
          2   -1    0    0  501    0  0.00000000000E+00 -0.00000000000E+00 -0.60247798478E+03  0.60247798478E+03  0.25500000000E-02 0.  1.
    5000001    1    1    2    0    0  0.26240987185E+03  0.28917951738E+03 -0.15747506049E+03  0.46111400845E+03  0.18800000000E+03 0.  0.
   -5000001    1    1    2    0    0 -0.26240987185E+03 -0.28917951738E+03 -0.13302115780E+03  0.45334574282E+03  0.18800000000E+03 0.  0.
<mgrwt>
<rscale>  0 0.86709203E+03</rscale>
<asrwt>0</asrwt>
<pdfrwt beam="1">  1        2 0.86068283E-01 0.86709203E+03</pdfrwt>
<pdfrwt beam="2">  1       -2 0.44568824E-01 0.86709203E+03</pdfrwt>
<totfact> 0.25866413E+02</totfact>
</mgrwt>
</event>
<event>
 4    1  0.2153371E-005  0.1357690E+04  0.7818608E-02  0.8985027E-01
         -2   -1    0    0    0  501 -0.00000000000E+00  0.00000000000E+00  0.32265556847E+03  0.32265556848E+03  0.25500000000E-02 0. -1.
          2   -1    0    0  501    0  0.00000000000E+00 -0.00000000000E+00 -0.14282427867E+04  0.14282427867E+04  0.25500000000E-02 0.  1.
    5000001    1    1    2    0    0  0.41034644442E+03  0.19120879128E+03 -0.11584209616E+04  0.12578664995E+04  0.18800000000E+03 0.  0.
   -5000001    1    1    2    0    0 -0.41034644442E+03 -0.19120879128E+03  0.52833743336E+02  0.49303185571E+03  0.18800000000E+03 0.  0.
<mgrwt>
<rscale>  0 0.13576899E+04</rscale>
<asrwt>0</asrwt>
<pdfrwt beam="1">  1        2 0.20403468E+00 0.13576899E+04</pdfrwt>
<pdfrwt beam="2">  1       -2 0.46093654E-01 0.13576899E+04</pdfrwt>
<totfact> 0.69622183E+01</totfact>
</mgrwt>
</event>
<event>
 4    1  0.2153371E-005  0.5190776E+03  0.7818608E-02  0.1008916E+00
         -2   -1    0    0    0  501 -0.00000000000E+00  0.00000000000E+00  0.63384078246E+02  0.63384078298E+02  0.25500000000E-02 0. -1.
          2   -1    0    0  501    0  0.00000000000E+00 -0.00000000000E+00 -0.10627334273E+04  0.10627334273E+04  0.25500000000E-02 0.  1.
    5000001    1    1    2    0    0 -0.26209181053E+01  0.11176288816E+03 -0.80276732927E+03  0.83203196893E+03  0.18800000000E+03 0.  0.
   -5000001    1    1    2    0    0  0.26209181053E+01 -0.11176288816E+03 -0.19658201981E+03  0.29408553670E+03  0.18800000000E+03 0.  0.
<mgrwt>
<rscale>  0 0.51907756E+03</rscale>
<asrwt>0</asrwt>
<pdfrwt beam="1">  1        2 0.15181905E+00 0.51907756E+03</pdfrwt>
<pdfrwt beam="2">  1       -2 0.90548690E-02 0.51907756E+03</pdfrwt>
<totfact> 0.20817025E+03</totfact>
</mgrwt>
</event>
<event>
 4    1  0.2153371E-005  0.5200045E+03  0.7818608E-02  0.1008685E+00
          2   -1    0    0  501    0  0.00000000000E+00  0.00000000000E+00  0.81724499243E+03  0.81724499243E+03  0.25500000000E-02 0.  1.
         -2   -1    0    0    0  501 -0.00000000000E+00 -0.00000000000E+00 -0.82718368387E+02  0.82718368427E+02  0.25500000000E-02 0. -1.
    5000001    1    1    2    0    0 -0.90178707157E+02 -0.15522185564E+03  0.35760419362E+03  0.44209815990E+03  0.18800000000E+03 0.  0.
   -5000001    1    1    2    0    0  0.90178707157E+02  0.15522185564E+03  0.37692243042E+03  0.45786520096E+03  0.18800000000E+03 0.  0.
<mgrwt>
<rscale>  0 0.52000451E+03</rscale>
<asrwt>0</asrwt>
<pdfrwt beam="1">  1        2 0.11674930E+00 0.52000451E+03</pdfrwt>
<pdfrwt beam="2">  1       -2 0.11816908E-01 0.52000451E+03</pdfrwt>
<totfact> 0.19298158E+03</totfact>
</mgrwt>
</event>
<event>
 4    1  0.2153371E-005  0.9741070E+03  0.7818608E-02  0.9337409E-01
          2   -1    0    0  501    0  0.00000000000E+00  0.00000000000E+00  0.72779332092E+03  0.72779332092E+03  0.25500000000E-02 0.  1.
         -2   -1    0    0    0  501 -0.00000000000E+00 -0.00000000000E+00 -0.32594568968E+03  0.32594568969E+03  0.25500000000E-02 0. -1.
    5000001    1    1    2    0    0 -0.33318821528E+03  0.17482080508E-01 -0.12515249518E+03  0.40251898608E+03  0.18800000000E+03 0.  0.
   -5000001    1    1    2    0    0  0.33318821528E+03 -0.17482080508E-01  0.52700012642E+03  0.65122002453E+03  0.18800000000E+03 0.  0.
<mgrwt>
<rscale>  0 0.97410697E+03</rscale>
<asrwt>0</asrwt>
<pdfrwt beam="1">  1        2 0.10397047E+00 0.97410697E+03</pdfrwt>
<pdfrwt beam="2">  1       -2 0.46563670E-01 0.97410697E+03</pdfrwt>
<totfact> 0.18729688E+02</totfact>
</mgrwt>
</event>
<event>
 4    1  0.2153371E-005  0.8180611E+03  0.7818608E-02  0.9534236E-01
         -2   -1    0    0    0  501 -0.00000000000E+00  0.00000000000E+00  0.17981027728E+03  0.17981027730E+03  0.25500000000E-02 0.  1.
          2   -1    0    0  501    0  0.00000000000E+00 -0.00000000000E+00 -0.93045841031E+03  0.93045841031E+03  0.25500000000E-02 0. -1.
    5000001    1    1    2    0    0 -0.30889329099E+03  0.18873387106E+03 -0.41663379002E+03  0.58306367944E+03  0.18800000000E+03 0.  0.
   -5000001    1    1    2    0    0  0.30889329099E+03 -0.18873387106E+03 -0.33401434301E+03  0.52720500817E+03  0.18800000000E+03 0.  0.
<mgrwt>
<rscale>  0 0.81806109E+03</rscale>
<asrwt>0</asrwt>
<pdfrwt beam="1">  1        2 0.13292263E+00 0.81806109E+03</pdfrwt>
<pdfrwt beam="2">  1       -2 0.25687183E-01 0.81806109E+03</pdfrwt>
<totfact> 0.42481140E+02</totfact>
</mgrwt>
</event>
<event>
 4    1  0.2153371E-005  0.6366691E+03  0.7818608E-02  0.9832120E-01
         -2   -1    0    0    0  501 -0.00000000000E+00  0.00000000000E+00  0.41103857627E+02  0.41103857706E+02  0.25500000000E-02 0. -1.
          2   -1    0    0  501    0  0.00000000000E+00 -0.00000000000E+00 -0.24653859147E+04  0.24653859147E+04  0.25500000000E-02 0.  1.
    5000001    1    1    2    0    0 -0.26276542924E+02  0.25535145947E+03 -0.11731585246E+04  0.12155409283E+04  0.18800000000E+03 0.  0.
   -5000001    1    1    2    0    0  0.26276542924E+02 -0.25535145947E+03 -0.12511235325E+04  0.12909488441E+04  0.18800000000E+03 0.  0.
<mgrwt>
<rscale>  0 0.63666906E+03</rscale>
<asrwt>0</asrwt>
<pdfrwt beam="1">  1        2 0.35219789E+00 0.63666906E+03</pdfrwt>
<pdfrwt beam="2">  1       -2 0.58719812E-02 0.63666906E+03</pdfrwt>
<totfact> 0.76802390E+02</totfact>
</mgrwt>
</event>
<event>
 4    1  0.2153371E-005  0.4895682E+03  0.7818608E-02  0.1016538E+00
         -2   -1    0    0    0  501 -0.00000000000E+00  0.00000000000E+00  0.58156202985E+03  0.58156202986E+03  0.25500000000E-02 0. -1.
          2   -1    0    0  501    0  0.00000000000E+00 -0.00000000000E+00 -0.10303158360E+03  0.10303158363E+03  0.25500000000E-02 0.  1.
    5000001    1    1    2    0    0  0.12773002319E+03  0.84387729070E+02  0.28645884048E+03  0.37528511152E+03  0.18800000000E+03 0.  0.
   -5000001    1    1    2    0    0 -0.12773002319E+03 -0.84387729070E+02  0.19207160578E+03  0.30930850197E+03  0.18800000000E+03 0.  0.
<mgrwt>
<rscale>  0 0.48956821E+03</rscale>
<asrwt>0</asrwt>
<pdfrwt beam="1">  1        2 0.14718797E-01 0.48956821E+03</pdfrwt>
<pdfrwt beam="2">  1       -2 0.83080291E-01 0.48956821E+03</pdfrwt>
<totfact> 0.52515882E+02</totfact>
</mgrwt>
</event>
<event>
 4    1  0.2153371E-005  0.4851034E+03  0.7818608E-02  0.1017742E+00
         -2   -1    0    0    0  501 -0.00000000000E+00  0.00000000000E+00  0.39181856881E+02  0.39181856964E+02  0.25500000000E-02 0. -1.
          2   -1    0    0  501    0  0.00000000000E+00 -0.00000000000E+00 -0.15014940676E+04  0.15014940676E+04  0.25500000000E-02 0.  1.
    5000001    1    1    2    0    0  0.10863822327E+03  0.10645491227E+03 -0.67153452900E+03  0.71374893032E+03  0.18800000000E+03 0.  0.
   -5000001    1    1    2    0    0 -0.10863822327E+03 -0.10645491227E+03 -0.79077768173E+03  0.82692699426E+03  0.18800000000E+03 0.  0.
<mgrwt>
<rscale>  0 0.48510339E+03</rscale>
<asrwt>0</asrwt>
<pdfrwt beam="1">  1        2 0.21449912E+00 0.48510339E+03</pdfrwt>
<pdfrwt beam="2">  1       -2 0.55974091E-02 0.48510339E+03</pdfrwt>
<totfact> 0.25601976E+03</totfact>
</mgrwt>
</event>
<event>
 4    1  0.2153371E-005  0.7899974E+03  0.7818608E-02  0.9574609E-01
          2   -1    0    0  501    0  0.00000000000E+00  0.00000000000E+00  0.85025863583E+03  0.85025863583E+03  0.25500000000E-02 0.  1.
         -2   -1    0    0    0  501 -0.00000000000E+00 -0.00000000000E+00 -0.18350180052E+03  0.18350180054E+03  0.25500000000E-02 0. -1.
    5000001    1    1    2    0    0  0.22557799238E+03 -0.18800502002E+03  0.90504730918E+02  0.36023107100E+03  0.18800000000E+03 0.  0.
   -5000001    1    1    2    0    0 -0.22557799238E+03  0.18800502002E+03  0.57625210439E+03  0.67352936537E+03  0.18800000000E+03 0.  0.
<mgrwt>
<rscale>  0 0.78999744E+03</rscale>
<asrwt>0</asrwt>
<pdfrwt beam="1">  1        2 0.12146552E+00 0.78999744E+03</pdfrwt>
<pdfrwt beam="2">  1       -2 0.26214543E-01 0.78999744E+03</pdfrwt>
<totfact> 0.46266763E+02</totfact>
</mgrwt>
</event>
<event>
 4    1  0.2153371E-005  0.4861034E+03  0.7818608E-02  0.1017471E+00
         -2   -1    0    0    0  501 -0.00000000000E+00  0.00000000000E+00  0.28142452748E+02  0.28142452863E+02  0.25500000000E-02 0. -1.
          2   -1    0    0  501    0  0.00000000000E+00 -0.00000000000E+00 -0.20991112147E+04  0.20991112147E+04  0.25500000000E-02 0.  1.
    5000001    1    1    2    0    0 -0.10880802220E+03  0.94389442905E+02 -0.12744383420E+04  0.12962583231E+04  0.18800000000E+03 0.  0.
   -5000001    1    1    2    0    0  0.10880802220E+03 -0.94389442905E+02 -0.79653041998E+03  0.83099534450E+03  0.18800000000E+03 0.  0.
<mgrwt>
<rscale>  0 0.48610344E+03</rscale>
<asrwt>0</asrwt>
<pdfrwt beam="1">  1        2 0.29987293E+00 0.48610344E+03</pdfrwt>
<pdfrwt beam="2">  1       -2 0.40203517E-02 0.48610344E+03</pdfrwt>
<totfact> 0.21320218E+03</totfact>
</mgrwt>
</event>
<event>
 4    1  0.2153371E-005  0.4694823E+03  0.7818608E-02  0.1022066E+00
          2   -1    0    0  501    0  0.00000000000E+00  0.00000000000E+00  0.37282408043E+04  0.37282408043E+04  0.25500000000E-02 0.  1.
         -2   -1    0    0    0  501 -0.00000000000E+00 -0.00000000000E+00 -0.14780002905E+02  0.14780003125E+02  0.25500000000E-02 0. -1.
    5000001    1    1    2    0    0  0.74505033060E+02 -0.10973518234E+03  0.22278316273E+04  0.22396809080E+04  0.18800000000E+03 0.  0.
   -5000001    1    1    2    0    0 -0.74505033060E+02  0.10973518234E+03  0.14856291741E+04  0.15033398994E+04  0.18800000000E+03 0.  0.
<mgrwt>
<rscale>  0 0.46948231E+03</rscale>
<asrwt>0</asrwt>
<pdfrwt beam="1">  1        2 0.53260610E+00 0.46948231E+03</pdfrwt>
<pdfrwt beam="2">  1       -2 0.21114279E-02 0.46948231E+03</pdfrwt>
<totfact> 0.74025599E+02</totfact>
</mgrwt>
</event>
<event>
 4    1  0.2153371E-005  0.4913216E+03  0.7818608E-02  0.1016069E+00
          2   -1    0    0  501    0  0.00000000000E+00  0.00000000000E+00  0.91555125473E+03  0.91555125474E+03  0.25500000000E-02 0.  1.
         -2   -1    0    0    0  501 -0.00000000000E+00 -0.00000000000E+00 -0.65915719225E+02  0.65915719274E+02  0.25500000000E-02 0. -1.
    5000001    1    1    2    0    0 -0.15152682015E+03 -0.37133470363E+02  0.47636791411E+03  0.53535937597E+03  0.18800000000E+03 0.  0.
   -5000001    1    1    2    0    0  0.15152682015E+03  0.37133470363E+02  0.37326762139E+03  0.44610759804E+03  0.18800000000E+03 0.  0.
<mgrwt>
<rscale>  0 0.49132156E+03</rscale>
<asrwt>0</asrwt>
<pdfrwt beam="1">  1        2 0.13079302E+00 0.49132156E+03</pdfrwt>
<pdfrwt beam="2">  1       -2 0.94165324E-02 0.49132156E+03</pdfrwt>
<totfact> 0.24038592E+03</totfact>
</mgrwt>
</event>
<event>
 4    1  0.2153371E-005  0.4146797E+03  0.7818608E-02  0.1038812E+00
         -2   -1    0    0    0  501 -0.00000000000E+00  0.00000000000E+00  0.47077579797E+02  0.47077579866E+02  0.25500000000E-02 0. -1.
          2   -1    0    0  501    0  0.00000000000E+00 -0.00000000000E+00 -0.91316958066E+03  0.91316958066E+03  0.25500000000E-02 0.  1.
    5000001    1    1    2    0    0 -0.61882914791E+02 -0.89828573401E+01 -0.29151486048E+03  0.35246999979E+03  0.18800000000E+03 0.  0.
   -5000001    1    1    2    0    0  0.61882914791E+02  0.89828573401E+01 -0.57457714038E+03  0.60777716074E+03  0.18800000000E+03 0.  0.
<mgrwt>
<rscale>  0 0.41467970E+03</rscale>
<asrwt>0</asrwt>
<pdfrwt beam="1">  1        2 0.13045279E+00 0.41467970E+03</pdfrwt>
<pdfrwt beam="2">  1       -2 0.67253691E-02 0.41467970E+03</pdfrwt>
<totfact> 0.41051851E+03</totfact>
</mgrwt>
</event>
<event>
 4    1  0.2153371E-005  0.3874535E+03  0.7818608E-02  0.1048213E+00
         -2   -1    0    0    0  501 -0.00000000000E+00  0.00000000000E+00  0.17944629454E+03  0.17944629456E+03  0.25500000000E-02 0. -1.
          2   -1    0    0  501    0  0.00000000000E+00 -0.00000000000E+00 -0.20914368804E+03  0.20914368806E+03  0.25500000000E-02 0.  1.
    5000001    1    1    2    0    0 -0.42721855102E+02 -0.18641303962E+02 -0.11176710029E+02  0.19401436535E+03  0.18800000000E+03 0.  0.
   -5000001    1    1    2    0    0  0.42721855102E+02  0.18641303962E+02 -0.18520683470E+02  0.19457561726E+03  0.18800000000E+03 0.  0.
<mgrwt>
<rscale>  0 0.38745353E+03</rscale>
<asrwt>0</asrwt>
<pdfrwt beam="1">  1        2 0.29877670E-01 0.38745353E+03</pdfrwt>
<pdfrwt beam="2">  1       -2 0.25635185E-01 0.38745353E+03</pdfrwt>
<totfact> 0.24111499E+03</totfact>
</mgrwt>
</event>
<event>
 4    1  0.2153371E-005  0.4976697E+03  0.7818608E-02  0.1014389E+00
         -2   -1    0    0    0  501 -0.00000000000E+00  0.00000000000E+00  0.12887984320E+03  0.12887984323E+03  0.25500000000E-02 0. -1.
          2   -1    0    0  501    0  0.00000000000E+00 -0.00000000000E+00 -0.48043809433E+03  0.48043809434E+03  0.25500000000E-02 0.  1.
    5000001    1    1    2    0    0  0.99092509169E+02  0.10402771725E+03 -0.27009077883E+03  0.35907397586E+03  0.18800000000E+03 0.  0.
   -5000001    1    1    2    0    0 -0.99092509169E+02 -0.10402771725E+03 -0.81467472299E+02  0.25024396171E+03  0.18800000000E+03 0.  0.
<mgrwt>
<rscale>  0 0.49766971E+03</rscale>
<asrwt>0</asrwt>
<pdfrwt beam="1">  1        2 0.68634013E-01 0.49766971E+03</pdfrwt>
<pdfrwt beam="2">  1       -2 0.18411406E-01 0.49766971E+03</pdfrwt>
<totfact> 0.17262433E+03</totfact>
</mgrwt>
</event>
<event>
 4    1  0.2153371E-005  0.6006604E+03  0.7818608E-02  0.9904037E-01
          2   -1    0    0  501    0  0.00000000000E+00  0.00000000000E+00  0.17844334927E+04  0.17844334927E+04  0.25500000000E-02 0.  1.
         -2   -1    0    0    0  501 -0.00000000000E+00 -0.00000000000E+00 -0.50547264373E+02  0.50547264438E+02  0.25500000000E-02 0. -1.
    5000001    1    1    2    0    0 -0.21847193139E+03  0.17953723571E+02  0.11188952048E+04  0.11555616817E+04  0.18800000000E+03 0.  0.
   -5000001    1    1    2    0    0  0.21847193139E+03 -0.17953723571E+02  0.61499102357E+03  0.67941907544E+03  0.18800000000E+03 0.  0.
<mgrwt>
<rscale>  0 0.60066041E+03</rscale>
<asrwt>0</asrwt>
<pdfrwt beam="1">  1        2 0.25491913E+00 0.60066041E+03</pdfrwt>
<pdfrwt beam="2">  1       -2 0.72210361E-02 0.60066041E+03</pdfrwt>
<totfact> 0.12271321E+03</totfact>
</mgrwt>
</event>
<event>
 4    1  0.2153371E-005  0.1337737E+04  0.7818608E-02  0.9000163E-01
          2   -1    0    0  501    0  0.00000000000E+00  0.00000000000E+00  0.77440079083E+02  0.77440079125E+02  0.25500000000E-02 0.  1.
         -2   -1    0    0    0  501 -0.00000000000E+00 -0.00000000000E+00 -0.57771779712E+04  0.57771779712E+04  0.25500000000E-02 0. -1.
    5000001    1    1    2    0    0 -0.34895623727E+02  0.60327010758E+03 -0.19021896351E+04  0.20046999613E+04  0.18800000000E+03 0.  0.
   -5000001    1    1    2    0    0  0.34895623727E+02 -0.60327010758E+03 -0.37975482571E+04  0.38499180890E+04  0.18800000000E+03 0.  0.
<mgrwt>
<rscale>  0 0.13377371E+04</rscale>
<asrwt>0</asrwt>
<pdfrwt beam="1">  1        2 0.11062872E-01 0.13377371E+04</pdfrwt>
<pdfrwt beam="2">  1       -2 0.82531087E+00 0.13377371E+04</pdfrwt>
<totfact> 0.32325202E-02</totfact>
</mgrwt>
</event>
<event>
 4    1  0.2153371E-005  0.1005196E+04  0.7818608E-02  0.9302865E-01
         -2   -1    0    0    0  501 -0.00000000000E+00  0.00000000000E+00  0.62145261341E+02  0.62145261394E+02  0.25500000000E-02 0. -1.
          2   -1    0    0  501    0  0.00000000000E+00 -0.00000000000E+00 -0.40647430237E+04  0.40647430237E+04  0.25500000000E-02 0.  1.
    5000001    1    1    2    0    0 -0.32518493025E+03 -0.33091349750E+03 -0.18171640044E+04  0.18848549017E+04  0.18800000000E+03 0.  0.
   -5000001    1    1    2    0    0  0.32518493025E+03  0.33091349750E+03 -0.21854337579E+04  0.22420333833E+04  0.18800000000E+03 0.  0.
<mgrwt>
<rscale>  0 0.10051955E+04</rscale>
<asrwt>0</asrwt>
<pdfrwt beam="1">  1        2 0.58067740E+00 0.10051955E+04</pdfrwt>
<pdfrwt beam="2">  1       -2 0.88778971E-02 0.10051955E+04</pdfrwt>
<totfact> 0.44944723E+01</totfact>
</mgrwt>
</event>
<event>
 4    1  0.2153371E-005  0.4818140E+03  0.7818608E-02  0.1018638E+00
          2   -1    0    0  501    0  0.00000000000E+00  0.00000000000E+00  0.65979923678E+03  0.65979923679E+03  0.25500000000E-02 0.  1.
         -2   -1    0    0    0  501 -0.00000000000E+00 -0.00000000000E+00 -0.87960351700E+02  0.87960351737E+02  0.25500000000E-02 0. -1.
    5000001    1    1    2    0    0  0.49311314870E+02 -0.14206483398E+03  0.27219965449E+03  0.36338777461E+03  0.18800000000E+03 0.  0.
   -5000001    1    1    2    0    0 -0.49311314870E+02  0.14206483398E+03  0.29963923059E+03  0.38437181392E+03  0.18800000000E+03 0.  0.
<mgrwt>
<rscale>  0 0.48181396E+03</rscale>
<asrwt>0</asrwt>
<pdfrwt beam="1">  1        2 0.94257032E-01 0.48181396E+03</pdfrwt>
<pdfrwt beam="2">  1       -2 0.12565765E-01 0.48181396E+03</pdfrwt>
<totfact> 0.22719626E+03</totfact>
</mgrwt>
</event>
<event>
 4    1  0.2153371E-005  0.4930947E+03  0.7818608E-02  0.1015597E+00
          2   -1    0    0  501    0  0.00000000000E+00  0.00000000000E+00  0.40309704407E+03  0.40309704408E+03  0.25500000000E-02 0.  1.
         -2   -1    0    0    0  501 -0.00000000000E+00 -0.00000000000E+00 -0.15079641936E+03  0.15079641938E+03  0.25500000000E-02 0. -1.
    5000001    1    1    2    0    0  0.13778708624E+03  0.57539645856E+02  0.18915033326E+03  0.30564348603E+03  0.18800000000E+03 0.  0.
   -5000001    1    1    2    0    0 -0.13778708624E+03 -0.57539645856E+02  0.63150291444E+02  0.24824997742E+03  0.18800000000E+03 0.  0.
<mgrwt>
<rscale>  0 0.49309468E+03</rscale>
<asrwt>0</asrwt>
<pdfrwt beam="1">  1        2 0.57585292E-01 0.49309468E+03</pdfrwt>
<pdfrwt beam="2">  1       -2 0.21542346E-01 0.49309468E+03</pdfrwt>
<totfact> 0.15985701E+03</totfact>
</mgrwt>
</event>
<event>
 4    1  0.2153371E-005  0.1051326E+04  0.7818608E-02  0.9253976E-01
         -2   -1    0    0    0  501 -0.00000000000E+00  0.00000000000E+00  0.18263185526E+03  0.18263185527E+03  0.25500000000E-02 0. -1.
          2   -1    0    0  501    0  0.00000000000E+00 -0.00000000000E+00 -0.15129985510E+04  0.15129985510E+04  0.25500000000E-02 0.  1.
    5000001    1    1    2    0    0 -0.47142466202E+03 -0.12592848229E+03 -0.57865076927E+03  0.77992301376E+03  0.18800000000E+03 0.  0.
   -5000001    1    1    2    0    0  0.47142466202E+03  0.12592848229E+03 -0.75171592651E+03  0.91570739256E+03  0.18800000000E+03 0.  0.
<mgrwt>
<rscale>  0 0.10513263E+04</rscale>
<asrwt>0</asrwt>
<pdfrwt beam="1">  1        2 0.21614264E+00 0.10513263E+04</pdfrwt>
<pdfrwt beam="2">  1       -2 0.26090266E-01 0.10513263E+04</pdfrwt>
<totfact> 0.18972937E+02</totfact>
</mgrwt>
</event>
<event>
 4    1  0.2153371E-005  0.4476687E+03  0.7818608E-02  0.1028420E+00
         -2   -1    0    0    0  501 -0.00000000000E+00  0.00000000000E+00  0.11066625103E+03  0.11066625106E+03  0.25500000000E-02 0. -1.
          2   -1    0    0  501    0  0.00000000000E+00 -0.00000000000E+00 -0.45272891224E+03  0.45272891225E+03  0.25500000000E-02 0.  1.
    5000001    1    1    2    0    0 -0.11058327126E+03 -0.38039109498E+02 -0.12963081973E+03  0.25656146078E+03  0.18800000000E+03 0.  0.
   -5000001    1    1    2    0    0  0.11058327126E+03  0.38039109498E+02 -0.21243184148E+03  0.30683370253E+03  0.18800000000E+03 0.  0.
<mgrwt>
<rscale>  0 0.44766868E+03</rscale>
<asrwt>0</asrwt>
<pdfrwt beam="1">  1        2 0.64675558E-01 0.44766868E+03</pdfrwt>
<pdfrwt beam="2">  1       -2 0.15809465E-01 0.44766868E+03</pdfrwt>
<totfact> 0.23877701E+03</totfact>
</mgrwt>
</event>
<event>
 4    1  0.2153371E-005  0.6289772E+03  0.7818608E-02  0.9847047E-01
         -2   -1    0    0    0  501 -0.00000000000E+00  0.00000000000E+00  0.52473664844E+02  0.52473664906E+02  0.25500000000E-02 0. -1.
          2   -1    0    0  501    0  0.00000000000E+00 -0.00000000000E+00 -0.18848133997E+04  0.18848133997E+04  0.25500000000E-02 0.  1.
    5000001    1    1    2    0    0 -0.56730051148E+02  0.22934964036E+03 -0.11871365222E+04  0.12249312954E+04  0.18800000000E+03 0.  0.
   -5000001    1    1    2    0    0  0.56730051148E+02 -0.22934964036E+03 -0.64520321272E+03  0.71235576922E+03  0.18800000000E+03 0.  0.
<mgrwt>
<rscale>  0 0.62897716E+03</rscale>
<asrwt>0</asrwt>
<pdfrwt beam="1">  1        2 0.26925901E+00 0.62897716E+03</pdfrwt>
<pdfrwt beam="2">  1       -2 0.74962390E-02 0.62897716E+03</pdfrwt>
<totfact> 0.10276990E+03</totfact>
</mgrwt>
</event>
<event>
 4    1  0.2153371E-005  0.5104423E+03  0.7818608E-02  0.1011089E+00
          2   -1    0    0  501    0  0.00000000000E+00  0.00000000000E+00  0.62591345711E+03  0.62591345711E+03  0.25500000000E-02 0.  1.
         -2   -1    0    0    0  501 -0.00000000000E+00 -0.00000000000E+00 -0.10406842506E+03  0.10406842509E+03  0.25500000000E-02 0. -1.
    5000001    1    1    2    0    0  0.98950792193E+02 -0.95474352123E+02  0.11170360018E+03  0.25831822522E+03  0.18800000000E+03 0.  0.
   -5000001    1    1    2    0    0 -0.98950792193E+02  0.95474352123E+02  0.41014143186E+03  0.47166365698E+03  0.18800000000E+03 0.  0.
<mgrwt>
<rscale>  0 0.51044227E+03</rscale>
<asrwt>0</asrwt>
<pdfrwt beam="1">  1        2 0.89416210E-01 0.51044227E+03</pdfrwt>
<pdfrwt beam="2">  1       -2 0.14866918E-01 0.51044227E+03</pdfrwt>
<totfact> 0.18299239E+03</totfact>
</mgrwt>
</event>
<event>
 4    1  0.2153371E-005  0.5744039E+03  0.7818608E-02  0.9959980E-01
         -2   -1    0    0    0  501 -0.00000000000E+00  0.00000000000E+00  0.74290514240E+02  0.74290514283E+02  0.25500000000E-02 0. -1.
          2   -1    0    0  501    0  0.00000000000E+00 -0.00000000000E+00 -0.11103028688E+04  0.11103028688E+04  0.25500000000E-02 0.  1.
    5000001    1    1    2    0    0  0.13246015616E+03  0.16591795381E+03 -0.42425629580E+03  0.51030565830E+03  0.18800000000E+03 0.  0.
   -5000001    1    1    2    0    0 -0.13246015616E+03 -0.16591795381E+03 -0.61175605873E+03  0.67428772475E+03  0.18800000000E+03 0.  0.
<mgrwt>
<rscale>  0 0.57440394E+03</rscale>
<asrwt>0</asrwt>
<pdfrwt beam="1">  1        2 0.15861469E+00 0.57440394E+03</pdfrwt>
<pdfrwt beam="2">  1       -2 0.10612931E-01 0.57440394E+03</pdfrwt>
<totfact> 0.15099852E+03</totfact>
</mgrwt>
</event>
<event>
 4    1  0.2153371E-005  0.9459720E+03  0.7818608E-02  0.9369871E-01
          2   -1    0    0  501    0  0.00000000000E+00  0.00000000000E+00  0.27921226089E+04  0.27921226089E+04  0.25500000000E-02 0.  1.
         -2   -1    0    0    0  501 -0.00000000000E+00 -0.00000000000E+00 -0.80123900832E+02  0.80123900873E+02  0.25500000000E-02 0. -1.
    5000001    1    1    2    0    0  0.37891316805E+03 -0.58082861794E+02  0.19739644245E+04  0.20196109419E+04  0.18800000000E+03 0.  0.
   -5000001    1    1    2    0    0 -0.37891316805E+03  0.58082861794E+02  0.73803428356E+03  0.85263556779E+03  0.18800000000E+03 0.  0.
<mgrwt>
<rscale>  0 0.94597200E+03</rscale>
<asrwt>0</asrwt>
<pdfrwt beam="1">  1        2 0.39887464E+00 0.94597200E+03</pdfrwt>
<pdfrwt beam="2">  1       -2 0.11446272E-01 0.94597200E+03</pdfrwt>
<totfact> 0.17277582E+02</totfact>
</mgrwt>
</event>
<event>
 4    1  0.2153371E-005  0.1626346E+04  0.7818608E-02  0.8804524E-01
         -2   -1    0    0    0  501 -0.00000000000E+00  0.00000000000E+00  0.44159510211E+03  0.44159510212E+03  0.25500000000E-02 0. -1.
          2   -1    0    0  501    0  0.00000000000E+00 -0.00000000000E+00 -0.14974135704E+04  0.14974135704E+04  0.25500000000E-02 0.  1.
    5000001    1    1    2    0    0  0.62432683033E+03  0.24753742349E+03 -0.10264454933E+04  0.12409645917E+04  0.18800000000E+03 0.  0.
   -5000001    1    1    2    0    0 -0.62432683033E+03 -0.24753742349E+03 -0.29372974956E+02  0.69804408081E+03  0.18800000000E+03 0.  0.
<mgrwt>
<rscale>  0 0.16263462E+04</rscale>
<asrwt>0</asrwt>
<pdfrwt beam="1">  1        2 0.21391622E+00 0.16263462E+04</pdfrwt>
<pdfrwt beam="2">  1       -2 0.63085015E-01 0.16263462E+04</pdfrwt>
<totfact> 0.32738811E+01</totfact>
</mgrwt>
</event>
<event>
 4    1  0.2153371E-005  0.7613731E+03  0.7818608E-02  0.9617675E-01
         -2   -1    0    0    0  501 -0.00000000000E+00  0.00000000000E+00  0.48355921359E+02  0.48355921426E+02  0.25500000000E-02 0. -1.
          2   -1    0    0  501    0  0.00000000000E+00 -0.00000000000E+00 -0.29969906649E+04  0.29969906649E+04  0.25500000000E-02 0.  1.
    5000001    1    1    2    0    0 -0.43513626384E+02  0.20051159235E+03 -0.43529128038E+03  0.51664381649E+03  0.18800000000E+03 0.  0.
   -5000001    1    1    2    0    0  0.43513626384E+02 -0.20051159235E+03 -0.25133434632E+04  0.25287027699E+04  0.18800000000E+03 0.  0.
<mgrwt>
<rscale>  0 0.76137309E+03</rscale>
<asrwt>0</asrwt>
<pdfrwt beam="1">  1        2 0.42814141E+00 0.76137309E+03</pdfrwt>
<pdfrwt beam="2">  1       -2 0.69079906E-02 0.76137309E+03</pdfrwt>
<totfact> 0.30801198E+02</totfact>
</mgrwt>
</event>
<event>
 4    1  0.2153371E-005  0.5718036E+03  0.7818608E-02  0.9965695E-01
         -2   -1    0    0    0  501 -0.00000000000E+00  0.00000000000E+00  0.11284693538E+03  0.11284693541E+03  0.25500000000E-02 0. -1.
          2   -1    0    0  501    0  0.00000000000E+00 -0.00000000000E+00 -0.72434267231E+03  0.72434267231E+03  0.25500000000E-02 0.  1.
    5000001    1    1    2    0    0 -0.20112157130E+03  0.22234239094E+02 -0.19764455132E+03  0.33963453372E+03  0.18800000000E+03 0.  0.
   -5000001    1    1    2    0    0  0.20112157130E+03 -0.22234239094E+02 -0.41385118561E+03  0.49755507400E+03  0.18800000000E+03 0.  0.
<mgrwt>
<rscale>  0 0.57180364E+03</rscale>
<asrwt>0</asrwt>
<pdfrwt beam="1">  1        2 0.10347752E+00 0.57180364E+03</pdfrwt>
<pdfrwt beam="2">  1       -2 0.16120991E-01 0.57180364E+03</pdfrwt>
<totfact> 0.13382272E+03</totfact>
</mgrwt>
</event>
<event>
 4    1  0.2153371E-005  0.9242252E+03  0.7818608E-02  0.9395795E-01
         -2   -1    0    0    0  501 -0.00000000000E+00  0.00000000000E+00  0.21660307110E+03  0.21660307111E+03  0.25500000000E-02 0. -1.
          2   -1    0    0  501    0  0.00000000000E+00 -0.00000000000E+00 -0.98589580120E+03  0.98589580120E+03  0.25500000000E-02 0.  1.
    5000001    1    1    2    0    0  0.10592655443E+03  0.40668456243E+03 -0.33274466937E+03  0.56804558201E+03  0.18800000000E+03 0.  0.
   -5000001    1    1    2    0    0 -0.10592655443E+03 -0.40668456243E+03 -0.43654806073E+03  0.63445329031E+03  0.18800000000E+03 0.  0.
<mgrwt>
<rscale>  0 0.92422521E+03</rscale>
<asrwt>0</asrwt>
<pdfrwt beam="1">  1        2 0.14084226E+00 0.92422521E+03</pdfrwt>
<pdfrwt beam="2">  1       -2 0.30943296E-01 0.92422521E+03</pdfrwt>
<totfact> 0.27697582E+02</totfact>
</mgrwt>
</event>
<event>
 4    1  0.2153371E-005  0.6605827E+03  0.7818608E-02  0.9787122E-01
         -2   -1    0    0    0  501 -0.00000000000E+00  0.00000000000E+00  0.22462465037E+03  0.22462465038E+03  0.25500000000E-02 0.  1.
          2   -1    0    0  501    0  0.00000000000E+00 -0.00000000000E+00 -0.48566513323E+03  0.48566513324E+03  0.25500000000E-02 0. -1.
    5000001    1    1    2    0    0  0.24639876185E+03  0.92500265597E+02 -0.58553234859E+02  0.32869610629E+03  0.18800000000E+03 0.  0.
   -5000001    1    1    2    0    0 -0.24639876185E+03 -0.92500265597E+02 -0.20248724800E+03  0.38159367733E+03  0.18800000000E+03 0.  0.
<mgrwt>
<rscale>  0 0.66058265E+03</rscale>
<asrwt>0</asrwt>
<pdfrwt beam="1">  1        2 0.69380733E-01 0.66058265E+03</pdfrwt>
<pdfrwt beam="2">  1       -2 0.32089236E-01 0.66058265E+03</pdfrwt>
<totfact> 0.63027712E+02</totfact>
</mgrwt>
</event>
<event>
 4    1  0.2153371E-005  0.1831035E+04  0.7818608E-02  0.8689967E-01
          2   -1    0    0  501    0  0.00000000000E+00  0.00000000000E+00  0.23345253175E+04  0.23345253175E+04  0.25500000000E-02 0.  1.
         -2   -1    0    0    0  501 -0.00000000000E+00 -0.00000000000E+00 -0.35903324765E+03  0.35903324766E+03  0.25500000000E-02 0. -1.
    5000001    1    1    2    0    0  0.76232641424E+03  0.47015111782E+03  0.95039821990E+03  0.13193878929E+04  0.18800000000E+03 0.  0.
   -5000001    1    1    2    0    0 -0.76232641424E+03 -0.47015111782E+03  0.10250938500E+04  0.13741706723E+04  0.18800000000E+03 0.  0.
<mgrwt>
<rscale>  0 0.18310349E+04</rscale>
<asrwt>0</asrwt>
<pdfrwt beam="1">  1        2 0.33350361E+00 0.18310349E+04</pdfrwt>
<pdfrwt beam="2">  1       -2 0.51290465E-01 0.18310349E+04</pdfrwt>
<totfact> 0.18267001E+01</totfact>
</mgrwt>
</event>
<event>
 4    1  0.2153371E-005  0.5245307E+03  0.7818608E-02  0.1007567E+00
         -2   -1    0    0    0  501 -0.00000000000E+00  0.00000000000E+00  0.19373367002E+02  0.19373367170E+02  0.25500000000E-02 0. -1.
          2   -1    0    0  501    0  0.00000000000E+00 -0.00000000000E+00 -0.35503951922E+04  0.35503951922E+04  0.25500000000E-02 0.  1.
    5000001    1    1    2    0    0 -0.59230977880E+02  0.12941649374E+03 -0.98413027463E+03  0.10119848492E+04  0.18800000000E+03 0.  0.
   -5000001    1    1    2    0    0  0.59230977880E+02 -0.12941649374E+03 -0.25468915505E+04  0.25577837101E+04  0.18800000000E+03 0.  0.
<mgrwt>
<rscale>  0 0.52453068E+03</rscale>
<asrwt>0</asrwt>
<pdfrwt beam="1">  1        2 0.50719890E+00 0.52453068E+03</pdfrwt>
<pdfrwt beam="2">  1       -2 0.27676261E-02 0.52453068E+03</pdfrwt>
<totfact> 0.62771198E+02</totfact>
</mgrwt>
</event>
<event>
 4    1  0.2153371E-005  0.5172474E+03  0.7818608E-02  0.1009373E+00
          2   -1    0    0  501    0  0.00000000000E+00  0.00000000000E+00  0.16781559142E+04  0.16781559142E+04  0.25500000000E-02 0.  1.
         -2   -1    0    0    0  501 -0.00000000000E+00 -0.00000000000E+00 -0.39856971363E+02  0.39856971444E+02  0.25500000000E-02 0. -1.
    5000001    1    1    2    0    0  0.16136054143E+03 -0.58287587680E+02  0.66666818195E+03  0.71360012054E+03  0.18800000000E+03 0.  0.
   -5000001    1    1    2    0    0 -0.16136054143E+03  0.58287587680E+02  0.97163076084E+03  0.10044127651E+04  0.18800000000E+03 0.  0.
<mgrwt>
<rscale>  0 0.51724738E+03</rscale>
<asrwt>0</asrwt>
<pdfrwt beam="1">  1        2 0.23973655E+00 0.51724738E+03</pdfrwt>
<pdfrwt beam="2">  1       -2 0.56938533E-02 0.51724738E+03</pdfrwt>
<totfact> 0.20233006E+03</totfact>
</mgrwt>
</event>
<event>
 4    1  0.2153371E-005  0.7157144E+03  0.7818608E-02  0.9690730E-01
         -2   -1    0    0    0  501 -0.00000000000E+00  0.00000000000E+00  0.10403838225E+03  0.10403838228E+03  0.25500000000E-02 0. -1.
          2   -1    0    0  501    0  0.00000000000E+00 -0.00000000000E+00 -0.12309088077E+04  0.12309088077E+04  0.25500000000E-02 0.  1.
    5000001    1    1    2    0    0  0.15410023834E+03 -0.26254964631E+03 -0.55185283908E+03  0.65769655331E+03  0.18800000000E+03 0.  0.
   -5000001    1    1    2    0    0 -0.15410023834E+03  0.26254964631E+03 -0.57501758633E+03  0.67725063664E+03  0.18800000000E+03 0.  0.
<mgrwt>
<rscale>  0 0.71571436E+03</rscale>
<asrwt>0</asrwt>
<pdfrwt beam="1">  1        2 0.17584411E+00 0.71571436E+03</pdfrwt>
<pdfrwt beam="2">  1       -2 0.14862627E-01 0.71571436E+03</pdfrwt>
<totfact> 0.73514975E+02</totfact>
</mgrwt>
</event>
<event>
 4    1  0.2153371E-005  0.4791613E+03  0.7818608E-02  0.1019366E+00
         -2   -1    0    0    0  501 -0.00000000000E+00  0.00000000000E+00  0.87585983929E+03  0.87585983929E+03  0.25500000000E-02 0. -1.
          2   -1    0    0  501    0  0.00000000000E+00 -0.00000000000E+00 -0.65534319501E+02  0.65534319551E+02  0.25500000000E-02 0.  1.
    5000001    1    1    2    0    0 -0.11063661309E+03  0.97982596052E+02  0.37643356912E+03  0.44596780292E+03  0.18800000000E+03 0.  0.
   -5000001    1    1    2    0    0  0.11063661309E+03 -0.97982596052E+02  0.43389195067E+03  0.49542635592E+03  0.18800000000E+03 0.  0.
<mgrwt>
<rscale>  0 0.47916126E+03</rscale>
<asrwt>0</asrwt>
<pdfrwt beam="1">  1        2 0.93620460E-02 0.47916126E+03</pdfrwt>
<pdfrwt beam="2">  1       -2 0.12512283E+00 0.47916126E+03</pdfrwt>
<totfact> 0.35020158E+02</totfact>
</mgrwt>
</event>
<event>
 4    1  0.2153371E-005  0.6590453E+03  0.7818608E-02  0.9789953E-01
         -2   -1    0    0    0  501 -0.00000000000E+00  0.00000000000E+00  0.71601848957E+03  0.71601848957E+03  0.25500000000E-02 0. -1.
          2   -1    0    0  501    0  0.00000000000E+00 -0.00000000000E+00 -0.15165136676E+03  0.15165136678E+03  0.25500000000E-02 0.  1.
    5000001    1    1    2    0    0 -0.18647230553E+02 -0.26982414994E+03  0.29456138908E+03  0.44188596157E+03  0.18800000000E+03 0.  0.
   -5000001    1    1    2    0    0  0.18647230553E+02  0.26982414994E+03  0.26980573373E+03  0.42578389478E+03  0.18800000000E+03 0.  0.
<mgrwt>
<rscale>  0 0.65904532E+03</rscale>
<asrwt>0</asrwt>
<pdfrwt beam="1">  1        2 0.21664481E-01 0.65904532E+03</pdfrwt>
<pdfrwt beam="2">  1       -2 0.10228836E+00 0.65904532E+03</pdfrwt>
<totfact> 0.20472430E+02</totfact>
</mgrwt>
</event>
<event>
 4    1  0.2153371E-005  0.7056549E+03  0.7818608E-02  0.9707610E-01
         -2   -1    0    0    0  501 -0.00000000000E+00  0.00000000000E+00  0.72882405097E+02  0.72882405141E+02  0.25500000000E-02 0.  1.
          2   -1    0    0  501    0  0.00000000000E+00 -0.00000000000E+00 -0.17080555120E+04  0.17080555120E+04  0.25500000000E-02 0. -1.
    5000001    1    1    2    0    0 -0.18268379218E+03 -0.10762989314E+03 -0.13481007151E+04  0.13775620131E+04  0.18800000000E+03 0.  0.
   -5000001    1    1    2    0    0  0.18268379218E+03  0.10762989314E+03 -0.28707239171E+03  0.40337590397E+03  0.18800000000E+03 0.  0.
<mgrwt>
<rscale>  0 0.70565486E+03</rscale>
<asrwt>0</asrwt>
<pdfrwt beam="1">  1        2 0.24400790E+00 0.70565486E+03</pdfrwt>
<pdfrwt beam="2">  1       -2 0.10411773E-01 0.70565486E+03</pdfrwt>
<totfact> 0.74160148E+02</totfact>
</mgrwt>
</event>
<event>
 4    1  0.2153371E-005  0.5548714E+03  0.7818608E-02  0.1000373E+00
          2   -1    0    0  501    0  0.00000000000E+00  0.00000000000E+00  0.59333901157E+03  0.59333901158E+03  0.25500000000E-02 0.  1.
         -2   -1    0    0    0  501 -0.00000000000E+00 -0.00000000000E+00 -0.12972442243E+03  0.12972442246E+03  0.25500000000E-02 0. -1.
    5000001    1    1    2    0    0 -0.58472122295E+02 -0.17727638097E+03  0.33911229069E+03  0.43033364967E+03  0.18800000000E+03 0.  0.
   -5000001    1    1    2    0    0  0.58472122295E+02  0.17727638097E+03  0.12450229845E+03  0.29272978436E+03  0.18800000000E+03 0.  0.
<mgrwt>
<rscale>  0 0.55487137E+03</rscale>
<asrwt>0</asrwt>
<pdfrwt beam="1">  1        2 0.84762715E-01 0.55487137E+03</pdfrwt>
<pdfrwt beam="2">  1       -2 0.18532060E-01 0.55487137E+03</pdfrwt>
<totfact> 0.13402921E+03</totfact>
</mgrwt>
</event>
<event>
 4    1  0.2153371E-005  0.6359049E+03  0.7818608E-02  0.9833593E-01
          2   -1    0    0  501    0  0.00000000000E+00  0.00000000000E+00  0.28571300880E+03  0.28571300881E+03  0.25500000000E-02 0.  1.
         -2   -1    0    0    0  501 -0.00000000000E+00 -0.00000000000E+00 -0.35382973045E+03  0.35382973046E+03  0.25500000000E-02 0. -1.
    5000001    1    1    2    0    0  0.18626458789E+03  0.11856897895E+03  0.97058689177E+02  0.30580629264E+03  0.18800000000E+03 0.  0.
   -5000001    1    1    2    0    0 -0.18626458789E+03 -0.11856897895E+03 -0.16517541083E+03  0.33373644664E+03  0.18800000000E+03 0.  0.
<mgrwt>
<rscale>  0 0.63590489E+03</rscale>
<asrwt>0</asrwt>
<pdfrwt beam="1">  1        2 0.40816144E-01 0.63590489E+03</pdfrwt>
<pdfrwt beam="2">  1       -2 0.50547104E-01 0.63590489E+03</pdfrwt>
<totfact> 0.46983984E+02</totfact>
</mgrwt>
</event>
<event>
 4    1  0.2153371E-005  0.9102260E+03  0.7818608E-02  0.9412888E-01
          2   -1    0    0  501    0  0.00000000000E+00  0.00000000000E+00  0.21356996513E+04  0.21356996513E+04  0.25500000000E-02 0.  1.
         -2   -1    0    0    0  501 -0.00000000000E+00 -0.00000000000E+00 -0.96983602178E+02  0.96983602212E+02  0.25500000000E-02 0. -1.
    5000001    1    1    2    0    0  0.22916176676E+03 -0.22443001576E+03  0.37550436986E+03  0.52842357924E+03  0.18800000000E+03 0.  0.
   -5000001    1    1    2    0    0 -0.22916176676E+03  0.22443001576E+03  0.16632116793E+04  0.17042596743E+04  0.18800000000E+03 0.  0.
<mgrwt>
<rscale>  0 0.91022601E+03</rscale>
<asrwt>0</asrwt>
<pdfrwt beam="1">  1        2 0.30509992E+00 0.91022601E+03</pdfrwt>
<pdfrwt beam="2">  1       -2 0.13854801E-01 0.91022601E+03</pdfrwt>
<totfact> 0.27652484E+02</totfact>
</mgrwt>
</event>
<event>
 4    1  0.2153371E-005  0.6723968E+03  0.7818608E-02  0.9765638E-01
         -2   -1    0    0    0  501 -0.00000000000E+00  0.00000000000E+00  0.16812804464E+03  0.16812804466E+03  0.25500000000E-02 0. -1.
          2   -1    0    0  501    0  0.00000000000E+00 -0.00000000000E+00 -0.67228138904E+03  0.67228138904E+03  0.25500000000E-02 0.  1.
    5000001    1    1    2    0    0  0.27390209317E+03  0.77909826991E+01 -0.18831731595E+03  0.38195610682E+03  0.18800000000E+03 0.  0.
   -5000001    1    1    2    0    0 -0.27390209317E+03 -0.77909826991E+01 -0.31583602845E+03  0.45845332688E+03  0.18800000000E+03 0.  0.
<mgrwt>
<rscale>  0 0.67239677E+03</rscale>
<asrwt>0</asrwt>
<pdfrwt beam="1">  1        2 0.96040197E-01 0.67239677E+03</pdfrwt>
<pdfrwt beam="2">  1       -2 0.24018292E-01 0.67239677E+03</pdfrwt>
<totfact> 0.73139730E+02</totfact>
</mgrwt>
</event>
<event>
 4    1  0.2153371E-005  0.5194022E+03  0.7818608E-02  0.1008835E+00
          2   -1    0    0  501    0  0.00000000000E+00  0.00000000000E+00  0.81970865686E+03  0.81970865686E+03  0.25500000000E-02 0.  1.
         -2   -1    0    0    0  501 -0.00000000000E+00 -0.00000000000E+00 -0.82278806188E+02  0.82278806228E+02  0.25500000000E-02 0. -1.
    5000001    1    1    2    0    0 -0.50667325553E+02  0.17101995187E+03  0.39806520742E+03  0.47498938007E+03  0.18800000000E+03 0.  0.
   -5000001    1    1    2    0    0  0.50667325553E+02 -0.17101995187E+03  0.33936464325E+03  0.42699808302E+03  0.18800000000E+03 0.  0.
<mgrwt>
<rscale>  0 0.51940216E+03</rscale>
<asrwt>0</asrwt>
<pdfrwt beam="1">  1        2 0.11710125E+00 0.51940216E+03</pdfrwt>
<pdfrwt beam="2">  1       -2 0.11754114E-01 0.51940216E+03</pdfrwt>
<totfact> 0.19392423E+03</totfact>
</mgrwt>
</event>
<event>
 4    1  0.2153371E-005  0.4537875E+03  0.7818608E-02  0.1026599E+00
         -2   -1    0    0    0  501 -0.00000000000E+00  0.00000000000E+00  0.76029282247E+02  0.76029282289E+02  0.25500000000E-02 0. -1.
          2   -1    0    0  501    0  0.00000000000E+00 -0.00000000000E+00 -0.67711778830E+03  0.67711778830E+03  0.25500000000E-02 0.  1.
    5000001    1    1    2    0    0 -0.12655872833E+03  0.95810916924E+01 -0.29178233832E+03  0.36958062989E+03  0.18800000000E+03 0.  0.
   -5000001    1    1    2    0    0  0.12655872833E+03 -0.95810916924E+01 -0.30930616773E+03  0.38356644070E+03  0.18800000000E+03 0.  0.
<mgrwt>
<rscale>  0 0.45378752E+03</rscale>
<asrwt>0</asrwt>
<pdfrwt beam="1">  1        2 0.96731109E-01 0.45378752E+03</pdfrwt>
<pdfrwt beam="2">  1       -2 0.10861326E-01 0.45378752E+03</pdfrwt>
<totfact> 0.27932163E+03</totfact>
</mgrwt>
</event>
<event>
 4    1  0.2153371E-005  0.6139201E+03  0.7818608E-02  0.9876940E-01
         -2   -1    0    0    0  501 -0.00000000000E+00  0.00000000000E+00  0.35675285076E+03  0.35675285077E+03  0.25500000000E-02 0. -1.
          2   -1    0    0  501    0  0.00000000000E+00 -0.00000000000E+00 -0.26411697132E+03  0.26411697133E+03  0.25500000000E-02 0.  1.
    5000001    1    1    2    0    0 -0.24040497240E+03  0.20389597706E+02  0.72499142435E+02  0.31434123513E+03  0.18800000000E+03 0.  0.
   -5000001    1    1    2    0    0  0.24040497240E+03 -0.20389597706E+02  0.20136737003E+02  0.30652858697E+03  0.18800000000E+03 0.  0.
<mgrwt>
<rscale>  0 0.61392013E+03</rscale>
<asrwt>0</asrwt>
<pdfrwt beam="1">  1        2 0.37730996E-01 0.61392013E+03</pdfrwt>
<pdfrwt beam="2">  1       -2 0.50964693E-01 0.61392013E+03</pdfrwt>
<totfact> 0.50429865E+02</totfact>
</mgrwt>
</event>
<event>
 4    1  0.2153371E-005  0.5444655E+03  0.7818608E-02  0.1002783E+00
         -2   -1    0    0    0  501 -0.00000000000E+00  0.00000000000E+00  0.71559766124E+02  0.71559766170E+02  0.25500000000E-02 0. -1.
          2   -1    0    0  501    0  0.00000000000E+00 -0.00000000000E+00 -0.10356471002E+04  0.10356471002E+04  0.25500000000E-02 0.  1.
    5000001    1    1    2    0    0 -0.12013964223E+02  0.15310902479E+03 -0.73259324231E+03  0.77176652395E+03  0.18800000000E+03 0.  0.
   -5000001    1    1    2    0    0  0.12013964223E+02 -0.15310902479E+03 -0.23149409179E+03  0.33544034245E+03  0.18800000000E+03 0.  0.
<mgrwt>
<rscale>  0 0.54446548E+03</rscale>
<asrwt>0</asrwt>
<pdfrwt beam="1">  1        2 0.14794958E+00 0.54446548E+03</pdfrwt>
<pdfrwt beam="2">  1       -2 0.10222824E-01 0.54446548E+03</pdfrwt>
<totfact> 0.17759358E+03</totfact>
</mgrwt>
</event>
<event>
 4    1  0.2153371E-005  0.6404153E+03  0.7818608E-02  0.9824932E-01
         -2   -1    0    0    0  501 -0.00000000000E+00  0.00000000000E+00  0.43162786333E+02  0.43162786408E+02  0.25500000000E-02 0. -1.
          2   -1    0    0  501    0  0.00000000000E+00 -0.00000000000E+00 -0.23754940184E+04  0.23754940184E+04  0.25500000000E-02 0.  1.
    5000001    1    1    2    0    0 -0.98077846438E+02  0.19697293699E+03 -0.64872540893E+03  0.71035643029E+03  0.18800000000E+03 0.  0.
   -5000001    1    1    2    0    0  0.98077846438E+02 -0.19697293699E+03 -0.16836058231E+04  0.17083003745E+04  0.18800000000E+03 0.  0.
<mgrwt>
<rscale>  0 0.64041531E+03</rscale>
<asrwt>0</asrwt>
<pdfrwt beam="1">  1        2 0.33935621E+00 0.64041531E+03</pdfrwt>
<pdfrwt beam="2">  1       -2 0.61661138E-02 0.64041531E+03</pdfrwt>
<totfact> 0.79050253E+02</totfact>
</mgrwt>
</event>
<event>
 4    1  0.2153371E-005  0.4916180E+03  0.7818608E-02  0.1015990E+00
          2   -1    0    0  501    0  0.00000000000E+00  0.00000000000E+00  0.83429931327E+02  0.83429931366E+02  0.25500000000E-02 0.  1.
         -2   -1    0    0    0  501 -0.00000000000E+00 -0.00000000000E+00 -0.72422522117E+03  0.72422522117E+03  0.25500000000E-02 0. -1.
    5000001    1    1    2    0    0  0.63600312808E+02  0.95511076981E+02 -0.49969205772E+03  0.54608013896E+03  0.18800000000E+03 0.  0.
   -5000001    1    1    2    0    0 -0.63600312808E+02 -0.95511076981E+02 -0.14110323212E+03  0.26157501358E+03  0.18800000000E+03 0.  0.
<mgrwt>
<rscale>  0 0.49161798E+03</rscale>
<asrwt>0</asrwt>
<pdfrwt beam="1">  1        2 0.11918562E-01 0.49161798E+03</pdfrwt>
<pdfrwt beam="2">  1       -2 0.10346074E+00 0.49161798E+03</pdfrwt>
<totfact> 0.40987708E+02</totfact>
</mgrwt>
</event>
<event>
 4    1  0.2153371E-005  0.4284208E+03  0.7818608E-02  0.1034360E+00
          2   -1    0    0  501    0  0.00000000000E+00  0.00000000000E+00  0.35905189521E+03  0.35905189522E+03  0.25500000000E-02 0.  1.
         -2   -1    0    0    0  501 -0.00000000000E+00 -0.00000000000E+00 -0.12779797342E+03  0.12779797344E+03  0.25500000000E-02 0. -1.
    5000001    1    1    2    0    0  0.32358811984E+02 -0.57023626260E+02  0.25836088548E+02  0.20077422677E+03  0.18800000000E+03 0.  0.
   -5000001    1    1    2    0    0 -0.32358811984E+02  0.57023626260E+02  0.20541783325E+03  0.28607564189E+03  0.18800000000E+03 0.  0.
<mgrwt>
<rscale>  0 0.42842084E+03</rscale>
<asrwt>0</asrwt>
<pdfrwt beam="1">  1        2 0.51293129E-01 0.42842084E+03</pdfrwt>
<pdfrwt beam="2">  1       -2 0.18256853E-01 0.42842084E+03</pdfrwt>
<totfact> 0.24142161E+03</totfact>
</mgrwt>
</event>
<event>
 4    1  0.2153371E-005  0.9671887E+03  0.7818608E-02  0.9345282E-01
         -2   -1    0    0    0  501 -0.00000000000E+00  0.00000000000E+00  0.22020745478E+03  0.22020745480E+03  0.25500000000E-02 0. -1.
          2   -1    0    0  501    0  0.00000000000E+00 -0.00000000000E+00 -0.10620145151E+04  0.10620145151E+04  0.25500000000E-02 0.  1.
    5000001    1    1    2    0    0 -0.33552318856E+03  0.24852253106E+03 -0.21475396645E+03  0.50576924048E+03  0.18800000000E+03 0.  0.
   -5000001    1    1    2    0    0  0.33552318856E+03 -0.24852253106E+03 -0.62705309390E+03  0.77645272945E+03  0.18800000000E+03 0.  0.
<mgrwt>
<rscale>  0 0.96718874E+03</rscale>
<asrwt>0</asrwt>
<pdfrwt beam="1">  1        2 0.15171636E+00 0.96718874E+03</pdfrwt>
<pdfrwt beam="2">  1       -2 0.31458208E-01 0.96718874E+03</pdfrwt>
<totfact> 0.24078529E+02</totfact>
</mgrwt>
</event>
<event>
 4    1  0.2153371E-005  0.5438730E+03  0.7818608E-02  0.1002922E+00
         -2   -1    0    0    0  501 -0.00000000000E+00  0.00000000000E+00  0.25313612752E+02  0.25313612880E+02  0.25500000000E-02 0.  1.
          2   -1    0    0  501    0  0.00000000000E+00 -0.00000000000E+00 -0.29213318656E+04  0.29213318656E+04  0.25500000000E-02 0. -1.
    5000001    1    1    2    0    0 -0.64379904541E+02  0.12460275942E+03 -0.21935324638E+04  0.22060370100E+04  0.18800000000E+03 0.  0.
   -5000001    1    1    2    0    0  0.64379904541E+02 -0.12460275942E+03 -0.70248578904E+03  0.74060846847E+03  0.18800000000E+03 0.  0.
<mgrwt>
<rscale>  0 0.54387301E+03</rscale>
<asrwt>0</asrwt>
<pdfrwt beam="1">  1        2 0.41733291E+00 0.54387301E+03</pdfrwt>
<pdfrwt beam="2">  1       -2 0.36162323E-02 0.54387301E+03</pdfrwt>
<totfact> 0.94504843E+02</totfact>
</mgrwt>
</event>
<event>
 4    1  0.2153371E-005  0.5158864E+03  0.7818608E-02  0.1009714E+00
          2   -1    0    0  501    0  0.00000000000E+00  0.00000000000E+00  0.37547763824E+03  0.37547763824E+03  0.25500000000E-02 0.  1.
         -2   -1    0    0    0  501 -0.00000000000E+00 -0.00000000000E+00 -0.17720014987E+03  0.17720014989E+03  0.25500000000E-02 0. -1.
    5000001    1    1    2    0    0 -0.14628439709E+03 -0.60773780341E+02  0.18279834631E+03  0.30635243205E+03  0.18800000000E+03 0.  0.
   -5000001    1    1    2    0    0  0.14628439709E+03  0.60773780341E+02  0.15479142061E+02  0.24632535608E+03  0.18800000000E+03 0.  0.
<mgrwt>
<rscale>  0 0.51588640E+03</rscale>
<asrwt>0</asrwt>
<pdfrwt beam="1">  1        2 0.53639662E-01 0.51588640E+03</pdfrwt>
<pdfrwt beam="2">  1       -2 0.25314308E-01 0.51588640E+03</pdfrwt>
<totfact> 0.12991865E+03</totfact>
</mgrwt>
</event>
<event>
 4    1  0.2153371E-005  0.5149078E+03  0.7818608E-02  0.1009959E+00
          2   -1    0    0  501    0  0.00000000000E+00  0.00000000000E+00  0.19944206044E+03  0.19944206045E+03  0.25500000000E-02 0.  1.
         -2   -1    0    0    0  501 -0.00000000000E+00 -0.00000000000E+00 -0.33233970864E+03  0.33233970865E+03  0.25500000000E-02 0. -1.
    5000001    1    1    2    0    0 -0.53006617916E+02 -0.13092888767E+03  0.41802314008E+02  0.23883782913E+03  0.18800000000E+03 0.  0.
   -5000001    1    1    2    0    0  0.53006617916E+02  0.13092888767E+03 -0.17469996221E+03  0.29294393997E+03  0.18800000000E+03 0.  0.
<mgrwt>
<rscale>  0 0.51490782E+03</rscale>
<asrwt>0</asrwt>
<pdfrwt beam="1">  1        2 0.28491723E-01 0.51490782E+03</pdfrwt>
<pdfrwt beam="2">  1       -2 0.47477101E-01 0.51490782E+03</pdfrwt>
<totfact> 0.79678582E+02</totfact>
</mgrwt>
</event>
<event>
 4    1  0.2153371E-005  0.4940909E+03  0.7818608E-02  0.1015333E+00
         -2   -1    0    0    0  501 -0.00000000000E+00  0.00000000000E+00  0.20499564221E+03  0.20499564223E+03  0.25500000000E-02 0. -1.
          2   -1    0    0  501    0  0.00000000000E+00 -0.00000000000E+00 -0.29772078622E+03  0.29772078623E+03  0.25500000000E-02 0.  1.
    5000001    1    1    2    0    0  0.10983876159E+03  0.50001669701E+01  0.72283194766E+02  0.22947421525E+03  0.18800000000E+03 0.  0.
   -5000001    1    1    2    0    0 -0.10983876159E+03 -0.50001669701E+01 -0.16500833878E+03  0.27324221321E+03  0.18800000000E+03 0.  0.
<mgrwt>
<rscale>  0 0.49409094E+03</rscale>
<asrwt>0</asrwt>
<pdfrwt beam="1">  1        2 0.42531541E-01 0.49409094E+03</pdfrwt>
<pdfrwt beam="2">  1       -2 0.29285092E-01 0.49409094E+03</pdfrwt>
<totfact> 0.12873456E+03</totfact>
</mgrwt>
</event>
<event>
 4    1  0.2153371E-005  0.5524225E+03  0.7818608E-02  0.1000935E+00
          2   -1    0    0  501    0  0.00000000000E+00  0.00000000000E+00  0.22513855399E+03  0.22513855401E+03  0.25500000000E-02 0.  1.
         -2   -1    0    0    0  501 -0.00000000000E+00 -0.00000000000E+00 -0.33886978290E+03  0.33886978291E+03  0.25500000000E-02 0. -1.
    5000001    1    1    2    0    0  0.44559846409E+02  0.10979513430E+03  0.11061158809E+03  0.24823270302E+03  0.18800000000E+03 0.  0.
   -5000001    1    1    2    0    0 -0.44559846409E+02 -0.10979513430E+03 -0.22434281700E+03  0.31577563390E+03  0.18800000000E+03 0.  0.
<mgrwt>
<rscale>  0 0.55242249E+03</rscale>
<asrwt>0</asrwt>
<pdfrwt beam="1">  1        2 0.32162651E-01 0.55242249E+03</pdfrwt>
<pdfrwt beam="2">  1       -2 0.48409969E-01 0.55242249E+03</pdfrwt>
<totfact> 0.66889138E+02</totfact>
</mgrwt>
</event>
<event>
 4    1  0.2153371E-005  0.6384854E+03  0.7818608E-02  0.9828629E-01
         -2   -1    0    0    0  501 -0.00000000000E+00  0.00000000000E+00  0.19828542660E+03  0.19828542662E+03  0.25500000000E-02 0. -1.
          2   -1    0    0  501    0  0.00000000000E+00 -0.00000000000E+00 -0.51398588255E+03  0.51398588256E+03  0.25500000000E-02 0.  1.
    5000001    1    1    2    0    0  0.10316418675E+02 -0.25052352141E+03 -0.22573893116E+03  0.38622600678E+03  0.18800000000E+03 0.  0.
   -5000001    1    1    2    0    0 -0.10316418675E+02  0.25052352141E+03 -0.89961524785E+02  0.32604530240E+03  0.18800000000E+03 0.  0.
<mgrwt>
<rscale>  0 0.63848543E+03</rscale>
<asrwt>0</asrwt>
<pdfrwt beam="1">  1        2 0.73426554E-01 0.63848543E+03</pdfrwt>
<pdfrwt beam="2">  1       -2 0.28326490E-01 0.63848543E+03</pdfrwt>
<totfact> 0.74461721E+02</totfact>
</mgrwt>
</event>
<event>
 4    1  0.2153371E-005  0.4123833E+03  0.7818608E-02  0.1039574E+00
          2   -1    0    0  501    0  0.00000000000E+00  0.00000000000E+00  0.17305227095E+04  0.17305227095E+04  0.25500000000E-02 0.  1.
         -2   -1    0    0    0  501 -0.00000000000E+00 -0.00000000000E+00 -0.24567718239E+02  0.24567718371E+02  0.25500000000E-02 0. -1.
    5000001    1    1    2    0    0  0.27341301676E+02 -0.76971616242E+02  0.75792369594E+03  0.78515253636E+03  0.18800000000E+03 0.  0.
   -5000001    1    1    2    0    0 -0.27341301676E+02  0.76971616242E+02  0.94803129530E+03  0.96993789149E+03  0.18800000000E+03 0.  0.
<mgrwt>
<rscale>  0 0.41238329E+03</rscale>
<asrwt>0</asrwt>
<pdfrwt beam="1">  1        2 0.24721758E+00 0.41238329E+03</pdfrwt>
<pdfrwt beam="2">  1       -2 0.35096733E-02 0.41238329E+03</pdfrwt>
<totfact> 0.40088690E+03</totfact>
</mgrwt>
</event>
<event>
 4    1  0.2153371E-005  0.5324761E+03  0.7818608E-02  0.1005633E+00
         -2   -1    0    0    0  501 -0.00000000000E+00  0.00000000000E+00  0.19017974177E+03  0.19017974178E+03  0.25500000000E-02 0.  1.
          2   -1    0    0  501    0  0.00000000000E+00 -0.00000000000E+00 -0.37271418884E+03  0.37271418885E+03  0.25500000000E-02 0. -1.
    5000001    1    1    2    0    0 -0.11796341891E+03  0.14046765505E+03 -0.45283390912E+02  0.26653539316E+03  0.18800000000E+03 0.  0.
   -5000001    1    1    2    0    0  0.11796341891E+03 -0.14046765505E+03 -0.13725105616E+03  0.29635853747E+03  0.18800000000E+03 0.  0.
<mgrwt>
<rscale>  0 0.53247606E+03</rscale>
<asrwt>0</asrwt>
<pdfrwt beam="1">  1        2 0.53244884E-01 0.53247606E+03</pdfrwt>
<pdfrwt beam="2">  1       -2 0.27168535E-01 0.53247606E+03</pdfrwt>
<totfact> 0.11530743E+03</totfact>
</mgrwt>
</event>
<event>
 4    1  0.2153371E-005  0.1172192E+04  0.7818608E-02  0.9137551E-01
         -2   -1    0    0    0  501 -0.00000000000E+00  0.00000000000E+00  0.14606596299E+03  0.14606596301E+03  0.25500000000E-02 0. -1.
          2   -1    0    0  501    0  0.00000000000E+00 -0.00000000000E+00 -0.23517362919E+04  0.23517362919E+04  0.25500000000E-02 0.  1.
    5000001    1    1    2    0    0  0.20517298610E+03 -0.40321551486E+03 -0.41734714710E+03  0.64358476275E+03  0.18800000000E+03 0.  0.
   -5000001    1    1    2    0    0 -0.20517298610E+03  0.40321551486E+03 -0.17883231818E+04  0.18542174922E+04  0.18800000000E+03 0.  0.
<mgrwt>
<rscale>  0 0.11721922E+04</rscale>
<asrwt>0</asrwt>
<pdfrwt beam="1">  1        2 0.33596231E+00 0.11721922E+04</pdfrwt>
<pdfrwt beam="2">  1       -2 0.20866568E-01 0.11721922E+04</pdfrwt>
<totfact> 0.10375928E+02</totfact>
</mgrwt>
</event>
<event>
 4    1  0.2153371E-005  0.4689628E+03  0.7818608E-02  0.1022213E+00
         -2   -1    0    0    0  501 -0.00000000000E+00  0.00000000000E+00  0.26539437649E+02  0.26539437771E+02  0.25500000000E-02 0. -1.
          2   -1    0    0  501    0  0.00000000000E+00 -0.00000000000E+00 -0.20716911335E+04  0.20716911335E+04  0.25500000000E-02 0.  1.
    5000001    1    1    2    0    0 -0.49869405312E+02 -0.11653709114E+03 -0.75525755435E+03  0.78855933486E+03  0.18800000000E+03 0.  0.
   -5000001    1    1    2    0    0  0.49869405312E+02  0.11653709114E+03 -0.12898941415E+04  0.13096712364E+04  0.18800000000E+03 0.  0.
<mgrwt>
<rscale>  0 0.46896276E+03</rscale>
<asrwt>0</asrwt>
<pdfrwt beam="1">  1        2 0.29595577E+00 0.46896276E+03</pdfrwt>
<pdfrwt beam="2">  1       -2 0.37913496E-02 0.46896276E+03</pdfrwt>
<totfact> 0.24079475E+03</totfact>
</mgrwt>
</event>
<event>
 4    1  0.2153371E-005  0.5356498E+03  0.7818608E-02  0.1004871E+00
         -2   -1    0    0    0  501 -0.00000000000E+00  0.00000000000E+00  0.45750002472E+03  0.45750002473E+03  0.25500000000E-02 0. -1.
          2   -1    0    0  501    0  0.00000000000E+00 -0.00000000000E+00 -0.15678725384E+03  0.15678725386E+03  0.25500000000E-02 0.  1.
    5000001    1    1    2    0    0  0.14502004137E+03 -0.11070389129E+03  0.21420802235E+03  0.33840100589E+03  0.18800000000E+03 0.  0.
   -5000001    1    1    2    0    0 -0.14502004137E+03  0.11070389129E+03  0.86504748536E+02  0.27588627270E+03  0.18800000000E+03 0.  0.
<mgrwt>
<rscale>  0 0.53564978E+03</rscale>
<asrwt>0</asrwt>
<pdfrwt beam="1">  1        2 0.22398179E-01 0.53564978E+03</pdfrwt>
<pdfrwt beam="2">  1       -2 0.65357147E-01 0.53564978E+03</pdfrwt>
<totfact> 0.54122584E+02</totfact>
</mgrwt>
</event>
<event>
 4    1  0.2153371E-005  0.6763097E+03  0.7818608E-02  0.9758626E-01
          2   -1    0    0  501    0  0.00000000000E+00  0.00000000000E+00  0.13119568819E+03  0.13119568821E+03  0.25500000000E-02 0.  1.
         -2   -1    0    0    0  501 -0.00000000000E+00 -0.00000000000E+00 -0.87158900315E+03  0.87158900316E+03  0.25500000000E-02 0. -1.
    5000001    1    1    2    0    0  0.25338361654E+03  0.11110268454E+03 -0.44370261631E+03  0.55566453491E+03  0.18800000000E+03 0.  0.
   -5000001    1    1    2    0    0 -0.25338361654E+03 -0.11110268454E+03 -0.29669069865E+03  0.44712015646E+03  0.18800000000E+03 0.  0.
<mgrwt>
<rscale>  0 0.67630975E+03</rscale>
<asrwt>0</asrwt>
<pdfrwt beam="1">  1        2 0.18742242E-01 0.67630975E+03</pdfrwt>
<pdfrwt beam="2">  1       -2 0.12451271E+00 0.67630975E+03</pdfrwt>
<totfact> 0.15033332E+02</totfact>
</mgrwt>
</event>
<event>
 4    1  0.2153371E-005  0.8955166E+03  0.7818608E-02  0.9431203E-01
         -2   -1    0    0    0  501 -0.00000000000E+00  0.00000000000E+00  0.19229114733E+03  0.19229114734E+03  0.25500000000E-02 0. -1.
          2   -1    0    0  501    0  0.00000000000E+00 -0.00000000000E+00 -0.10426247724E+04  0.10426247724E+04  0.25500000000E-02 0.  1.
    5000001    1    1    2    0    0  0.10706260414E+03  0.35128566888E+03 -0.66512635014E+03  0.78268836967E+03  0.18800000000E+03 0.  0.
   -5000001    1    1    2    0    0 -0.10706260414E+03 -0.35128566888E+03 -0.18520727495E+03  0.45222755009E+03  0.18800000000E+03 0.  0.
<mgrwt>
<rscale>  0 0.89551664E+03</rscale>
<asrwt>0</asrwt>
<pdfrwt beam="1">  1        2 0.14894639E+00 0.89551664E+03</pdfrwt>
<pdfrwt beam="2">  1       -2 0.27470164E-01 0.89551664E+03</pdfrwt>
<totfact> 0.31911645E+02</totfact>
</mgrwt>
</event>
<event>
 4    1  0.2153371E-005  0.4456180E+03  0.7818608E-02  0.1029037E+00
          2   -1    0    0  501    0  0.00000000000E+00  0.00000000000E+00  0.63498641514E+03  0.63498641515E+03  0.25500000000E-02 0. -1.
         -2   -1    0    0    0  501 -0.00000000000E+00 -0.00000000000E+00 -0.78180966258E+02  0.78180966300E+02  0.25500000000E-02 0.  1.
    5000001    1    1    2    0    0  0.11799342182E+03 -0.26499223587E+01  0.24760252135E+03  0.33253643147E+03  0.18800000000E+03 0.  0.
   -5000001    1    1    2    0    0 -0.11799342182E+03  0.26499223587E+01  0.30920292754E+03  0.38063094997E+03  0.18800000000E+03 0.  0.
<mgrwt>
<rscale>  0 0.44561800E+03</rscale>
<asrwt>0</asrwt>
<pdfrwt beam="1">  1        2 0.90712346E-01 0.44561800E+03</pdfrwt>
<pdfrwt beam="2">  1       -2 0.11168709E-01 0.44561800E+03</pdfrwt>
<totfact> 0.28810272E+03</totfact>
</mgrwt>
</event>
<event>
 4    1  0.2153371E-005  0.1362149E+04  0.7818608E-02  0.8981682E-01
          2   -1    0    0  501    0  0.00000000000E+00  0.00000000000E+00  0.57325012784E+03  0.57325012784E+03  0.25500000000E-02 0.  1.
         -2   -1    0    0    0  501 -0.00000000000E+00 -0.00000000000E+00 -0.80917981720E+03  0.80917981721E+03  0.25500000000E-02 0. -1.
    5000001    1    1    2    0    0  0.30621850008E+03  0.47584350918E+03 -0.45198764011E+03  0.74822031637E+03  0.18800000000E+03 0.  0.
   -5000001    1    1    2    0    0 -0.30621850008E+03 -0.47584350918E+03  0.21605795074E+03  0.63420962867E+03  0.18800000000E+03 0.  0.
<mgrwt>
<rscale>  0 0.13621489E+04</rscale>
<asrwt>0</asrwt>
<pdfrwt beam="1">  1        2 0.81892875E-01 0.13621489E+04</pdfrwt>
<pdfrwt beam="2">  1       -2 0.11559712E+00 0.13621489E+04</pdfrwt>
<totfact> 0.32590523E+01</totfact>
</mgrwt>
</event>
<event>
 4    1  0.2153371E-005  0.5123767E+03  0.7818608E-02  0.1010598E+00
          2   -1    0    0  501    0  0.00000000000E+00  0.00000000000E+00  0.77029153188E+03  0.77029153189E+03  0.25500000000E-02 0. -1.
         -2   -1    0    0    0  501 -0.00000000000E+00 -0.00000000000E+00 -0.85204706759E+02  0.85204706797E+02  0.25500000000E-02 0.  1.
    5000001    1    1    2    0    0 -0.16029140943E+02 -0.14843309623E+03  0.49187462271E+03  0.54733350152E+03  0.18800000000E+03 0.  0.
   -5000001    1    1    2    0    0  0.16029140943E+02  0.14843309623E+03  0.19321220242E+03  0.30816273717E+03  0.18800000000E+03 0.  0.
<mgrwt>
<rscale>  0 0.51237667E+03</rscale>
<asrwt>0</asrwt>
<pdfrwt beam="1">  1        2 0.11004164E+00 0.51237667E+03</pdfrwt>
<pdfrwt beam="2">  1       -2 0.12172101E-01 0.51237667E+03</pdfrwt>
<totfact> 0.19814246E+03</totfact>
</mgrwt>
</event>
<event>
 4    1  0.2153371E-005  0.5681697E+03  0.7818608E-02  0.9973737E-01
         -2   -1    0    0    0  501 -0.00000000000E+00  0.00000000000E+00  0.20408002700E+03  0.20408002702E+03  0.25500000000E-02 0. -1.
          2   -1    0    0  501    0  0.00000000000E+00 -0.00000000000E+00 -0.39545369022E+03  0.39545369023E+03  0.25500000000E-02 0.  1.
    5000001    1    1    2    0    0 -0.70932332516E+02  0.11196797129E+03 -0.27159875328E+03  0.35591867775E+03  0.18800000000E+03 0.  0.
   -5000001    1    1    2    0    0  0.70932332516E+02 -0.11196797129E+03  0.80225090061E+02  0.24361503949E+03  0.18800000000E+03 0.  0.
<mgrwt>
<rscale>  0 0.56816969E+03</rscale>
<asrwt>0</asrwt>
<pdfrwt beam="1">  1        2 0.56493384E-01 0.56816969E+03</pdfrwt>
<pdfrwt beam="2">  1       -2 0.29154290E-01 0.56816969E+03</pdfrwt>
<totfact> 0.94928064E+02</totfact>
</mgrwt>
</event>
<event>
 4    1  0.2153371E-005  0.5755257E+03  0.7818608E-02  0.9957525E-01
         -2   -1    0    0    0  501 -0.00000000000E+00  0.00000000000E+00  0.49916877878E+02  0.49916877944E+02  0.25500000000E-02 0. -1.
          2   -1    0    0  501    0  0.00000000000E+00 -0.00000000000E+00 -0.16589070503E+04  0.16589070503E+04  0.25500000000E-02 0.  1.
    5000001    1    1    2    0    0  0.19575083430E+02  0.21679727626E+03 -0.77806832033E+03  0.82952911582E+03  0.18800000000E+03 0.  0.
   -5000001    1    1    2    0    0 -0.19575083430E+02 -0.21679727626E+03 -0.83092185208E+03  0.87929481242E+03  0.18800000000E+03 0.  0.
<mgrwt>
<rscale>  0 0.57552571E+03</rscale>
<asrwt>0</asrwt>
<pdfrwt beam="1">  1        2 0.23698669E+00 0.57552571E+03</pdfrwt>
<pdfrwt beam="2">  1       -2 0.71309836E-02 0.57552571E+03</pdfrwt>
<totfact> 0.14510439E+03</totfact>
</mgrwt>
</event>
<event>
 4    1  0.2153371E-005  0.4807134E+03  0.7818608E-02  0.1018939E+00
         -2   -1    0    0    0  501 -0.00000000000E+00  0.00000000000E+00  0.25020723756E+02  0.25020723886E+02  0.25500000000E-02 0. -1.
          2   -1    0    0  501    0  0.00000000000E+00 -0.00000000000E+00 -0.23089397848E+04  0.23089397848E+04  0.25500000000E-02 0.  1.
    5000001    1    1    2    0    0  0.32695225321E+02 -0.83281639423E+02 -0.55887962166E+03  0.59640191208E+03  0.18800000000E+03 0.  0.
   -5000001    1    1    2    0    0 -0.32695225321E+02  0.83281639423E+02 -0.17250394394E+04  0.17375585966E+04  0.18800000000E+03 0.  0.
<mgrwt>
<rscale>  0 0.48071341E+03</rscale>
<asrwt>0</asrwt>
<pdfrwt beam="1">  1        2 0.32984840E+00 0.48071341E+03</pdfrwt>
<pdfrwt beam="2">  1       -2 0.35743906E-02 0.48071341E+03</pdfrwt>
<totfact> 0.20036007E+03</totfact>
</mgrwt>
</event>
<event>
 4    1  0.2153371E-005  0.4073416E+03  0.7818608E-02  0.1041267E+00
          2   -1    0    0  501    0  0.00000000000E+00  0.00000000000E+00  0.72940824323E+03  0.72940824324E+03  0.25500000000E-02 0.  1.
         -2   -1    0    0    0  501 -0.00000000000E+00 -0.00000000000E+00 -0.56870487224E+02  0.56870487281E+02  0.25500000000E-02 0. -1.
    5000001    1    1    2    0    0  0.61084077077E+02 -0.24288600303E+02  0.25399772702E+03  0.32276933855E+03  0.18800000000E+03 0.  0.
   -5000001    1    1    2    0    0 -0.61084077077E+02  0.24288600303E+02  0.41854002899E+03  0.46350939197E+03  0.18800000000E+03 0.  0.
<mgrwt>
<rscale>  0 0.40734164E+03</rscale>
<asrwt>0</asrwt>
<pdfrwt beam="1">  1        2 0.10420117E+00 0.40734164E+03</pdfrwt>
<pdfrwt beam="2">  1       -2 0.81243556E-02 0.40734164E+03</pdfrwt>
<totfact> 0.40573696E+03</totfact>
</mgrwt>
</event>
<event>
 4    1  0.2153371E-005  0.6619738E+03  0.7818608E-02  0.9784567E-01
         -2   -1    0    0    0  501 -0.00000000000E+00  0.00000000000E+00  0.45162261760E+02  0.45162261832E+02  0.25500000000E-02 0. -1.
          2   -1    0    0  501    0  0.00000000000E+00 -0.00000000000E+00 -0.24257495009E+04  0.24257495009E+04  0.25500000000E-02 0.  1.
    5000001    1    1    2    0    0  0.15522214585E+03  0.18370747796E+03 -0.71277813593E+03  0.77539604273E+03  0.18800000000E+03 0.  0.
   -5000001    1    1    2    0    0 -0.15522214585E+03 -0.18370747796E+03 -0.16678091032E+04  0.16955157200E+04  0.18800000000E+03 0.  0.
<mgrwt>
<rscale>  0 0.66197382E+03</rscale>
<asrwt>0</asrwt>
<pdfrwt beam="1">  1        2 0.34653556E+00 0.66197382E+03</pdfrwt>
<pdfrwt beam="2">  1       -2 0.64517532E-02 0.66197382E+03</pdfrwt>
<totfact> 0.69282508E+02</totfact>
</mgrwt>
</event>
<event>
 4    1  0.2153371E-005  0.4688438E+03  0.7818608E-02  0.1022247E+00
         -2   -1    0    0    0  501 -0.00000000000E+00  0.00000000000E+00  0.15917160185E+03  0.15917160187E+03  0.25500000000E-02 0. -1.
          2   -1    0    0  501    0  0.00000000000E+00 -0.00000000000E+00 -0.34524772578E+03  0.34524772579E+03  0.25500000000E-02 0.  1.
    5000001    1    1    2    0    0 -0.66139878394E+02 -0.12015318395E+03 -0.62638763492E+02  0.24099561369E+03  0.18800000000E+03 0.  0.
   -5000001    1    1    2    0    0  0.66139878394E+02  0.12015318395E+03 -0.12343736044E+03  0.26342371397E+03  0.18800000000E+03 0.  0.
<mgrwt>
<rscale>  0 0.46884383E+03</rscale>
<asrwt>0</asrwt>
<pdfrwt beam="1">  1        2 0.49321103E-01 0.46884383E+03</pdfrwt>
<pdfrwt beam="2">  1       -2 0.22738800E-01 0.46884383E+03</pdfrwt>
<totfact> 0.17234947E+03</totfact>
</mgrwt>
</event>
<event>
 4    1  0.2153371E-005  0.9040526E+03  0.7818608E-02  0.9420530E-01
          2   -1    0    0  501    0  0.00000000000E+00  0.00000000000E+00  0.34023113257E+03  0.34023113258E+03  0.25500000000E-02 0.  1.
         -2   -1    0    0    0  501 -0.00000000000E+00 -0.00000000000E+00 -0.60055578639E+03  0.60055578639E+03  0.25500000000E-02 0. -1.
    5000001    1    1    2    0    0  0.27001673389E+03 -0.24888436309E+03  0.62091089674E+02  0.41719511765E+03  0.18800000000E+03 0.  0.
   -5000001    1    1    2    0    0 -0.27001673389E+03  0.24888436309E+03 -0.32241574349E+03  0.52359180133E+03  0.18800000000E+03 0.  0.
<mgrwt>
<rscale>  0 0.90405260E+03</rscale>
<asrwt>0</asrwt>
<pdfrwt beam="1">  1        2 0.48604448E-01 0.90405260E+03</pdfrwt>
<pdfrwt beam="2">  1       -2 0.85793683E-01 0.90405260E+03</pdfrwt>
<totfact> 0.12271386E+02</totfact>
</mgrwt>
</event>
<event>
 4    1  0.2153371E-005  0.7536438E+03  0.7818608E-02  0.9629651E-01
          2   -1    0    0  501    0  0.00000000000E+00  0.00000000000E+00  0.10324610583E+04  0.10324610583E+04  0.25500000000E-02 0.  1.
         -2   -1    0    0    0  501 -0.00000000000E+00 -0.00000000000E+00 -0.13753035939E+03  0.13753035942E+03  0.25500000000E-02 0. -1.
    5000001    1    1    2    0    0 -0.23362695062E+03  0.16755486474E+03  0.68794199620E+03  0.76893717227E+03  0.18800000000E+03 0.  0.
   -5000001    1    1    2    0    0  0.23362695062E+03 -0.16755486474E+03  0.20698870271E+03  0.40105424546E+03  0.18800000000E+03 0.  0.
<mgrwt>
<rscale>  0 0.75364379E+03</rscale>
<asrwt>0</asrwt>
<pdfrwt beam="1">  1        2 0.14749443E+00 0.75364379E+03</pdfrwt>
<pdfrwt beam="2">  1       -2 0.19647195E-01 0.75364379E+03</pdfrwt>
<totfact> 0.59272414E+02</totfact>
</mgrwt>
</event>
<event>
 4    1  0.2153371E-005  0.6536299E+03  0.7818608E-02  0.9799992E-01
         -2   -1    0    0    0  501 -0.00000000000E+00  0.00000000000E+00  0.33046173907E+02  0.33046174005E+02  0.25500000000E-02 0. -1.
          2   -1    0    0  501    0  0.00000000000E+00 -0.00000000000E+00 -0.32320841379E+04  0.32320841379E+04  0.25500000000E-02 0.  1.
    5000001    1    1    2    0    0 -0.13524470601E+03 -0.19034115990E+03 -0.94929140434E+03  0.99549940131E+03  0.18800000000E+03 0.  0.
   -5000001    1    1    2    0    0  0.13524470601E+03  0.19034115990E+03 -0.22497465596E+04  0.22696309106E+04  0.18800000000E+03 0.  0.
<mgrwt>
<rscale>  0 0.65362991E+03</rscale>
<asrwt>0</asrwt>
<pdfrwt beam="1">  1        2 0.46172611E+00 0.65362991E+03</pdfrwt>
<pdfrwt beam="2">  1       -2 0.47208840E-02 0.65362991E+03</pdfrwt>
<totfact> 0.41839250E+02</totfact>
</mgrwt>
</event>
<event>
 4    1  0.2153371E-005  0.6847550E+03  0.7818608E-02  0.9743664E-01
          2   -1    0    0  501    0  0.00000000000E+00  0.00000000000E+00  0.52960792787E+03  0.52960792788E+03  0.25500000000E-02 0.  1.
         -2   -1    0    0    0  501 -0.00000000000E+00 -0.00000000000E+00 -0.22133796179E+03  0.22133796180E+03  0.25500000000E-02 0. -1.
    5000001    1    1    2    0    0 -0.12691636188E+02 -0.27622747319E+03  0.23483962970E+03  0.40860292002E+03  0.18800000000E+03 0.  0.
   -5000001    1    1    2    0    0  0.12691636188E+02  0.27622747319E+03  0.73430336381E+02  0.34234296966E+03  0.18800000000E+03 0.  0.
<mgrwt>
<rscale>  0 0.68475496E+03</rscale>
<asrwt>0</asrwt>
<pdfrwt beam="1">  1        2 0.75658276E-01 0.68475496E+03</pdfrwt>
<pdfrwt beam="2">  1       -2 0.31619709E-01 0.68475496E+03</pdfrwt>
<totfact> 0.58641929E+02</totfact>
</mgrwt>
</event>
<event>
 4    1  0.2153371E-005  0.5730156E+03  0.7818608E-02  0.9963028E-01
          2   -1    0    0  501    0  0.00000000000E+00  0.00000000000E+00  0.69312811547E+03  0.69312811547E+03  0.25500000000E-02 0.  1.
         -2   -1    0    0    0  501 -0.00000000000E+00 -0.00000000000E+00 -0.11842937064E+03  0.11842937067E+03  0.25500000000E-02 0. -1.
    5000001    1    1    2    0    0  0.16024792345E+03 -0.13936690532E+03  0.34470824371E+03  0.44639702570E+03  0.18800000000E+03 0.  0.
   -5000001    1    1    2    0    0 -0.16024792345E+03  0.13936690532E+03  0.22999050111E+03  0.36516046044E+03  0.18800000000E+03 0.  0.
<mgrwt>
<rscale>  0 0.57301562E+03</rscale>
<asrwt>0</asrwt>
<pdfrwt beam="1">  1        2 0.99018305E-01 0.57301562E+03</pdfrwt>
<pdfrwt beam="2">  1       -2 0.16918481E-01 0.57301562E+03</pdfrwt>
<totfact> 0.13012075E+03</totfact>
</mgrwt>
</event>
<event>
 4    1  0.2153371E-005  0.9740093E+03  0.7818608E-02  0.9337519E-01
          2   -1    0    0  501    0  0.00000000000E+00  0.00000000000E+00  0.15750813594E+03  0.15750813597E+03  0.25500000000E-02 0.  1.
         -2   -1    0    0    0  501 -0.00000000000E+00 -0.00000000000E+00 -0.15057859648E+04  0.15057859648E+04  0.25500000000E-02 0. -1.
    5000001    1    1    2    0    0  0.37576979609E+03 -0.20982660598E+02 -0.25519599020E+03  0.49204898650E+03  0.18800000000E+03 0.  0.
   -5000001    1    1    2    0    0 -0.37576979609E+03  0.20982660598E+02 -0.10930818386E+04  0.11712451142E+04  0.18800000000E+03 0.  0.
<mgrwt>
<rscale>  0 0.97400932E+03</rscale>
<asrwt>0</asrwt>
<pdfrwt beam="1">  1        2 0.22501163E-01 0.97400932E+03</pdfrwt>
<pdfrwt beam="2">  1       -2 0.21511227E+00 0.97400932E+03</pdfrwt>
<totfact> 0.26404311E+01</totfact>
</mgrwt>
</event>
<event>
 4    1  0.2153371E-005  0.4430560E+03  0.7818608E-02  0.1029813E+00
         -2   -1    0    0    0  501 -0.00000000000E+00  0.00000000000E+00  0.10196680671E+03  0.10196680674E+03  0.25500000000E-02 0. -1.
          2   -1    0    0  501    0  0.00000000000E+00 -0.00000000000E+00 -0.48128065929E+03  0.48128065930E+03  0.25500000000E-02 0.  1.
    5000001    1    1    2    0    0  0.99607523103E+02 -0.46057876590E+02 -0.13557683533E+03  0.25645285129E+03  0.18800000000E+03 0.  0.
   -5000001    1    1    2    0    0 -0.99607523103E+02  0.46057876590E+02 -0.24373701725E+03  0.32679461475E+03  0.18800000000E+03 0.  0.
<mgrwt>
<rscale>  0 0.44305599E+03</rscale>
<asrwt>0</asrwt>
<pdfrwt beam="1">  1        2 0.68754379E-01 0.44305599E+03</pdfrwt>
<pdfrwt beam="2">  1       -2 0.14566687E-01 0.44305599E+03</pdfrwt>
<totfact> 0.25575262E+03</totfact>
</mgrwt>
</event>
<event>
 4    1  0.2153371E-005  0.4944297E+03  0.7818608E-02  0.1015243E+00
         -2   -1    0    0    0  501 -0.00000000000E+00  0.00000000000E+00  0.38120832125E+02  0.38120832211E+02  0.25500000000E-02 0. -1.
          2   -1    0    0  501    0  0.00000000000E+00 -0.00000000000E+00 -0.16031964540E+04  0.16031964540E+04  0.25500000000E-02 0.  1.
    5000001    1    1    2    0    0  0.13803419690E+03  0.78557123410E+02 -0.70493244747E+03  0.74665816586E+03  0.18800000000E+03 0.  0.
   -5000001    1    1    2    0    0 -0.13803419690E+03 -0.78557123410E+02 -0.86014317445E+03  0.89465912040E+03  0.18800000000E+03 0.  0.
<mgrwt>
<rscale>  0 0.49442970E+03</rscale>
<asrwt>0</asrwt>
<pdfrwt beam="1">  1        2 0.22902802E+00 0.49442970E+03</pdfrwt>
<pdfrwt beam="2">  1       -2 0.54458342E-02 0.49442970E+03</pdfrwt>
<totfact> 0.23685553E+03</totfact>
</mgrwt>
</event>
<event>
 4    1  0.2153371E-005  0.4833074E+03  0.7818608E-02  0.1018230E+00
          2   -1    0    0  501    0  0.00000000000E+00  0.00000000000E+00  0.12909194635E+04  0.12909194635E+04  0.25500000000E-02 0.  1.
         -2   -1    0    0    0  501 -0.00000000000E+00 -0.00000000000E+00 -0.45236377132E+02  0.45236377203E+02  0.25500000000E-02 0. -1.
    5000001    1    1    2    0    0 -0.11089179911E+03  0.68766388095E+02  0.40821972315E+03  0.46798840756E+03  0.18800000000E+03 0.  0.
   -5000001    1    1    2    0    0  0.11089179911E+03 -0.68766388095E+02  0.83746336322E+03  0.86816743315E+03  0.18800000000E+03 0.  0.
<mgrwt>
<rscale>  0 0.48330744E+03</rscale>
<asrwt>0</asrwt>
<pdfrwt beam="1">  1        2 0.18441705E+00 0.48330744E+03</pdfrwt>
<pdfrwt beam="2">  1       -2 0.64623402E-02 0.48330744E+03</pdfrwt>
<totfact> 0.26434267E+03</totfact>
</mgrwt>
</event>
<event>
 4    1  0.2153371E-005  0.4670322E+03  0.7818608E-02  0.1022761E+00
          2   -1    0    0  501    0  0.00000000000E+00  0.00000000000E+00  0.33761170561E+03  0.33761170562E+03  0.25500000000E-02 0.  1.
         -2   -1    0    0    0  501 -0.00000000000E+00 -0.00000000000E+00 -0.16151619769E+03  0.16151619771E+03  0.25500000000E-02 0. -1.
    5000001    1    1    2    0    0 -0.16560397233E+02 -0.52757955801E+02  0.22377180305E+03  0.29744826188E+03  0.18800000000E+03 0.  0.
   -5000001    1    1    2    0    0  0.16560397233E+02  0.52757955801E+02 -0.47676295130E+02  0.20167964145E+03  0.18800000000E+03 0.  0.
<mgrwt>
<rscale>  0 0.46703216E+03</rscale>
<asrwt>0</asrwt>
<pdfrwt beam="1">  1        2 0.48230244E-01 0.46703216E+03</pdfrwt>
<pdfrwt beam="2">  1       -2 0.23073742E-01 0.46703216E+03</pdfrwt>
<totfact> 0.17212459E+03</totfact>
</mgrwt>
</event>
<event>
 4    1  0.2153371E-005  0.6455280E+03  0.7818608E-02  0.9815207E-01
          2   -1    0    0  501    0  0.00000000000E+00  0.00000000000E+00  0.58574184862E+03  0.58574184863E+03  0.25500000000E-02 0.  1.
         -2   -1    0    0    0  501 -0.00000000000E+00 -0.00000000000E+00 -0.17785414304E+03  0.17785414306E+03  0.25500000000E-02 0. -1.
    5000001    1    1    2    0    0  0.17995643355E+03 -0.15305822821E+03  0.68960994295E+02  0.30969462044E+03  0.18800000000E+03 0.  0.
   -5000001    1    1    2    0    0 -0.17995643355E+03  0.15305822821E+03  0.33892671128E+03  0.45390137125E+03  0.18800000000E+03 0.  0.
<mgrwt>
<rscale>  0 0.64552805E+03</rscale>
<asrwt>0</asrwt>
<pdfrwt beam="1">  1        2 0.83677407E-01 0.64552805E+03</pdfrwt>
<pdfrwt beam="2">  1       -2 0.25407735E-01 0.64552805E+03</pdfrwt>
<totfact> 0.77971400E+02</totfact>
</mgrwt>
</event>
<event>
 4    1  0.2153371E-005  0.6188047E+03  0.7818608E-02  0.9867142E-01
          2   -1    0    0  501    0  0.00000000000E+00  0.00000000000E+00  0.12973565092E+04  0.12973565092E+04  0.25500000000E-02 0.  1.
         -2   -1    0    0    0  501 -0.00000000000E+00 -0.00000000000E+00 -0.73788359849E+02  0.73788359893E+02  0.25500000000E-02 0. -1.
    5000001    1    1    2    0    0 -0.38161436329E+01 -0.23246167823E+03  0.78811485271E+03  0.84292467983E+03  0.18800000000E+03 0.  0.
   -5000001    1    1    2    0    0  0.38161436329E+01  0.23246167823E+03  0.43545329666E+03  0.52822018929E+03  0.18800000000E+03 0.  0.
<mgrwt>
<rscale>  0 0.61880468E+03</rscale>
<asrwt>0</asrwt>
<pdfrwt beam="1">  1        2 0.18533665E+00 0.61880468E+03</pdfrwt>
<pdfrwt beam="2">  1       -2 0.10541194E-01 0.61880468E+03</pdfrwt>
<totfact> 0.11980215E+03</totfact>
</mgrwt>
</event>
<event>
 4    1  0.2153371E-005  0.4428060E+03  0.7818608E-02  0.1029889E+00
         -2   -1    0    0    0  501 -0.00000000000E+00  0.00000000000E+00  0.11317428968E+03  0.11317428971E+03  0.25500000000E-02 0. -1.
          2   -1    0    0  501    0  0.00000000000E+00 -0.00000000000E+00 -0.43313102580E+03  0.43313102581E+03  0.25500000000E-02 0.  1.
    5000001    1    1    2    0    0  0.82537511098E+02  0.51683693688E+02 -0.80102706858E+02  0.22637157193E+03  0.18800000000E+03 0.  0.
   -5000001    1    1    2    0    0 -0.82537511098E+02 -0.51683693688E+02 -0.23985402926E+03  0.31993374359E+03  0.18800000000E+03 0.  0.
<mgrwt>
<rscale>  0 0.44280604E+03</rscale>
<asrwt>0</asrwt>
<pdfrwt beam="1">  1        2 0.61875860E-01 0.44280604E+03</pdfrwt>
<pdfrwt beam="2">  1       -2 0.16167756E-01 0.44280604E+03</pdfrwt>
<totfact> 0.24148073E+03</totfact>
</mgrwt>
</event>
<event>
 4    1  0.2153371E-005  0.4551044E+03  0.7818608E-02  0.1026211E+00
          2   -1    0    0  501    0  0.00000000000E+00  0.00000000000E+00  0.11199608651E+04  0.11199608651E+04  0.25500000000E-02 0.  1.
         -2   -1    0    0    0  501 -0.00000000000E+00 -0.00000000000E+00 -0.46233767070E+02  0.46233767140E+02  0.25500000000E-02 0. -1.
    5000001    1    1    2    0    0  0.72239228714E+02  0.10429277632E+03  0.58414943994E+03  0.62663391030E+03  0.18800000000E+03 0.  0.
   -5000001    1    1    2    0    0 -0.72239228714E+02 -0.10429277632E+03  0.48957765805E+03  0.53956072190E+03  0.18800000000E+03 0.  0.
<mgrwt>
<rscale>  0 0.45510443E+03</rscale>
<asrwt>0</asrwt>
<pdfrwt beam="1">  1        2 0.15999443E+00 0.45510443E+03</pdfrwt>
<pdfrwt beam="2">  1       -2 0.66048232E-02 0.45510443E+03</pdfrwt>
<totfact> 0.31782735E+03</totfact>
</mgrwt>
</event>
<event>
 4    1  0.2153371E-005  0.4426093E+03  0.7818608E-02  0.1029949E+00
         -2   -1    0    0    0  501 -0.00000000000E+00  0.00000000000E+00  0.55857565594E+02  0.55857565652E+02  0.25500000000E-02 0. -1.
          2   -1    0    0  501    0  0.00000000000E+00 -0.00000000000E+00 -0.87679686971E+03  0.87679686971E+03  0.25500000000E-02 0.  1.
    5000001    1    1    2    0    0 -0.71129350694E+02  0.85807027385E+02 -0.33718640946E+03  0.40182198198E+03  0.18800000000E+03 0.  0.
   -5000001    1    1    2    0    0  0.71129350694E+02 -0.85807027385E+02 -0.48375289465E+03  0.53083245338E+03  0.18800000000E+03 0.  0.
<mgrwt>
<rscale>  0 0.44260926E+03</rscale>
<asrwt>0</asrwt>
<pdfrwt beam="1">  1        2 0.12525669E+00 0.44260926E+03</pdfrwt>
<pdfrwt beam="2">  1       -2 0.79796528E-02 0.44260926E+03</pdfrwt>
<totfact> 0.33122141E+03</totfact>
</mgrwt>
</event>
<event>
 4    1  0.2153371E-005  0.5371468E+03  0.7818608E-02  0.1004513E+00
         -2   -1    0    0    0  501 -0.00000000000E+00  0.00000000000E+00  0.21938095064E+03  0.21938095065E+03  0.25500000000E-02 0. -1.
          2   -1    0    0  501    0  0.00000000000E+00 -0.00000000000E+00 -0.32879645873E+03  0.32879645874E+03  0.25500000000E-02 0.  1.
    5000001    1    1    2    0    0 -0.16975608450E+03 -0.67684423047E+02 -0.11412159482E+03  0.28594763114E+03  0.18800000000E+03 0.  0.
   -5000001    1    1    2    0    0  0.16975608450E+03  0.67684423047E+02  0.47060867324E+01  0.26222977825E+03  0.18800000000E+03 0.  0.
<mgrwt>
<rscale>  0 0.53714683E+03</rscale>
<asrwt>0</asrwt>
<pdfrwt beam="1">  1        2 0.46970922E-01 0.53714683E+03</pdfrwt>
<pdfrwt beam="2">  1       -2 0.31340136E-01 0.53714683E+03</pdfrwt>
<totfact> 0.10186145E+03</totfact>
</mgrwt>
</event>
<event>
 4    1  0.2153371E-005  0.6488177E+03  0.7818608E-02  0.9809000E-01
          2   -1    0    0  501    0  0.00000000000E+00  0.00000000000E+00  0.30736474651E+04  0.30736474651E+04  0.25500000000E-02 0.  1.
         -2   -1    0    0    0  501 -0.00000000000E+00 -0.00000000000E+00 -0.34239807680E+02  0.34239807774E+02  0.25500000000E-02 0. -1.
    5000001    1    1    2    0    0 -0.10210434891E+03  0.22200814184E+03  0.10363048605E+04  0.10811959476E+04  0.18800000000E+03 0.  0.
   -5000001    1    1    2    0    0  0.10210434891E+03 -0.22200814184E+03  0.20031027969E+04  0.20266913253E+04  0.18800000000E+03 0.  0.
<mgrwt>
<rscale>  0 0.64881769E+03</rscale>
<asrwt>0</asrwt>
<pdfrwt beam="1">  1        2 0.43909268E+00 0.64881769E+03</pdfrwt>
<pdfrwt beam="2">  1       -2 0.48913990E-02 0.64881769E+03</pdfrwt>
<totfact> 0.48572082E+02</totfact>
</mgrwt>
</event>
<event>
 4    1  0.2153371E-005  0.4870638E+03  0.7818608E-02  0.1017212E+00
         -2   -1    0    0    0  501 -0.00000000000E+00  0.00000000000E+00  0.10801821379E+04  0.10801821379E+04  0.25500000000E-02 0. -1.
          2   -1    0    0  501    0  0.00000000000E+00 -0.00000000000E+00 -0.54905365237E+02  0.54905365296E+02  0.25500000000E-02 0.  1.
    5000001    1    1    2    0    0 -0.14907209356E+03 -0.41547619448E+02  0.50358215659E+03  0.55936364039E+03  0.18800000000E+03 0.  0.
   -5000001    1    1    2    0    0  0.14907209356E+03  0.41547619448E+02  0.52169461604E+03  0.57572386277E+03  0.18800000000E+03 0.  0.
<mgrwt>
<rscale>  0 0.48706383E+03</rscale>
<asrwt>0</asrwt>
<pdfrwt beam="1">  1        2 0.78436233E-02 0.48706383E+03</pdfrwt>
<pdfrwt beam="2">  1       -2 0.15431174E+00 0.48706383E+03</pdfrwt>
<totfact> 0.25698003E+02</totfact>
</mgrwt>
</event>
<event>
 4    1  0.2153371E-005  0.6185368E+03  0.7818608E-02  0.9867677E-01
          2   -1    0    0  501    0  0.00000000000E+00  0.00000000000E+00  0.90732628495E+03  0.90732628495E+03  0.25500000000E-02 0.  1.
         -2   -1    0    0    0  501 -0.00000000000E+00 -0.00000000000E+00 -0.10541626508E+03  0.10541626511E+03  0.25500000000E-02 0. -1.
    5000001    1    1    2    0    0 -0.22217817918E+02  0.62127795019E+02  0.13669339482E+02  0.19971065367E+03  0.18800000000E+03 0.  0.
   -5000001    1    1    2    0    0  0.22217817918E+02 -0.62127795019E+02  0.78824068038E+03  0.81303189639E+03  0.18800000000E+03 0.  0.
<mgrwt>
<rscale>  0 0.61853682E+03</rscale>
<asrwt>0</asrwt>
<pdfrwt beam="1">  1        2 0.12961804E+00 0.61853682E+03</pdfrwt>
<pdfrwt beam="2">  1       -2 0.15059466E-01 0.61853682E+03</pdfrwt>
<totfact> 0.11232579E+03</totfact>
</mgrwt>
</event>
<event>
 4    1  0.2153371E-005  0.6830249E+03  0.7818608E-02  0.9746710E-01
         -2   -1    0    0    0  501 -0.00000000000E+00  0.00000000000E+00  0.17794035287E+03  0.17794035288E+03  0.25500000000E-02 0. -1.
          2   -1    0    0  501    0  0.00000000000E+00 -0.00000000000E+00 -0.65544858077E+03  0.65544858078E+03  0.25500000000E-02 0.  1.
    5000001    1    1    2    0    0 -0.15834961649E+02 -0.28158595162E+03 -0.18777956329E+03  0.38748749470E+03  0.18800000000E+03 0.  0.
   -5000001    1    1    2    0    0  0.15834961649E+02  0.28158595162E+03 -0.28972866462E+03  0.44590143896E+03  0.18800000000E+03 0.  0.
<mgrwt>
<rscale>  0 0.68302489E+03</rscale>
<asrwt>0</asrwt>
<pdfrwt beam="1">  1        2 0.93635511E-01 0.68302489E+03</pdfrwt>
<pdfrwt beam="2">  1       -2 0.25420051E-01 0.68302489E+03</pdfrwt>
<totfact> 0.68095620E+02</totfact>
</mgrwt>
</event>
<event>
 4    1  0.2153371E-005  0.5492530E+03  0.7818608E-02  0.1001667E+00
          2   -1    0    0  501    0  0.00000000000E+00  0.00000000000E+00  0.13514210338E+03  0.13514210340E+03  0.25500000000E-02 0.  1.
         -2   -1    0    0    0  501 -0.00000000000E+00 -0.00000000000E+00 -0.55807709515E+03  0.55807709515E+03  0.25500000000E-02 0. -1.
    5000001    1    1    2    0    0  0.18805709460E+03  0.56770369638E+02 -0.26014263384E+03  0.37630643848E+03  0.18800000000E+03 0.  0.
   -5000001    1    1    2    0    0 -0.18805709460E+03 -0.56770369638E+02 -0.16279235793E+03  0.31691276007E+03  0.18800000000E+03 0.  0.
<mgrwt>
<rscale>  0 0.54925299E+03</rscale>
<asrwt>0</asrwt>
<pdfrwt beam="1">  1        2 0.19306015E-01 0.54925299E+03</pdfrwt>
<pdfrwt beam="2">  1       -2 0.79725298E-01 0.54925299E+03</pdfrwt>
<totfact> 0.41668353E+02</totfact>
</mgrwt>
</event>
<event>
 4    1  0.2153371E-005  0.9678993E+03  0.7818608E-02  0.9344470E-01
          2   -1    0    0  501    0  0.00000000000E+00  0.00000000000E+00  0.79706177568E+03  0.79706177568E+03  0.25500000000E-02 0.  1.
         -2   -1    0    0    0  501 -0.00000000000E+00 -0.00000000000E+00 -0.29383828530E+03  0.29383828531E+03  0.25500000000E-02 0. -1.
    5000001    1    1    2    0    0 -0.36101534078E+03 -0.21136738725E+03  0.42569005122E+03  0.62575096354E+03  0.18800000000E+03 0.  0.
   -5000001    1    1    2    0    0  0.36101534078E+03  0.21136738725E+03  0.77533439154E+02  0.46514909745E+03  0.18800000000E+03 0.  0.
<mgrwt>
<rscale>  0 0.96789930E+03</rscale>
<asrwt>0</asrwt>
<pdfrwt beam="1">  1        2 0.11386597E+00 0.96789930E+03</pdfrwt>
<pdfrwt beam="2">  1       -2 0.41976898E-01 0.96789930E+03</pdfrwt>
<totfact> 0.20513896E+02</totfact>
</mgrwt>
</event>
<event>
 4    1  0.2153371E-005  0.7850514E+03  0.7818608E-02  0.9581910E-01
         -2   -1    0    0    0  501 -0.00000000000E+00  0.00000000000E+00  0.20953525065E+04  0.20953525065E+04  0.25500000000E-02 0. -1.
          2   -1    0    0  501    0  0.00000000000E+00 -0.00000000000E+00 -0.73532453831E+02  0.73532453876E+02  0.25500000000E-02 0.  1.
    5000001    1    1    2    0    0  0.17179990597E+03 -0.15522725777E+03  0.17159298299E+04  0.17416572252E+04  0.18800000000E+03 0.  0.
   -5000001    1    1    2    0    0 -0.17179990597E+03  0.15522725777E+03  0.30589022277E+03  0.42722773509E+03  0.18800000000E+03 0.  0.
<mgrwt>
<rscale>  0 0.78505137E+03</rscale>
<asrwt>0</asrwt>
<pdfrwt beam="1">  1        2 0.10504637E-01 0.78505137E+03</pdfrwt>
<pdfrwt beam="2">  1       -2 0.29933605E+00 0.78505137E+03</pdfrwt>
<totfact> 0.20787359E+01</totfact>
</mgrwt>
</event>
<event>
 4    1  0.2153371E-005  0.7111264E+03  0.7818608E-02  0.9698391E-01
         -2   -1    0    0    0  501 -0.00000000000E+00  0.00000000000E+00  0.11963013708E+04  0.11963013708E+04  0.25500000000E-02 0. -1.
          2   -1    0    0  501    0  0.00000000000E+00 -0.00000000000E+00 -0.10568005733E+03  0.10568005736E+03  0.25500000000E-02 0.  1.
    5000001    1    1    2    0    0  0.22966878545E+03 -0.17299712711E+03  0.71316717547E+03  0.79159786330E+03  0.18800000000E+03 0.  0.
   -5000001    1    1    2    0    0 -0.22966878545E+03  0.17299712711E+03  0.37745413804E+03  0.51038356491E+03  0.18800000000E+03 0.  0.
<mgrwt>
<rscale>  0 0.71112642E+03</rscale>
<asrwt>0</asrwt>
<pdfrwt beam="1">  1        2 0.15097151E-01 0.71112642E+03</pdfrwt>
<pdfrwt beam="2">  1       -2 0.17090019E+00 0.71112642E+03</pdfrwt>
<totfact> 0.84833588E+01</totfact>
</mgrwt>
</event>
<event>
 4    1  0.2153371E-005  0.4851662E+03  0.7818608E-02  0.1017725E+00
          2   -1    0    0  501    0  0.00000000000E+00  0.00000000000E+00  0.12073936961E+04  0.12073936961E+04  0.25500000000E-02 0. -1.
         -2   -1    0    0    0  501 -0.00000000000E+00 -0.00000000000E+00 -0.48738508860E+02  0.48738508927E+02  0.25500000000E-02 0.  1.
    5000001    1    1    2    0    0  0.14976867699E+03  0.46528323887E+01  0.66323374553E+03  0.70546105963E+03  0.18800000000E+03 0.  0.
   -5000001    1    1    2    0    0 -0.14976867699E+03 -0.46528323887E+01  0.49542144170E+03  0.55067114538E+03  0.18800000000E+03 0.  0.
<mgrwt>
<rscale>  0 0.48516623E+03</rscale>
<asrwt>0</asrwt>
<pdfrwt beam="1">  1        2 0.17248479E+00 0.48516623E+03</pdfrwt>
<pdfrwt beam="2">  1       -2 0.69626453E-02 0.48516623E+03</pdfrwt>
<totfact> 0.26127255E+03</totfact>
</mgrwt>
</event>
<event>
 4    1  0.2153371E-005  0.5631445E+03  0.7818608E-02  0.9984965E-01
          2   -1    0    0  501    0  0.00000000000E+00  0.00000000000E+00  0.19239798516E+03  0.19239798518E+03  0.25500000000E-02 0. -1.
         -2   -1    0    0    0  501 -0.00000000000E+00 -0.00000000000E+00 -0.41207776720E+03  0.41207776721E+03  0.25500000000E-02 0.  1.
    5000001    1    1    2    0    0 -0.15888979368E+03  0.14164194238E+02 -0.25580699319E+03  0.35528553123E+03  0.18800000000E+03 0.  0.
   -5000001    1    1    2    0    0  0.15888979368E+03 -0.14164194238E+02  0.36127211153E+02  0.24919022116E+03  0.18800000000E+03 0.  0.
<mgrwt>
<rscale>  0 0.56314450E+03</rscale>
<asrwt>0</asrwt>
<pdfrwt beam="1">  1        2 0.27485427E-01 0.56314450E+03</pdfrwt>
<pdfrwt beam="2">  1       -2 0.58868252E-01 0.56314450E+03</pdfrwt>
<totfact> 0.53423839E+02</totfact>
</mgrwt>
</event>
<event>
 4    1  0.2153371E-005  0.4203439E+03  0.7818608E-02  0.1036954E+00
         -2   -1    0    0    0  501 -0.00000000000E+00  0.00000000000E+00  0.52159768854E+03  0.52159768855E+03  0.25500000000E-02 0. -1.
          2   -1    0    0  501    0  0.00000000000E+00 -0.00000000000E+00 -0.84686438126E+02  0.84686438165E+02  0.25500000000E-02 0.  1.
    5000001    1    1    2    0    0 -0.42016063272E+02  0.44222886524E+02  0.11537798896E+03  0.22886042384E+03  0.18800000000E+03 0.  0.
   -5000001    1    1    2    0    0  0.42016063272E+02 -0.44222886524E+02  0.32153326145E+03  0.37742370287E+03  0.18800000000E+03 0.  0.
<mgrwt>
<rscale>  0 0.42034391E+03</rscale>
<asrwt>0</asrwt>
<pdfrwt beam="1">  1        2 0.12098062E-01 0.42034391E+03</pdfrwt>
<pdfrwt beam="2">  1       -2 0.74513959E-01 0.42034391E+03</pdfrwt>
<totfact> 0.84912182E+02</totfact>
</mgrwt>
</event>
<event>
 4    1  0.2153371E-005  0.5625809E+03  0.7818608E-02  0.9986232E-01
          2   -1    0    0  501    0  0.00000000000E+00  0.00000000000E+00  0.36506164157E+03  0.36506164158E+03  0.25500000000E-02 0.  1.
         -2   -1    0    0    0  501 -0.00000000000E+00 -0.00000000000E+00 -0.21674231485E+03  0.21674231486E+03  0.25500000000E-02 0. -1.
    5000001    1    1    2    0    0  0.14828223296E+03  0.56122806567E+02 -0.67044867479E+02  0.25490469647E+03  0.18800000000E+03 0.  0.
   -5000001    1    1    2    0    0 -0.14828223296E+03 -0.56122806567E+02  0.21536419420E+03  0.32689925997E+03  0.18800000000E+03 0.  0.
<mgrwt>
<rscale>  0 0.56258086E+03</rscale>
<asrwt>0</asrwt>
<pdfrwt beam="1">  1        2 0.52151663E-01 0.56258086E+03</pdfrwt>
<pdfrwt beam="2">  1       -2 0.30963188E-01 0.56258086E+03</pdfrwt>
<totfact> 0.92815143E+02</totfact>
</mgrwt>
</event>
<event>
 4    1  0.2153371E-005  0.5991510E+03  0.7818608E-02  0.9907169E-01
         -2   -1    0    0    0  501 -0.00000000000E+00  0.00000000000E+00  0.13470113232E+03  0.13470113235E+03  0.25500000000E-02 0. -1.
          2   -1    0    0  501    0  0.00000000000E+00 -0.00000000000E+00 -0.66625634044E+03  0.66625634045E+03  0.25500000000E-02 0.  1.
    5000001    1    1    2    0    0  0.17586683479E+03 -0.57948321260E+02 -0.76183002193E+02  0.27465433064E+03  0.18800000000E+03 0.  0.
   -5000001    1    1    2    0    0 -0.17586683479E+03  0.57948321260E+02 -0.45537220593E+03  0.52630314216E+03  0.18800000000E+03 0.  0.
<mgrwt>
<rscale>  0 0.59915101E+03</rscale>
<asrwt>0</asrwt>
<pdfrwt beam="1">  1        2 0.95179476E-01 0.59915101E+03</pdfrwt>
<pdfrwt beam="2">  1       -2 0.19243019E-01 0.59915101E+03</pdfrwt>
<totfact> 0.10938991E+03</totfact>
</mgrwt>
</event>
<event>
 4    1  0.2153371E-005  0.4490144E+03  0.7818608E-02  0.1028016E+00
         -2   -1    0    0    0  501 -0.00000000000E+00  0.00000000000E+00  0.15460547986E+02  0.15460548196E+02  0.25500000000E-02 0. -1.
          2   -1    0    0  501    0  0.00000000000E+00 -0.00000000000E+00 -0.32601352102E+04  0.32601352102E+04  0.25500000000E-02 0.  1.
    5000001    1    1    2    0    0  0.56959073430E+02  0.79486333263E+02 -0.21632105166E+04  0.21735653089E+04  0.18800000000E+03 0.  0.
   -5000001    1    1    2    0    0 -0.56959073430E+02 -0.79486333263E+02 -0.10814641457E+04  0.11020304495E+04  0.18800000000E+03 0.  0.
<mgrwt>
<rscale>  0 0.44901437E+03</rscale>
<asrwt>0</asrwt>
<pdfrwt beam="1">  1        2 0.46573316E+00 0.44901437E+03</pdfrwt>
<pdfrwt beam="2">  1       -2 0.22086518E-02 0.44901437E+03</pdfrwt>
<totfact> 0.13093032E+03</totfact>
</mgrwt>
</event>
<event>
 4    1  0.2153371E-005  0.7276724E+03  0.7818608E-02  0.9671045E-01
          2   -1    0    0  501    0  0.00000000000E+00  0.00000000000E+00  0.12831785495E+04  0.12831785495E+04  0.25500000000E-02 0.  1.
         -2   -1    0    0    0  501 -0.00000000000E+00 -0.00000000000E+00 -0.10316319115E+03  0.10316319118E+03  0.25500000000E-02 0. -1.
    5000001    1    1    2    0    0 -0.28572177354E+03  0.12399869094E+03  0.59856756192E+03  0.70045680339E+03  0.18800000000E+03 0.  0.
   -5000001    1    1    2    0    0  0.28572177354E+03 -0.12399869094E+03  0.58144779642E+03  0.68588493728E+03  0.18800000000E+03 0.  0.
<mgrwt>
<rscale>  0 0.72767244E+03</rscale>
<asrwt>0</asrwt>
<pdfrwt beam="1">  1        2 0.18331121E+00 0.72767244E+03</pdfrwt>
<pdfrwt beam="2">  1       -2 0.14737599E-01 0.72767244E+03</pdfrwt>
<totfact> 0.69725896E+02</totfact>
</mgrwt>
</event>
<event>
 4    1  0.2153371E-005  0.1500405E+04  0.7818608E-02  0.8884184E-01
          2   -1    0    0  501    0  0.00000000000E+00  0.00000000000E+00  0.84917304664E+03  0.84917304664E+03  0.25500000000E-02 0.  1.
         -2   -1    0    0    0  501 -0.00000000000E+00 -0.00000000000E+00 -0.66276709646E+03  0.66276709647E+03  0.25500000000E-02 0. -1.
    5000001    1    1    2    0    0 -0.58442631289E+03  0.33100852624E+03 -0.18521663431E+03  0.72164392969E+03  0.18800000000E+03 0.  0.
   -5000001    1    1    2    0    0  0.58442631289E+03 -0.33100852624E+03  0.37162258449E+03  0.79029621342E+03  0.18800000000E+03 0.  0.
<mgrwt>
<rscale>  0 0.15004052E+04</rscale>
<asrwt>0</asrwt>
<pdfrwt beam="1">  1        2 0.12131043E+00 0.15004052E+04</pdfrwt>
<pdfrwt beam="2">  1       -2 0.94681014E-01 0.15004052E+04</pdfrwt>
<totfact> 0.31975872E+01</totfact>
</mgrwt>
</event>
<event>
 4    1  0.2153371E-005  0.5076181E+03  0.7818608E-02  0.1011809E+00
          2   -1    0    0  501    0  0.00000000000E+00  0.00000000000E+00  0.92473773719E+03  0.92473773720E+03  0.25500000000E-02 0.  1.
         -2   -1    0    0    0  501 -0.00000000000E+00 -0.00000000000E+00 -0.69661946600E+02  0.69661946647E+02  0.25500000000E-02 0. -1.
    5000001    1    1    2    0    0 -0.15155791328E+03 -0.76728301072E+02  0.45646132402E+03  0.52207085112E+03  0.18800000000E+03 0.  0.
   -5000001    1    1    2    0    0  0.15155791328E+03  0.76728301072E+02  0.39861446658E+03  0.47232883273E+03  0.18800000000E+03 0.  0.
<mgrwt>
<rscale>  0 0.50761809E+03</rscale>
<asrwt>0</asrwt>
<pdfrwt beam="1">  1        2 0.13210539E+00 0.50761809E+03</pdfrwt>
<pdfrwt beam="2">  1       -2 0.99517070E-02 0.50761809E+03</pdfrwt>
<totfact> 0.21699122E+03</totfact>
</mgrwt>
</event>
<event>
 4    1  0.2153371E-005  0.7492509E+03  0.7818608E-02  0.9636526E-01
          2   -1    0    0  501    0  0.00000000000E+00  0.00000000000E+00  0.28096107786E+04  0.28096107786E+04  0.25500000000E-02 0.  1.
         -2   -1    0    0    0  501 -0.00000000000E+00 -0.00000000000E+00 -0.49951485906E+02  0.49951485971E+02  0.25500000000E-02 0. -1.
    5000001    1    1    2    0    0  0.40490564874E+01 -0.96513402829E+02  0.25603076422E+04  0.25690174103E+04  0.18800000000E+03 0.  0.
   -5000001    1    1    2    0    0 -0.40490564874E+01  0.96513402829E+02  0.19935165051E+03  0.29054485427E+03  0.18800000000E+03 0.  0.
<mgrwt>
<rscale>  0 0.74925091E+03</rscale>
<asrwt>0</asrwt>
<pdfrwt beam="1">  1        2 0.40137300E+00 0.74925091E+03</pdfrwt>
<pdfrwt beam="2">  1       -2 0.71359261E-02 0.74925091E+03</pdfrwt>
<totfact> 0.36976722E+02</totfact>
</mgrwt>
</event>
<event>
 4    1  0.2153371E-005  0.1416125E+04  0.7818608E-02  0.8942228E-01
         -2   -1    0    0    0  501 -0.00000000000E+00  0.00000000000E+00  0.70909348717E+03  0.70909348717E+03  0.25500000000E-02 0.  1.
          2   -1    0    0  501    0  0.00000000000E+00 -0.00000000000E+00 -0.70703320387E+03  0.70703320387E+03  0.25500000000E-02 0. -1.
    5000001    1    1    2    0    0 -0.29048552434E+03  0.61276181751E+03 -0.77390316510E+02  0.70794925378E+03  0.18800000000E+03 0.  0.
   -5000001    1    1    2    0    0  0.29048552434E+03 -0.61276181751E+03  0.79450599810E+02  0.70817743727E+03  0.18800000000E+03 0.  0.
<mgrwt>
<rscale>  0 0.14161252E+04</rscale>
<asrwt>0</asrwt>
<pdfrwt beam="1">  1        2 0.10100474E+00 0.14161252E+04</pdfrwt>
<pdfrwt beam="2">  1       -2 0.10129907E+00 0.14161252E+04</pdfrwt>
<totfact> 0.34683181E+01</totfact>
</mgrwt>
</event>
<event>
 4    1  0.2153371E-005  0.5189934E+03  0.7818608E-02  0.1008937E+00
          2   -1    0    0  501    0  0.00000000000E+00  0.00000000000E+00  0.44238962933E+03  0.44238962934E+03  0.25500000000E-02 0.  1.
         -2   -1    0    0    0  501 -0.00000000000E+00 -0.00000000000E+00 -0.15221545573E+03  0.15221545575E+03  0.25500000000E-02 0. -1.
    5000001    1    1    2    0    0  0.40015337556E+02 -0.17193000796E+03  0.17816129092E+03  0.31344313752E+03  0.18800000000E+03 0.  0.
   -5000001    1    1    2    0    0 -0.40015337556E+02  0.17193000796E+03  0.11201288268E+03  0.28116194757E+03  0.18800000000E+03 0.  0.
<mgrwt>
<rscale>  0 0.51899341E+03</rscale>
<asrwt>0</asrwt>
<pdfrwt beam="1">  1        2 0.63198518E-01 0.51899341E+03</pdfrwt>
<pdfrwt beam="2">  1       -2 0.21745065E-01 0.51899341E+03</pdfrwt>
<totfact> 0.14184813E+03</totfact>
</mgrwt>
</event>
<event>
 4    1  0.2153371E-005  0.6043478E+03  0.7818608E-02  0.9896427E-01
         -2   -1    0    0    0  501 -0.00000000000E+00  0.00000000000E+00  0.24109816692E+03  0.24109816693E+03  0.25500000000E-02 0. -1.
          2   -1    0    0  501    0  0.00000000000E+00 -0.00000000000E+00 -0.37872157249E+03  0.37872157250E+03  0.25500000000E-02 0.  1.
    5000001    1    1    2    0    0 -0.17624983112E+03 -0.11307617705E+03  0.44073622812E+02  0.28484506142E+03  0.18800000000E+03 0.  0.
   -5000001    1    1    2    0    0  0.17624983112E+03  0.11307617705E+03 -0.18169702838E+03  0.33497467801E+03  0.18800000000E+03 0.  0.
<mgrwt>
<rscale>  0 0.60434784E+03</rscale>
<asrwt>0</asrwt>
<pdfrwt beam="1">  1        2 0.54103082E-01 0.60434784E+03</pdfrwt>
<pdfrwt beam="2">  1       -2 0.34442595E-01 0.60434784E+03</pdfrwt>
<totfact> 0.72976992E+02</totfact>
</mgrwt>
</event>
<event>
 4    1  0.2153371E-005  0.4893974E+03  0.7818608E-02  0.1016584E+00
          2   -1    0    0  501    0  0.00000000000E+00  0.00000000000E+00  0.70954545583E+03  0.70954545583E+03  0.25500000000E-02 0.  1.
         -2   -1    0    0    0  501 -0.00000000000E+00 -0.00000000000E+00 -0.84388457151E+02  0.84388457190E+02  0.25500000000E-02 0. -1.
    5000001    1    1    2    0    0 -0.19708780850E+02 -0.15536581974E+03  0.30845132374E+03  0.39371714860E+03  0.18800000000E+03 0.  0.
   -5000001    1    1    2    0    0  0.19708780850E+02  0.15536581974E+03  0.31670567494E+03  0.40021676442E+03  0.18800000000E+03 0.  0.
<mgrwt>
<rscale>  0 0.48939737E+03</rscale>
<asrwt>0</asrwt>
<pdfrwt beam="1">  1        2 0.10136364E+00 0.48939737E+03</pdfrwt>
<pdfrwt beam="2">  1       -2 0.12055494E-01 0.48939737E+03</pdfrwt>
<totfact> 0.22279419E+03</totfact>
</mgrwt>
</event>
<event>
 4    1  0.2153371E-005  0.6443573E+03  0.7818608E-02  0.9817425E-01
         -2   -1    0    0    0  501 -0.00000000000E+00  0.00000000000E+00  0.87226053030E+03  0.87226053031E+03  0.25500000000E-02 0. -1.
          2   -1    0    0  501    0  0.00000000000E+00 -0.00000000000E+00 -0.11900008171E+03  0.11900008173E+03  0.25500000000E-02 0.  1.
    5000001    1    1    2    0    0  0.11436688440E+03  0.23247492861E+03  0.32051240085E+03  0.45298628652E+03  0.18800000000E+03 0.  0.
   -5000001    1    1    2    0    0 -0.11436688440E+03 -0.23247492861E+03  0.43274804775E+03  0.53827432552E+03  0.18800000000E+03 0.  0.
<mgrwt>
<rscale>  0 0.64435727E+03</rscale>
<asrwt>0</asrwt>
<pdfrwt beam="1">  1        2 0.17000012E-01 0.64435727E+03</pdfrwt>
<pdfrwt beam="2">  1       -2 0.12460864E+00 0.64435727E+03</pdfrwt>
<totfact> 0.16870542E+02</totfact>
</mgrwt>
</event>
<event>
 4    1  0.2153371E-005  0.1047265E+04  0.7818608E-02  0.9258172E-01
         -2   -1    0    0    0  501 -0.00000000000E+00  0.00000000000E+00  0.33137086782E+03  0.33137086783E+03  0.25500000000E-02 0. -1.
          2   -1    0    0  501    0  0.00000000000E+00 -0.00000000000E+00 -0.82744441083E+03  0.82744441083E+03  0.25500000000E-02 0.  1.
    5000001    1    1    2    0    0 -0.28035412740E+03  0.26799585552E+03  0.81003829932E+02  0.43854969592E+03  0.18800000000E+03 0.  0.
   -5000001    1    1    2    0    0  0.28035412740E+03 -0.26799585552E+03 -0.57707737294E+03  0.72026558275E+03  0.18800000000E+03 0.  0.
<mgrwt>
<rscale>  0 0.10472650E+04</rscale>
<asrwt>0</asrwt>
<pdfrwt beam="1">  1        2 0.11820634E+00 0.10472650E+04</pdfrwt>
<pdfrwt beam="2">  1       -2 0.47338696E-01 0.10472650E+04</pdfrwt>
<totfact> 0.15313126E+02</totfact>
</mgrwt>
</event>
<event>
 4    1  0.2153371E-005  0.4715385E+03  0.7818608E-02  0.1021487E+00
         -2   -1    0    0    0  501 -0.00000000000E+00  0.00000000000E+00  0.33236938228E+02  0.33236938326E+02  0.25500000000E-02 0. -1.
          2   -1    0    0  501    0  0.00000000000E+00 -0.00000000000E+00 -0.16724510087E+04  0.16724510087E+04  0.25500000000E-02 0.  1.
    5000001    1    1    2    0    0 -0.26132155789E+02 -0.13705849976E+03 -0.71889128550E+03  0.75605330651E+03  0.18800000000E+03 0.  0.
   -5000001    1    1    2    0    0  0.26132155789E+02  0.13705849976E+03 -0.92032278499E+03  0.94963464053E+03  0.18800000000E+03 0.  0.
<mgrwt>
<rscale>  0 0.47153855E+03</rscale>
<asrwt>0</asrwt>
<pdfrwt beam="1">  1        2 0.23892152E+00 0.47153855E+03</pdfrwt>
<pdfrwt beam="2">  1       -2 0.47481351E-02 0.47153855E+03</pdfrwt>
<totfact> 0.27010216E+03</totfact>
</mgrwt>
</event>
<event>
 4    1  0.2153371E-005  0.2177863E+04  0.7818608E-02  0.8527699E-01
          2   -1    0    0  501    0  0.00000000000E+00  0.00000000000E+00  0.40032652320E+04  0.40032652320E+04  0.25500000000E-02 0.  1.
         -2   -1    0    0    0  501 -0.00000000000E+00 -0.00000000000E+00 -0.29620109483E+03  0.29620109484E+03  0.25500000000E-02 0. -1.
    5000001    1    1    2    0    0 -0.72899980228E+03 -0.72630910125E+03  0.24505731383E+04  0.26645108985E+04  0.18800000000E+03 0.  0.
   -5000001    1    1    2    0    0  0.72899980228E+03  0.72630910125E+03  0.12564909989E+04  0.16349554283E+04  0.18800000000E+03 0.  0.
<mgrwt>
<rscale>  0 0.21778628E+04</rscale>
<asrwt>0</asrwt>
<pdfrwt beam="1">  1        2 0.57189504E+00 0.21778628E+04</pdfrwt>
<pdfrwt beam="2">  1       -2 0.42314442E-01 0.21778628E+04</pdfrwt>
<totfact> 0.27702733E+00</totfact>
</mgrwt>
</event>
<event>
 4    1  0.2153371E-005  0.4562092E+03  0.7818608E-02  0.1025886E+00
         -2   -1    0    0    0  501 -0.00000000000E+00  0.00000000000E+00  0.84203248616E+02  0.84203248655E+02  0.25500000000E-02 0. -1.
          2   -1    0    0  501    0  0.00000000000E+00 -0.00000000000E+00 -0.61792991998E+03  0.61792991999E+03  0.25500000000E-02 0.  1.
    5000001    1    1    2    0    0 -0.12737369653E+03 -0.20234085816E+02 -0.27819711754E+03  0.35968196091E+03  0.18800000000E+03 0.  0.
   -5000001    1    1    2    0    0  0.12737369653E+03  0.20234085816E+02 -0.25552955383E+03  0.34245120773E+03  0.18800000000E+03 0.  0.
<mgrwt>
<rscale>  0 0.45620919E+03</rscale>
<asrwt>0</asrwt>
<pdfrwt beam="1">  1        2 0.88275700E-01 0.45620919E+03</pdfrwt>
<pdfrwt beam="2">  1       -2 0.12029036E-01 0.45620919E+03</pdfrwt>
<totfact> 0.26364361E+03</totfact>
</mgrwt>
</event>
<event>
 4    1  0.2153371E-005  0.5011105E+03  0.7818608E-02  0.1013489E+00
         -2   -1    0    0    0  501 -0.00000000000E+00  0.00000000000E+00  0.28291236416E+02  0.28291236531E+02  0.25500000000E-02 0. -1.
          2   -1    0    0  501    0  0.00000000000E+00 -0.00000000000E+00 -0.22189889556E+04  0.22189889556E+04  0.25500000000E-02 0.  1.
    5000001    1    1    2    0    0 -0.83787860837E+02 -0.64179666661E+02 -0.52288998390E+03  0.56559470516E+03  0.18800000000E+03 0.  0.
   -5000001    1    1    2    0    0  0.83787860837E+02  0.64179666661E+02 -0.16678077352E+04  0.16816854869E+04  0.18800000000E+03 0.  0.
<mgrwt>
<rscale>  0 0.50111053E+03</rscale>
<asrwt>0</asrwt>
<pdfrwt beam="1">  1        2 0.31699831E+00 0.50111053E+03</pdfrwt>
<pdfrwt beam="2">  1       -2 0.40416066E-02 0.50111053E+03</pdfrwt>
<totfact> 0.18410355E+03</totfact>
</mgrwt>
</event>
<event>
 4    1  0.2153371E-005  0.7603081E+03  0.7818608E-02  0.9619316E-01
         -2   -1    0    0    0  501 -0.00000000000E+00  0.00000000000E+00  0.13169101925E+03  0.13169101927E+03  0.25500000000E-02 0. -1.
          2   -1    0    0  501    0  0.00000000000E+00 -0.00000000000E+00 -0.10973953005E+04  0.10973953005E+04  0.25500000000E-02 0.  1.
    5000001    1    1    2    0    0 -0.21167135129E+03  0.21848352768E+03 -0.69134053196E+03  0.77835438198E+03  0.18800000000E+03 0.  0.
   -5000001    1    1    2    0    0  0.21167135129E+03 -0.21848352768E+03 -0.27436374932E+03  0.45073193782E+03  0.18800000000E+03 0.  0.
<mgrwt>
<rscale>  0 0.76030811E+03</rscale>
<asrwt>0</asrwt>
<pdfrwt beam="1">  1        2 0.15677075E+00 0.76030811E+03</pdfrwt>
<pdfrwt beam="2">  1       -2 0.18813003E-01 0.76030811E+03</pdfrwt>
<totfact> 0.58461580E+02</totfact>
</mgrwt>
</event>
<event>
 4    1  0.2153371E-005  0.5188027E+03  0.7818608E-02  0.1008984E+00
          2   -1    0    0  501    0  0.00000000000E+00  0.00000000000E+00  0.80637350228E+03  0.80637350228E+03  0.25500000000E-02 0.  1.
         -2   -1    0    0    0  501 -0.00000000000E+00 -0.00000000000E+00 -0.83446509511E+02  0.83446509550E+02  0.25500000000E-02 0. -1.
    5000001    1    1    2    0    0 -0.15734758279E+03 -0.82634693371E+02  0.39392908176E+03  0.47128640529E+03  0.18800000000E+03 0.  0.
   -5000001    1    1    2    0    0  0.15734758279E+03  0.82634693371E+02  0.32899791101E+03  0.41853360654E+03  0.18800000000E+03 0.  0.
<mgrwt>
<rscale>  0 0.51880268E+03</rscale>
<asrwt>0</asrwt>
<pdfrwt beam="1">  1        2 0.11519622E+00 0.51880268E+03</pdfrwt>
<pdfrwt beam="2">  1       -2 0.11920929E-01 0.51880268E+03</pdfrwt>
<totfact> 0.19351207E+03</totfact>
</mgrwt>
</event>
<event>
 4    1  0.2153371E-005  0.7319860E+03  0.7818608E-02  0.9664043E-01
         -2   -1    0    0    0  501 -0.00000000000E+00  0.00000000000E+00  0.20589794202E+03  0.20589794204E+03  0.25500000000E-02 0. -1.
          2   -1    0    0  501    0  0.00000000000E+00 -0.00000000000E+00 -0.65056928445E+03  0.65056928445E+03  0.25500000000E-02 0.  1.
    5000001    1    1    2    0    0  0.28529419062E+03  0.12083157996E+03 -0.28215571363E+03  0.45929172936E+03  0.18800000000E+03 0.  0.
   -5000001    1    1    2    0    0 -0.28529419062E+03 -0.12083157996E+03 -0.16251562880E+03  0.39717549713E+03  0.18800000000E+03 0.  0.
<mgrwt>
<rscale>  0 0.73198600E+03</rscale>
<asrwt>0</asrwt>
<pdfrwt beam="1">  1        2 0.92938468E-01 0.73198600E+03</pdfrwt>
<pdfrwt beam="2">  1       -2 0.29413992E-01 0.73198600E+03</pdfrwt>
<totfact> 0.52572203E+02</totfact>
</mgrwt>
</event>
<event>
 4    1  0.2153371E-005  0.5369906E+03  0.7818608E-02  0.1004551E+00
          2   -1    0    0  501    0  0.00000000000E+00  0.00000000000E+00  0.13734236997E+04  0.13734236997E+04  0.25500000000E-02 0.  1.
         -2   -1    0    0    0  501 -0.00000000000E+00 -0.00000000000E+00 -0.52489056908E+02  0.52489056970E+02  0.25500000000E-02 0. -1.
    5000001    1    1    2    0    0  0.16272078833E+03 -0.15046761036E+02  0.92655226393E+03  0.95945169642E+03  0.18800000000E+03 0.  0.
   -5000001    1    1    2    0    0 -0.16272078833E+03  0.15046761036E+02  0.39438237884E+03  0.46646106023E+03  0.18800000000E+03 0.  0.
<mgrwt>
<rscale>  0 0.53699056E+03</rscale>
<asrwt>0</asrwt>
<pdfrwt beam="1">  1        2 0.19620340E+00 0.53699056E+03</pdfrwt>
<pdfrwt beam="2">  1       -2 0.74984361E-02 0.53699056E+03</pdfrwt>
<totfact> 0.18876498E+03</totfact>
</mgrwt>
</event>
<event>
 4    1  0.2153371E-005  0.4403353E+03  0.7818608E-02  0.1030644E+00
         -2   -1    0    0    0  501 -0.00000000000E+00  0.00000000000E+00  0.57024720359E+02  0.57024720416E+02  0.25500000000E-02 0. -1.
          2   -1    0    0  501    0  0.00000000000E+00 -0.00000000000E+00 -0.85004889808E+03  0.85004889809E+03  0.25500000000E-02 0.  1.
    5000001    1    1    2    0    0 -0.90103193402E+01  0.10870528452E+03 -0.46880985389E+03  0.51674433121E+03  0.18800000000E+03 0.  0.
   -5000001    1    1    2    0    0  0.90103193402E+01 -0.10870528452E+03 -0.32421432384E+03  0.39032928729E+03  0.18800000000E+03 0.  0.
<mgrwt>
<rscale>  0 0.44033533E+03</rscale>
<asrwt>0</asrwt>
<pdfrwt beam="1">  1        2 0.12143555E+00 0.44033533E+03</pdfrwt>
<pdfrwt beam="2">  1       -2 0.81463891E-02 0.44033533E+03</pdfrwt>
<totfact> 0.33371293E+03</totfact>
</mgrwt>
</event>
<event>
 4    1  0.2153371E-005  0.7643594E+03  0.7818608E-02  0.9613088E-01
          2   -1    0    0  501    0  0.00000000000E+00  0.00000000000E+00  0.13228897525E+03  0.13228897528E+03  0.25500000000E-02 0.  1.
         -2   -1    0    0    0  501 -0.00000000000E+00 -0.00000000000E+00 -0.11041081448E+04  0.11041081448E+04  0.25500000000E-02 0. -1.
    5000001    1    1    2    0    0  0.54204845146E+02 -0.29957371756E+03 -0.70313743815E+03  0.78894159126E+03  0.18800000000E+03 0.  0.
   -5000001    1    1    2    0    0 -0.54204845146E+02  0.29957371756E+03 -0.26868173140E+03  0.44745552883E+03  0.18800000000E+03 0.  0.
<mgrwt>
<rscale>  0 0.76435943E+03</rscale>
<asrwt>0</asrwt>
<pdfrwt beam="1">  1        2 0.18898426E-01 0.76435943E+03</pdfrwt>
<pdfrwt beam="2">  1       -2 0.15772973E+00 0.76435943E+03</pdfrwt>
<totfact> 0.80450202E+01</totfact>
</mgrwt>
</event>
<event>
 4    1  0.2153371E-005  0.5201213E+03  0.7818608E-02  0.1008656E+00
         -2   -1    0    0    0  501 -0.00000000000E+00  0.00000000000E+00  0.28564514473E+03  0.28564514474E+03  0.25500000000E-02 0. -1.
          2   -1    0    0  501    0  0.00000000000E+00 -0.00000000000E+00 -0.23676771658E+03  0.23676771659E+03  0.25500000000E-02 0.  1.
    5000001    1    1    2    0    0 -0.11046962701E+03  0.11605665378E+03 -0.57251424969E+02  0.25356342607E+03  0.18800000000E+03 0.  0.
   -5000001    1    1    2    0    0  0.11046962701E+03 -0.11605665378E+03  0.10612885312E+03  0.26884943527E+03  0.18800000000E+03 0.  0.
<mgrwt>
<rscale>  0 0.52012133E+03</rscale>
<asrwt>0</asrwt>
<pdfrwt beam="1">  1        2 0.33823960E-01 0.52012133E+03</pdfrwt>
<pdfrwt beam="2">  1       -2 0.40806449E-01 0.52012133E+03</pdfrwt>
<totfact> 0.88660885E+02</totfact>
</mgrwt>
</event>
<event>
 4    1  0.2153371E-005  0.7267429E+03  0.7818608E-02  0.9672561E-01
         -2   -1    0    0    0  501 -0.00000000000E+00  0.00000000000E+00  0.15525292514E+03  0.15525292516E+03  0.25500000000E-02 0. -1.
          2   -1    0    0  501    0  0.00000000000E+00 -0.00000000000E+00 -0.85047550589E+03  0.85047550589E+03  0.25500000000E-02 0.  1.
    5000001    1    1    2    0    0  0.50758392135E+02  0.30604533432E+03 -0.37711917436E+03  0.52326191597E+03  0.18800000000E+03 0.  0.
   -5000001    1    1    2    0    0 -0.50758392135E+02 -0.30604533432E+03 -0.31810340639E+03  0.48246651509E+03  0.18800000000E+03 0.  0.
<mgrwt>
<rscale>  0 0.72674290E+03</rscale>
<asrwt>0</asrwt>
<pdfrwt beam="1">  1        2 0.12149650E+00 0.72674290E+03</pdfrwt>
<pdfrwt beam="2">  1       -2 0.22178990E-01 0.72674290E+03</pdfrwt>
<totfact> 0.62561414E+02</totfact>
</mgrwt>
</event>
<event>
 4    1  0.2153371E-005  0.6740605E+03  0.7818608E-02  0.9762650E-01
         -2   -1    0    0    0  501 -0.00000000000E+00  0.00000000000E+00  0.94428245668E+03  0.94428245668E+03  0.25500000000E-02 0. -1.
          2   -1    0    0  501    0  0.00000000000E+00 -0.00000000000E+00 -0.12029174174E+03  0.12029174176E+03  0.25500000000E-02 0.  1.
    5000001    1    1    2    0    0  0.20155876155E+03 -0.58944626015E+02  0.70383245186E+03  0.75817182985E+03  0.18800000000E+03 0.  0.
   -5000001    1    1    2    0    0 -0.20155876155E+03  0.58944626015E+02  0.12015826308E+03  0.30640236860E+03  0.18800000000E+03 0.  0.
<mgrwt>
<rscale>  0 0.67406048E+03</rscale>
<asrwt>0</asrwt>
<pdfrwt beam="1">  1        2 0.17184535E-01 0.67406048E+03</pdfrwt>
<pdfrwt beam="2">  1       -2 0.13489749E+00 0.67406048E+03</pdfrwt>
<totfact> 0.13621779E+02</totfact>
</mgrwt>
</event>
<event>
 4    1  0.2153371E-005  0.4403993E+03  0.7818608E-02  0.1030624E+00
          2   -1    0    0  501    0  0.00000000000E+00  0.00000000000E+00  0.19083938042E+03  0.19083938043E+03  0.25500000000E-02 0.  1.
         -2   -1    0    0    0  501 -0.00000000000E+00 -0.00000000000E+00 -0.25407696719E+03  0.25407696720E+03  0.25500000000E-02 0. -1.
    5000001    1    1    2    0    0 -0.46276173077E+02 -0.11024310087E+02 -0.13700009514E+03  0.23743640343E+03  0.18800000000E+03 0.  0.
   -5000001    1    1    2    0    0  0.46276173077E+02  0.11024310087E+02  0.73762508359E+02  0.20747994420E+03  0.18800000000E+03 0.  0.
<mgrwt>
<rscale>  0 0.44039932E+03</rscale>
<asrwt>0</asrwt>
<pdfrwt beam="1">  1        2 0.27262769E-01 0.44039932E+03</pdfrwt>
<pdfrwt beam="2">  1       -2 0.36296709E-01 0.44039932E+03</pdfrwt>
<totfact> 0.14113215E+03</totfact>
</mgrwt>
</event>
<event>
 4    1  0.2153371E-005  0.4605503E+03  0.7818608E-02  0.1024622E+00
          2   -1    0    0  501    0  0.00000000000E+00  0.00000000000E+00  0.12192750426E+04  0.12192750426E+04  0.25500000000E-02 0.  1.
         -2   -1    0    0    0  501 -0.00000000000E+00 -0.00000000000E+00 -0.43490300495E+02  0.43490300570E+02  0.25500000000E-02 0. -1.
    5000001    1    1    2    0    0 -0.11883335693E+03 -0.47424238989E+02  0.48856984435E+03  0.53890158468E+03  0.18800000000E+03 0.  0.
   -5000001    1    1    2    0    0  0.11883335693E+03  0.47424238989E+02  0.68721489773E+03  0.72386375846E+03  0.18800000000E+03 0.  0.
<mgrwt>
<rscale>  0 0.46055027E+03</rscale>
<asrwt>0</asrwt>
<pdfrwt beam="1">  1        2 0.17418213E+00 0.46055027E+03</pdfrwt>
<pdfrwt beam="2">  1       -2 0.62129008E-02 0.46055027E+03</pdfrwt>
<totfact> 0.30761650E+03</totfact>
</mgrwt>
</event>
<event>
 4    1  0.2153371E-005  0.4055284E+03  0.7818608E-02  0.1041882E+00
          2   -1    0    0  501    0  0.00000000000E+00  0.00000000000E+00  0.64080526429E+03  0.64080526430E+03  0.25500000000E-02 0.  1.
         -2   -1    0    0    0  501 -0.00000000000E+00 -0.00000000000E+00 -0.64158851440E+02  0.64158851491E+02  0.25500000000E-02 0. -1.
    5000001    1    1    2    0    0  0.61798216659E+02 -0.40418031132E+02  0.31925925834E+03  0.37778712373E+03  0.18800000000E+03 0.  0.
   -5000001    1    1    2    0    0 -0.61798216659E+02  0.40418031132E+02  0.25738715451E+03  0.32717699206E+03  0.18800000000E+03 0.  0.
<mgrwt>
<rscale>  0 0.40552844E+03</rscale>
<asrwt>0</asrwt>
<pdfrwt beam="1">  1        2 0.91543605E-01 0.40552844E+03</pdfrwt>
<pdfrwt beam="2">  1       -2 0.91655506E-02 0.40552844E+03</pdfrwt>
<totfact> 0.39128622E+03</totfact>
</mgrwt>
</event>
<event>
 4    1  0.2153371E-005  0.6177280E+03  0.7818608E-02  0.9869294E-01
         -2   -1    0    0    0  501 -0.00000000000E+00  0.00000000000E+00  0.54981615462E+03  0.54981615463E+03  0.25500000000E-02 0. -1.
          2   -1    0    0  501    0  0.00000000000E+00 -0.00000000000E+00 -0.17350704118E+03  0.17350704119E+03  0.25500000000E-02 0.  1.
    5000001    1    1    2    0    0 -0.21395203863E+03 -0.72293078241E+02  0.29955538556E+03  0.41961791312E+03  0.18800000000E+03 0.  0.
   -5000001    1    1    2    0    0  0.21395203863E+03  0.72293078241E+02  0.76753727885E+02  0.30370528270E+03  0.18800000000E+03 0.  0.
<mgrwt>
<rscale>  0 0.61772801E+03</rscale>
<asrwt>0</asrwt>
<pdfrwt beam="1">  1        2 0.24786720E-01 0.61772801E+03</pdfrwt>
<pdfrwt beam="2">  1       -2 0.78545164E-01 0.61772801E+03</pdfrwt>
<totfact> 0.32205207E+02</totfact>
</mgrwt>
</event>
<event>
 4    1  0.2153371E-005  0.7765157E+03  0.7818608E-02  0.9594646E-01
         -2   -1    0    0    0  501 -0.00000000000E+00  0.00000000000E+00  0.20631643460E+03  0.20631643462E+03  0.25500000000E-02 0. -1.
          2   -1    0    0  501    0  0.00000000000E+00 -0.00000000000E+00 -0.73064545224E+03  0.73064545224E+03  0.25500000000E-02 0.  1.
    5000001    1    1    2    0    0  0.33899115204E+03  0.18814398670E+02 -0.24834448931E+03  0.46074718461E+03  0.18800000000E+03 0.  0.
   -5000001    1    1    2    0    0 -0.33899115204E+03 -0.18814398670E+02 -0.27598452833E+03  0.47621470225E+03  0.18800000000E+03 0.  0.
<mgrwt>
<rscale>  0 0.77651572E+03</rscale>
<asrwt>0</asrwt>
<pdfrwt beam="1">  1        2 0.10437792E+00 0.77651572E+03</pdfrwt>
<pdfrwt beam="2">  1       -2 0.29473777E-01 0.77651572E+03</pdfrwt>
<totfact> 0.45354271E+02</totfact>
</mgrwt>
</event>
<event>
 4    1  0.2153371E-005  0.5180761E+03  0.7818608E-02  0.1009166E+00
         -2   -1    0    0    0  501 -0.00000000000E+00  0.00000000000E+00  0.35696109518E+02  0.35696109609E+02  0.25500000000E-02 0. -1.
          2   -1    0    0  501    0  0.00000000000E+00 -0.00000000000E+00 -0.18797768034E+04  0.18797768034E+04  0.25500000000E-02 0.  1.
    5000001    1    1    2    0    0  0.15748228305E+03 -0.82201204299E+02 -0.86988230616E+03  0.90752241517E+03  0.18800000000E+03 0.  0.
   -5000001    1    1    2    0    0 -0.15748228305E+03  0.82201204299E+02 -0.97419838776E+03  0.10079504979E+04  0.18800000000E+03 0.  0.
<mgrwt>
<rscale>  0 0.51807613E+03</rscale>
<asrwt>0</asrwt>
<pdfrwt beam="1">  1        2 0.26853948E+00 0.51807613E+03</pdfrwt>
<pdfrwt beam="2">  1       -2 0.50994454E-02 0.51807613E+03</pdfrwt>
<totfact> 0.19006038E+03</totfact>
</mgrwt>
</event>
<event>
 4    1  0.2153371E-005  0.1385391E+04  0.7818608E-02  0.8964462E-01
          2   -1    0    0  501    0  0.00000000000E+00  0.00000000000E+00  0.58752205277E+03  0.58752205277E+03  0.25500000000E-02 0.  1.
         -2   -1    0    0    0  501 -0.00000000000E+00 -0.00000000000E+00 -0.81669576440E+03  0.81669576440E+03  0.25500000000E-02 0. -1.
    5000001    1    1    2    0    0  0.50360397645E+03  0.27146696524E+03 -0.46154191832E+03  0.75873330010E+03  0.18800000000E+03 0.  0.
   -5000001    1    1    2    0    0 -0.50360397645E+03 -0.27146696524E+03  0.23236820669E+03  0.64548451708E+03  0.18800000000E+03 0.  0.
<mgrwt>
<rscale>  0 0.13853906E+04</rscale>
<asrwt>0</asrwt>
<pdfrwt beam="1">  1        2 0.83931722E-01 0.13853906E+04</pdfrwt>
<pdfrwt beam="2">  1       -2 0.11667082E+00 0.13853906E+04</pdfrwt>
<totfact> 0.30899691E+01</totfact>
</mgrwt>
</event>
<event>
 4    1  0.2153371E-005  0.6189715E+03  0.7818608E-02  0.9866810E-01
          2   -1    0    0  501    0  0.00000000000E+00  0.00000000000E+00  0.15550711664E+04  0.15550711664E+04  0.25500000000E-02 0. -1.
         -2   -1    0    0    0  501 -0.00000000000E+00 -0.00000000000E+00 -0.61592955487E+02  0.61592955540E+02  0.25500000000E-02 0.  1.
    5000001    1    1    2    0    0 -0.78495122671E+01 -0.23540291410E+03  0.93070872942E+03  0.97828364284E+03  0.18800000000E+03 0.  0.
   -5000001    1    1    2    0    0  0.78495122671E+01  0.23540291410E+03  0.56276948150E+03  0.63838047912E+03  0.18800000000E+03 0.  0.
<mgrwt>
<rscale>  0 0.61897150E+03</rscale>
<asrwt>0</asrwt>
<pdfrwt beam="1">  1        2 0.22215298E+00 0.61897150E+03</pdfrwt>
<pdfrwt beam="2">  1       -2 0.87989955E-02 0.61897150E+03</pdfrwt>
<totfact> 0.11718120E+03</totfact>
</mgrwt>
</event>
<event>
 4    1  0.2153371E-005  0.5565582E+03  0.7818608E-02  0.9999873E-01
         -2   -1    0    0    0  501 -0.00000000000E+00  0.00000000000E+00  0.27491335409E+02  0.27491335527E+02  0.25500000000E-02 0. -1.
          2   -1    0    0  501    0  0.00000000000E+00 -0.00000000000E+00 -0.28168606707E+04  0.28168606707E+04  0.25500000000E-02 0.  1.
    5000001    1    1    2    0    0 -0.16516682458E+03  0.17021922378E+02 -0.20106231398E+04  0.20262080930E+04  0.18800000000E+03 0.  0.
   -5000001    1    1    2    0    0  0.16516682458E+03 -0.17021922378E+02 -0.77874619549E+03  0.81814391324E+03  0.18800000000E+03 0.  0.
<mgrwt>
<rscale>  0 0.55655821E+03</rscale>
<asrwt>0</asrwt>
<pdfrwt beam="1">  1        2 0.40240848E+00 0.55655821E+03</pdfrwt>
<pdfrwt beam="2">  1       -2 0.39273354E-02 0.55655821E+03</pdfrwt>
<totfact> 0.94581631E+02</totfact>
</mgrwt>
</event>
<event>
 4    1  0.2153371E-005  0.6241271E+03  0.7818608E-02  0.9856577E-01
         -2   -1    0    0    0  501 -0.00000000000E+00  0.00000000000E+00  0.14096210382E+03  0.14096210385E+03  0.25500000000E-02 0. -1.
          2   -1    0    0  501    0  0.00000000000E+00 -0.00000000000E+00 -0.69084993027E+03  0.69084993028E+03  0.25500000000E-02 0.  1.
    5000001    1    1    2    0    0 -0.13076632696E+03 -0.17892711394E+03 -0.12342529196E+03  0.31574126602E+03  0.18800000000E+03 0.  0.
   -5000001    1    1    2    0    0  0.13076632696E+03  0.17892711394E+03 -0.42646253449E+03  0.51607076811E+03  0.18800000000E+03 0.  0.
<mgrwt>
<rscale>  0 0.62412710E+03</rscale>
<asrwt>0</asrwt>
<pdfrwt beam="1">  1        2 0.98692845E-01 0.62412710E+03</pdfrwt>
<pdfrwt beam="2">  1       -2 0.20137444E-01 0.62412710E+03</pdfrwt>
<totfact> 0.96689520E+02</totfact>
</mgrwt>
</event>
<event>
 4    1  0.2153371E-005  0.7510575E+03  0.7818608E-02  0.9633693E-01
         -2   -1    0    0    0  501 -0.00000000000E+00  0.00000000000E+00  0.99623919037E+02  0.99623919070E+02  0.25500000000E-02 0. -1.
          2   -1    0    0  501    0  0.00000000000E+00 -0.00000000000E+00 -0.14155421490E+04  0.14155421490E+04  0.25500000000E-02 0.  1.
    5000001    1    1    2    0    0 -0.29723937977E+03 -0.94515480315E+02 -0.84278245035E+03  0.91810167385E+03  0.18800000000E+03 0.  0.
   -5000001    1    1    2    0    0  0.29723937977E+03  0.94515480315E+02 -0.47313577963E+03  0.59706439425E+03  0.18800000000E+03 0.  0.
<mgrwt>
<rscale>  0 0.75105754E+03</rscale>
<asrwt>0</asrwt>
<pdfrwt beam="1">  1        2 0.20222030E+00 0.75105754E+03</pdfrwt>
<pdfrwt beam="2">  1       -2 0.14231989E-01 0.75105754E+03</pdfrwt>
<totfact> 0.62637069E+02</totfact>
</mgrwt>
</event>
<event>
 4    1  0.2153371E-005  0.5867415E+03  0.7818608E-02  0.9933302E-01
          2   -1    0    0  501    0  0.00000000000E+00  0.00000000000E+00  0.23280796457E+03  0.23280796458E+03  0.25500000000E-02 0.  1.
         -2   -1    0    0    0  501 -0.00000000000E+00 -0.00000000000E+00 -0.36968830733E+03  0.36968830734E+03  0.25500000000E-02 0. -1.
    5000001    1    1    2    0    0 -0.13047224582E+03 -0.16840254758E+03  0.65970061857E+01  0.28420053739E+03  0.18800000000E+03 0.  0.
   -5000001    1    1    2    0    0  0.13047224582E+03  0.16840254758E+03 -0.14347734895E+03  0.31829573453E+03  0.18800000000E+03 0.  0.
<mgrwt>
<rscale>  0 0.58674145E+03</rscale>
<asrwt>0</asrwt>
<pdfrwt beam="1">  1        2 0.33258281E-01 0.58674145E+03</pdfrwt>
<pdfrwt beam="2">  1       -2 0.52812615E-01 0.58674145E+03</pdfrwt>
<totfact> 0.53982850E+02</totfact>
</mgrwt>
</event>
<event>
 4    1  0.2153371E-005  0.2031780E+04  0.7818608E-02  0.8591905E-01
         -2   -1    0    0    0  501 -0.00000000000E+00  0.00000000000E+00  0.47299157892E+03  0.47299157893E+03  0.25500000000E-02 0. -1.
          2   -1    0    0  501    0  0.00000000000E+00 -0.00000000000E+00 -0.21819265972E+04  0.21819265972E+04  0.25500000000E-02 0.  1.
    5000001    1    1    2    0    0 -0.86978531699E+03 -0.24562555794E+03 -0.14085903361E+04  0.16841404773E+04  0.18800000000E+03 0.  0.
   -5000001    1    1    2    0    0  0.86978531699E+03  0.24562555794E+03 -0.30034468214E+03  0.97077769878E+03  0.18800000000E+03 0.  0.
<mgrwt>
<rscale>  0 0.20317804E+04</rscale>
<asrwt>0</asrwt>
<pdfrwt beam="1">  1        2 0.31170379E+00 0.20317804E+04</pdfrwt>
<pdfrwt beam="2">  1       -2 0.67570227E-01 0.20317804E+04</pdfrwt>
<totfact> 0.12067694E+01</totfact>
</mgrwt>
</event>
<event>
 4    1  0.2153371E-005  0.5126236E+03  0.7818608E-02  0.1010536E+00
         -2   -1    0    0    0  501 -0.00000000000E+00  0.00000000000E+00  0.94595631425E+02  0.94595631460E+02  0.25500000000E-02 0. -1.
          2   -1    0    0  501    0  0.00000000000E+00 -0.00000000000E+00 -0.69449017816E+03  0.69449017817E+03  0.25500000000E-02 0.  1.
    5000001    1    1    2    0    0 -0.15471297628E+03 -0.21141238790E+02 -0.18102456573E+03  0.30413311297E+03  0.18800000000E+03 0.  0.
   -5000001    1    1    2    0    0  0.15471297628E+03  0.21141238790E+02 -0.41886998101E+03  0.48495269666E+03  0.18800000000E+03 0.  0.
<mgrwt>
<rscale>  0 0.51262359E+03</rscale>
<asrwt>0</asrwt>
<pdfrwt beam="1">  1        2 0.99212879E-01 0.51262359E+03</pdfrwt>
<pdfrwt beam="2">  1       -2 0.13513662E-01 0.51262359E+03</pdfrwt>
<totfact> 0.18945314E+03</totfact>
</mgrwt>
</event>
<event>
 4    1  0.2153371E-005  0.7552642E+03  0.7818608E-02  0.9627128E-01
          2   -1    0    0  501    0  0.00000000000E+00  0.00000000000E+00  0.10394625444E+04  0.10394625444E+04  0.25500000000E-02 0.  1.
         -2   -1    0    0    0  501 -0.00000000000E+00 -0.00000000000E+00 -0.13719206809E+03  0.13719206811E+03  0.25500000000E-02 0. -1.
    5000001    1    1    2    0    0  0.17555835372E+03 -0.18276260733E+03  0.77434295628E+03  0.83616620366E+03  0.18800000000E+03 0.  0.
   -5000001    1    1    2    0    0 -0.17555835372E+03  0.18276260733E+03  0.12792752007E+03  0.34048840890E+03  0.18800000000E+03 0.  0.
<mgrwt>
<rscale>  0 0.75526424E+03</rscale>
<asrwt>0</asrwt>
<pdfrwt beam="1">  1        2 0.14849465E+00 0.75526424E+03</pdfrwt>
<pdfrwt beam="2">  1       -2 0.19598867E-01 0.75526424E+03</pdfrwt>
<totfact> 0.58947898E+02</totfact>
</mgrwt>
</event>
<event>
 4    1  0.2153371E-005  0.1234290E+04  0.7818608E-02  0.9083361E-01
          2   -1    0    0  501    0  0.00000000000E+00  0.00000000000E+00  0.12142360020E+04  0.12142360020E+04  0.25500000000E-02 0.  1.
         -2   -1    0    0    0  501 -0.00000000000E+00 -0.00000000000E+00 -0.31366895602E+03  0.31366895603E+03  0.25500000000E-02 0. -1.
    5000001    1    1    2    0    0 -0.15009872320E+03 -0.54399272870E+03  0.24662881273E+03  0.64391574515E+03  0.18800000000E+03 0.  0.
   -5000001    1    1    2    0    0  0.15009872320E+03  0.54399272870E+03  0.65393823324E+03  0.88398921287E+03  0.18800000000E+03 0.  0.
<mgrwt>
<rscale>  0 0.12342903E+04</rscale>
<asrwt>0</asrwt>
<pdfrwt beam="1">  1        2 0.17346229E+00 0.12342903E+04</pdfrwt>
<pdfrwt beam="2">  1       -2 0.44809851E-01 0.12342903E+04</pdfrwt>
<totfact> 0.97513551E+01</totfact>
</mgrwt>
</event>
<event>
 4    1  0.2153371E-005  0.5112446E+03  0.7818608E-02  0.1010885E+00
         -2   -1    0    0    0  501 -0.00000000000E+00  0.00000000000E+00  0.71320584551E+03  0.71320584551E+03  0.25500000000E-02 0.  1.
          2   -1    0    0  501    0  0.00000000000E+00 -0.00000000000E+00 -0.91618386764E+02  0.91618386799E+02  0.25500000000E-02 0. -1.
    5000001    1    1    2    0    0 -0.15098374181E+03 -0.67623367927E+02  0.39152285380E+03  0.46476139601E+03  0.18800000000E+03 0.  0.
   -5000001    1    1    2    0    0  0.15098374181E+03  0.67623367927E+02  0.23006460495E+03  0.34006283630E+03  0.18800000000E+03 0.  0.
<mgrwt>
<rscale>  0 0.51124463E+03</rscale>
<asrwt>0</asrwt>
<pdfrwt beam="1">  1        2 0.13088341E-01 0.51124463E+03</pdfrwt>
<pdfrwt beam="2">  1       -2 0.10188655E+00 0.51124463E+03</pdfrwt>
<totfact> 0.37860766E+02</totfact>
</mgrwt>
</event>
<event>
 4    1  0.2153371E-005  0.6190209E+03  0.7818608E-02  0.9866711E-01
         -2   -1    0    0    0  501 -0.00000000000E+00  0.00000000000E+00  0.60770164577E+02  0.60770164631E+02  0.25500000000E-02 0. -1.
          2   -1    0    0  501    0  0.00000000000E+00 -0.00000000000E+00 -0.15763775932E+04  0.15763775932E+04  0.25500000000E-02 0.  1.
    5000001    1    1    2    0    0 -0.64257947838E+02 -0.14969851119E+03 -0.12448520261E+04  0.12694641763E+04  0.18800000000E+03 0.  0.
   -5000001    1    1    2    0    0  0.64257947838E+02  0.14969851119E+03 -0.27075540256E+03  0.36768358153E+03  0.18800000000E+03 0.  0.
<mgrwt>
<rscale>  0 0.61902092E+03</rscale>
<asrwt>0</asrwt>
<pdfrwt beam="1">  1        2 0.22519677E+00 0.61902092E+03</pdfrwt>
<pdfrwt beam="2">  1       -2 0.86814530E-02 0.61902092E+03</pdfrwt>
<totfact> 0.11673990E+03</totfact>
</mgrwt>
</event>
<event>
 4    1  0.2153371E-005  0.5370517E+03  0.7818608E-02  0.1004536E+00
         -2   -1    0    0    0  501 -0.00000000000E+00  0.00000000000E+00  0.56586373311E+02  0.56586373369E+02  0.25500000000E-02 0. -1.
          2   -1    0    0  501    0  0.00000000000E+00 -0.00000000000E+00 -0.12742665495E+04  0.12742665495E+04  0.25500000000E-02 0.  1.
    5000001    1    1    2    0    0 -0.10190424877E+03 -0.15269232628E+03 -0.47169942497E+03  0.53994793262E+03  0.18800000000E+03 0.  0.
   -5000001    1    1    2    0    0  0.10190424877E+03  0.15269232628E+03 -0.74598075123E+03  0.79090499027E+03  0.18800000000E+03 0.  0.
<mgrwt>
<rscale>  0 0.53705166E+03</rscale>
<asrwt>0</asrwt>
<pdfrwt beam="1">  1        2 0.18203806E+00 0.53705166E+03</pdfrwt>
<pdfrwt beam="2">  1       -2 0.80837684E-02 0.53705166E+03</pdfrwt>
<totfact> 0.18945353E+03</totfact>
</mgrwt>
</event>
<event>
 4    1  0.2153371E-005  0.5489050E+03  0.7818608E-02  0.1001748E+00
          2   -1    0    0  501    0  0.00000000000E+00  0.00000000000E+00  0.32856071603E+03  0.32856071604E+03  0.25500000000E-02 0.  1.
         -2   -1    0    0    0  501 -0.00000000000E+00 -0.00000000000E+00 -0.22925497253E+03  0.22925497254E+03  0.25500000000E-02 0. -1.
    5000001    1    1    2    0    0  0.15683346716E+03 -0.12226391989E+03  0.70847503711E+02  0.28268104165E+03  0.18800000000E+03 0.  0.
   -5000001    1    1    2    0    0 -0.15683346716E+03  0.12226391989E+03  0.28458239792E+02  0.27513464693E+03  0.18800000000E+03 0.  0.
<mgrwt>
<rscale>  0 0.54890501E+03</rscale>
<asrwt>0</asrwt>
<pdfrwt beam="1">  1        2 0.46937245E-01 0.54890501E+03</pdfrwt>
<pdfrwt beam="2">  1       -2 0.32750710E-01 0.54890501E+03</pdfrwt>
<totfact> 0.93907953E+02</totfact>
</mgrwt>
</event>
<event>
 4    1  0.2153371E-005  0.9208182E+03  0.7818608E-02  0.9399925E-01
          2   -1    0    0  501    0  0.00000000000E+00  0.00000000000E+00  0.67091157138E+03  0.67091157139E+03  0.25500000000E-02 0.  1.
         -2   -1    0    0    0  501 -0.00000000000E+00 -0.00000000000E+00 -0.31595303675E+03  0.31595303676E+03  0.25500000000E-02 0. -1.
    5000001    1    1    2    0    0  0.15660768798E+03 -0.14692025401E+03  0.56466905935E+03  0.63269793390E+03  0.18800000000E+03 0.  0.
   -5000001    1    1    2    0    0 -0.15660768798E+03  0.14692025401E+03 -0.20971052472E+03  0.35416667425E+03  0.18800000000E+03 0.  0.
<mgrwt>
<rscale>  0 0.92081822E+03</rscale>
<asrwt>0</asrwt>
<pdfrwt beam="1">  1        2 0.95844509E-01 0.92081822E+03</pdfrwt>
<pdfrwt beam="2">  1       -2 0.45136149E-01 0.92081822E+03</pdfrwt>
<totfact> 0.22103172E+02</totfact>
</mgrwt>
</event>
<event>
 4    1  0.2153371E-005  0.5707839E+03  0.7818608E-02  0.9967945E-01
         -2   -1    0    0    0  501 -0.00000000000E+00  0.00000000000E+00  0.82261477704E+02  0.82261477744E+02  0.25500000000E-02 0. -1.
          2   -1    0    0  501    0  0.00000000000E+00 -0.00000000000E+00 -0.99011810816E+03  0.99011810816E+03  0.25500000000E-02 0.  1.
    5000001    1    1    2    0    0  0.19204816748E+03  0.32973108759E+02 -0.62338225605E+03  0.67964635046E+03  0.18800000000E+03 0.  0.
   -5000001    1    1    2    0    0 -0.19204816748E+03 -0.32973108759E+02 -0.28447437440E+03  0.39273323545E+03  0.18800000000E+03 0.  0.
<mgrwt>
<rscale>  0 0.57078395E+03</rscale>
<asrwt>0</asrwt>
<pdfrwt beam="1">  1        2 0.14144544E+00 0.57078395E+03</pdfrwt>
<pdfrwt beam="2">  1       -2 0.11751640E-01 0.57078395E+03</pdfrwt>
<totfact> 0.15068273E+03</totfact>
</mgrwt>
</event>
<event>
 4    1  0.2153371E-005  0.4854151E+03  0.7818608E-02  0.1017657E+00
         -2   -1    0    0    0  501 -0.00000000000E+00  0.00000000000E+00  0.33731368844E+02  0.33731368940E+02  0.25500000000E-02 0. -1.
          2   -1    0    0  501    0  0.00000000000E+00 -0.00000000000E+00 -0.17463553694E+04  0.17463553694E+04  0.25500000000E-02 0.  1.
    5000001    1    1    2    0    0 -0.12166386650E+03  0.91943142602E+02 -0.92059894587E+03  0.95189393160E+03  0.18800000000E+03 0.  0.
   -5000001    1    1    2    0    0  0.12166386650E+03 -0.91943142602E+02 -0.79202505465E+03  0.82819280671E+03  0.18800000000E+03 0.  0.
<mgrwt>
<rscale>  0 0.48541511E+03</rscale>
<asrwt>0</asrwt>
<pdfrwt beam="1">  1        2 0.24947928E+00 0.48541511E+03</pdfrwt>
<pdfrwt beam="2">  1       -2 0.48187681E-02 0.48541511E+03</pdfrwt>
<totfact> 0.24224479E+03</totfact>
</mgrwt>
</event>
<event>
 4    1  0.2153371E-005  0.4966071E+03  0.7818608E-02  0.1014668E+00
         -2   -1    0    0    0  501 -0.00000000000E+00  0.00000000000E+00  0.15865118351E+03  0.15865118353E+03  0.25500000000E-02 0. -1.
          2   -1    0    0  501    0  0.00000000000E+00 -0.00000000000E+00 -0.38861766480E+03  0.38861766481E+03  0.25500000000E-02 0.  1.
    5000001    1    1    2    0    0 -0.16015102380E+03  0.22256619270E+02 -0.12922207473E+03  0.27961768922E+03  0.18800000000E+03 0.  0.
   -5000001    1    1    2    0    0  0.16015102380E+03 -0.22256619270E+02 -0.10074440655E+03  0.26765115912E+03  0.18800000000E+03 0.  0.
<mgrwt>
<rscale>  0 0.49660710E+03</rscale>
<asrwt>0</asrwt>
<pdfrwt beam="1">  1        2 0.55516809E-01 0.49660710E+03</pdfrwt>
<pdfrwt beam="2">  1       -2 0.22664455E-01 0.49660710E+03</pdfrwt>
<totfact> 0.15224438E+03</totfact>
</mgrwt>
</event>
<event>
 4    1  0.2153371E-005  0.5348755E+03  0.7818608E-02  0.1005057E+00
         -2   -1    0    0    0  501 -0.00000000000E+00  0.00000000000E+00  0.12149832934E+03  0.12149832937E+03  0.25500000000E-02 0. -1.
          2   -1    0    0  501    0  0.00000000000E+00 -0.00000000000E+00 -0.58867436862E+03  0.58867436862E+03  0.25500000000E-02 0.  1.
    5000001    1    1    2    0    0 -0.15702787025E+03  0.53002532721E+02 -0.10966028989E+03  0.27356242375E+03  0.18800000000E+03 0.  0.
   -5000001    1    1    2    0    0  0.15702787025E+03 -0.53002532721E+02 -0.35751574939E+03  0.43661027424E+03  0.18800000000E+03 0.  0.
<mgrwt>
<rscale>  0 0.53487551E+03</rscale>
<asrwt>0</asrwt>
<pdfrwt beam="1">  1        2 0.84096337E-01 0.53487551E+03</pdfrwt>
<pdfrwt beam="2">  1       -2 0.17356905E-01 0.53487551E+03</pdfrwt>
<totfact> 0.15135534E+03</totfact>
</mgrwt>
</event>
<event>
 4    1  0.2153371E-005  0.9638540E+03  0.7818608E-02  0.9349102E-01
          2   -1    0    0  501    0  0.00000000000E+00  0.00000000000E+00  0.28629113113E+04  0.28629113113E+04  0.25500000000E-02 0.  1.
         -2   -1    0    0    0  501 -0.00000000000E+00 -0.00000000000E+00 -0.81124982074E+02  0.81124982115E+02  0.25500000000E-02 0. -1.
    5000001    1    1    2    0    0  0.36151373269E+03 -0.21207458983E+03  0.18360650762E+04  0.18926560106E+04  0.18800000000E+03 0.  0.
   -5000001    1    1    2    0    0 -0.36151373269E+03  0.21207458983E+03  0.94572125301E+03  0.10513802828E+04  0.18800000000E+03 0.  0.
<mgrwt>
<rscale>  0 0.96385399E+03</rscale>
<asrwt>0</asrwt>
<pdfrwt beam="1">  1        2 0.40898735E+00 0.96385399E+03</pdfrwt>
<pdfrwt beam="2">  1       -2 0.11589283E-01 0.96385399E+03</pdfrwt>
<totfact> 0.15479635E+02</totfact>
</mgrwt>
</event>
<event>
 4    1  0.2153371E-005  0.8892558E+03  0.7818608E-02  0.9439113E-01
         -2   -1    0    0    0  501 -0.00000000000E+00  0.00000000000E+00  0.10243317204E+03  0.10243317207E+03  0.25500000000E-02 0. -1.
          2   -1    0    0  501    0  0.00000000000E+00 -0.00000000000E+00 -0.19299798922E+04  0.19299798922E+04  0.25500000000E-02 0.  1.
    5000001    1    1    2    0    0 -0.13947555580E+03  0.14013923243E+03 -0.11137135625E+03  0.29468629783E+03  0.18800000000E+03 0.  0.
   -5000001    1    1    2    0    0  0.13947555580E+03 -0.14013923243E+03 -0.17161753639E+04  0.17377267665E+04  0.18800000000E+03 0.  0.
<mgrwt>
<rscale>  0 0.88925578E+03</rscale>
<asrwt>0</asrwt>
<pdfrwt beam="1">  1        2 0.27571139E+00 0.88925578E+03</pdfrwt>
<pdfrwt beam="2">  1       -2 0.14633311E-01 0.88925578E+03</pdfrwt>
<totfact> 0.32136087E+02</totfact>
</mgrwt>
</event>
<event>
 4    1  0.2153371E-005  0.7085436E+03  0.7818608E-02  0.9702732E-01
         -2   -1    0    0    0  501 -0.00000000000E+00  0.00000000000E+00  0.26435897362E+03  0.26435897363E+03  0.25500000000E-02 0. -1.
          2   -1    0    0  501    0  0.00000000000E+00 -0.00000000000E+00 -0.47476541394E+03  0.47476541394E+03  0.25500000000E-02 0.  1.
    5000001    1    1    2    0    0  0.22624544236E+03  0.12177675222E+03 -0.26730613910E+03  0.41570800999E+03  0.18800000000E+03 0.  0.
   -5000001    1    1    2    0    0 -0.22624544236E+03 -0.12177675222E+03  0.56899698778E+02  0.32341637759E+03  0.18800000000E+03 0.  0.
<mgrwt>
<rscale>  0 0.70854357E+03</rscale>
<asrwt>0</asrwt>
<pdfrwt beam="1">  1        2 0.67823630E-01 0.70854357E+03</pdfrwt>
<pdfrwt beam="2">  1       -2 0.37765568E-01 0.70854357E+03</pdfrwt>
<totfact> 0.47421619E+02</totfact>
</mgrwt>
</event>
<event>
 4    1  0.2153371E-005  0.4458564E+03  0.7818608E-02  0.1028965E+00
          2   -1    0    0  501    0  0.00000000000E+00  0.00000000000E+00  0.23069295841E+04  0.23069295841E+04  0.25500000000E-02 0. -1.
         -2   -1    0    0    0  501 -0.00000000000E+00 -0.00000000000E+00 -0.21542480067E+02  0.21542480218E+02  0.25500000000E-02 0.  1.
    5000001    1    1    2    0    0 -0.92449016579E+01 -0.11432545338E+03  0.13233946069E+04  0.13415934790E+04  0.18800000000E+03 0.  0.
   -5000001    1    1    2    0    0  0.92449016579E+01  0.11432545338E+03  0.96199249720E+03  0.98687858532E+03  0.18800000000E+03 0.  0.
<mgrwt>
<rscale>  0 0.44585641E+03</rscale>
<asrwt>0</asrwt>
<pdfrwt beam="1">  1        2 0.32956113E+00 0.44585641E+03</pdfrwt>
<pdfrwt beam="2">  1       -2 0.30774994E-02 0.44585641E+03</pdfrwt>
<totfact> 0.25242836E+03</totfact>
</mgrwt>
</event>
<event>
 4    1  0.2153371E-005  0.6211897E+03  0.7818608E-02  0.9862394E-01
          2   -1    0    0  501    0  0.00000000000E+00  0.00000000000E+00  0.49599801188E+03  0.49599801189E+03  0.25500000000E-02 0.  1.
         -2   -1    0    0    0  501 -0.00000000000E+00 -0.00000000000E+00 -0.19449502883E+03  0.19449502885E+03  0.25500000000E-02 0. -1.
    5000001    1    1    2    0    0  0.26826562609E+02  0.14111307740E+03 -0.72926280204E+02  0.24757788152E+03  0.18800000000E+03 0.  0.
   -5000001    1    1    2    0    0 -0.26826562609E+02 -0.14111307740E+03  0.37442926326E+03  0.44291515921E+03  0.18800000000E+03 0.  0.
<mgrwt>
<rscale>  0 0.62118966E+03</rscale>
<asrwt>0</asrwt>
<pdfrwt beam="1">  1        2 0.70856858E-01 0.62118966E+03</pdfrwt>
<pdfrwt beam="2">  1       -2 0.27785005E-01 0.62118966E+03</pdfrwt>
<totfact> 0.80363488E+02</totfact>
</mgrwt>
</event>
<event>
 4    1  0.2153371E-005  0.5004160E+03  0.7818608E-02  0.1013670E+00
         -2   -1    0    0    0  501 -0.00000000000E+00  0.00000000000E+00  0.10620254890E+03  0.10620254893E+03  0.25500000000E-02 0. -1.
          2   -1    0    0  501    0  0.00000000000E+00 -0.00000000000E+00 -0.58947771479E+03  0.58947771480E+03  0.25500000000E-02 0.  1.
    5000001    1    1    2    0    0  0.67653903138E+02 -0.14331287368E+03 -0.17726039914E+03  0.30311858979E+03  0.18800000000E+03 0.  0.
   -5000001    1    1    2    0    0 -0.67653903138E+02  0.14331287368E+03 -0.30601476676E+03  0.39256167394E+03  0.18800000000E+03 0.  0.
<mgrwt>
<rscale>  0 0.50041597E+03</rscale>
<asrwt>0</asrwt>
<pdfrwt beam="1">  1        2 0.84211100E-01 0.50041597E+03</pdfrwt>
<pdfrwt beam="2">  1       -2 0.15171793E-01 0.50041597E+03</pdfrwt>
<totfact> 0.18974722E+03</totfact>
</mgrwt>
</event>
<event>
 4    1  0.2153371E-005  0.5806448E+03  0.7818608E-02  0.9946396E-01
          2   -1    0    0  501    0  0.00000000000E+00  0.00000000000E+00  0.47547841979E+03  0.47547841980E+03  0.25500000000E-02 0.  1.
         -2   -1    0    0    0  501 -0.00000000000E+00 -0.00000000000E+00 -0.17726799551E+03  0.17726799553E+03  0.25500000000E-02 0. -1.
    5000001    1    1    2    0    0  0.13244707072E+03 -0.70721909603E+02 -0.33549155719E+02  0.24292665743E+03  0.18800000000E+03 0.  0.
   -5000001    1    1    2    0    0 -0.13244707072E+03  0.70721909603E+02  0.33175958000E+03  0.40981975790E+03  0.18800000000E+03 0.  0.
<mgrwt>
<rscale>  0 0.58064484E+03</rscale>
<asrwt>0</asrwt>
<pdfrwt beam="1">  1        2 0.67925488E-01 0.58064484E+03</pdfrwt>
<pdfrwt beam="2">  1       -2 0.25324000E-01 0.58064484E+03</pdfrwt>
<totfact> 0.99780748E+02</totfact>
</mgrwt>
</event>
<event>
 4    1  0.2153371E-005  0.5017340E+03  0.7818608E-02  0.1013327E+00
          2   -1    0    0  501    0  0.00000000000E+00  0.00000000000E+00  0.50941984802E+03  0.50941984803E+03  0.25500000000E-02 0.  1.
         -2   -1    0    0    0  501 -0.00000000000E+00 -0.00000000000E+00 -0.12354100665E+03  0.12354100667E+03  0.25500000000E-02 0. -1.
    5000001    1    1    2    0    0 -0.10389351025E+03  0.12319858676E+03  0.14218685006E+03  0.28553958321E+03  0.18800000000E+03 0.  0.
   -5000001    1    1    2    0    0  0.10389351025E+03 -0.12319858676E+03  0.24369199131E+03  0.34742127149E+03  0.18800000000E+03 0.  0.
<mgrwt>
<rscale>  0 0.50173396E+03</rscale>
<asrwt>0</asrwt>
<pdfrwt beam="1">  1        2 0.72774265E-01 0.50173396E+03</pdfrwt>
<pdfrwt beam="2">  1       -2 0.17648715E-01 0.50173396E+03</pdfrwt>
<totfact> 0.17371224E+03</totfact>
</mgrwt>
</event>
<event>
 4    1  0.2153371E-005  0.5889132E+03  0.7818608E-02  0.9928678E-01
         -2   -1    0    0    0  501 -0.00000000000E+00  0.00000000000E+00  0.74116111234E+02  0.74116111278E+02  0.25500000000E-02 0. -1.
          2   -1    0    0  501    0  0.00000000000E+00 -0.00000000000E+00 -0.11698492507E+04  0.11698492507E+04  0.25500000000E-02 0.  1.
    5000001    1    1    2    0    0  0.16629992497E+03 -0.62837888181E+02 -0.84476716350E+03  0.88350428735E+03  0.18800000000E+03 0.  0.
   -5000001    1    1    2    0    0 -0.16629992497E+03  0.62837888181E+02 -0.25096597598E+03  0.36046107465E+03  0.18800000000E+03 0.  0.
<mgrwt>
<rscale>  0 0.58891316E+03</rscale>
<asrwt>0</asrwt>
<pdfrwt beam="1">  1        2 0.16712131E+00 0.58891316E+03</pdfrwt>
<pdfrwt beam="2">  1       -2 0.10588017E-01 0.58891316E+03</pdfrwt>
<totfact> 0.14009993E+03</totfact>
</mgrwt>
</event>
<event>
 4    1  0.2153371E-005  0.4162799E+03  0.7818608E-02  0.1038284E+00
          2   -1    0    0  501    0  0.00000000000E+00  0.00000000000E+00  0.78780313098E+03  0.78780313099E+03  0.25500000000E-02 0.  1.
         -2   -1    0    0    0  501 -0.00000000000E+00 -0.00000000000E+00 -0.54991186522E+02  0.54991186581E+02  0.25500000000E-02 0. -1.
    5000001    1    1    2    0    0 -0.66211138189E+02 -0.13673183540E+01  0.24505835746E+03  0.31588507869E+03  0.18800000000E+03 0.  0.
   -5000001    1    1    2    0    0  0.66211138189E+02  0.13673183540E+01  0.48775358700E+03  0.52690923888E+03  0.18800000000E+03 0.  0.
<mgrwt>
<rscale>  0 0.41627985E+03</rscale>
<asrwt>0</asrwt>
<pdfrwt beam="1">  1        2 0.11254330E+00 0.41627985E+03</pdfrwt>
<pdfrwt beam="2">  1       -2 0.78558838E-02 0.41627985E+03</pdfrwt>
<totfact> 0.38909447E+03</totfact>
</mgrwt>
</event>
<event>
 4    1  0.2153371E-005  0.5678908E+03  0.7818608E-02  0.9974357E-01
          2   -1    0    0  501    0  0.00000000000E+00  0.00000000000E+00  0.83238588556E+03  0.83238588557E+03  0.25500000000E-02 0.  1.
         -2   -1    0    0    0  501 -0.00000000000E+00 -0.00000000000E+00 -0.96860107957E+02  0.96860107990E+02  0.25500000000E-02 0. -1.
    5000001    1    1    2    0    0  0.17320927573E+03  0.94587233858E+02  0.49797859598E+03  0.56769259293E+03  0.18800000000E+03 0.  0.
   -5000001    1    1    2    0    0 -0.17320927573E+03 -0.94587233858E+02  0.23754718162E+03  0.36155340063E+03  0.18800000000E+03 0.  0.
<mgrwt>
<rscale>  0 0.56789079E+03</rscale>
<asrwt>0</asrwt>
<pdfrwt beam="1">  1        2 0.11891227E+00 0.56789079E+03</pdfrwt>
<pdfrwt beam="2">  1       -2 0.13837158E-01 0.56789079E+03</pdfrwt>
<totfact> 0.14515261E+03</totfact>
</mgrwt>
</event>
<event>
 4    1  0.2153371E-005  0.7241233E+03  0.7818608E-02  0.9676845E-01
          2   -1    0    0  501    0  0.00000000000E+00  0.00000000000E+00  0.12105672312E+04  0.12105672312E+04  0.25500000000E-02 0.  1.
         -2   -1    0    0    0  501 -0.00000000000E+00 -0.00000000000E+00 -0.10828694290E+03  0.10828694293E+03  0.25500000000E-02 0. -1.
    5000001    1    1    2    0    0 -0.82985652060E+02 -0.25378412318E+03  0.26634135226E+03  0.42139615037E+03  0.18800000000E+03 0.  0.
   -5000001    1    1    2    0    0  0.82985652060E+02  0.25378412318E+03  0.83593893604E+03  0.89745802376E+03  0.18800000000E+03 0.  0.
<mgrwt>
<rscale>  0 0.72412326E+03</rscale>
<asrwt>0</asrwt>
<pdfrwt beam="1">  1        2 0.17293817E+00 0.72412326E+03</pdfrwt>
<pdfrwt beam="2">  1       -2 0.15469564E-01 0.72412326E+03</pdfrwt>
<totfact> 0.70506356E+02</totfact>
</mgrwt>
</event>
<event>
 4    1  0.2153371E-005  0.4219357E+03  0.7818608E-02  0.1036438E+00
         -2   -1    0    0    0  501 -0.00000000000E+00  0.00000000000E+00  0.21477946021E+03  0.21477946022E+03  0.25500000000E-02 0. -1.
          2   -1    0    0  501    0  0.00000000000E+00 -0.00000000000E+00 -0.20722389495E+03  0.20722389496E+03  0.25500000000E-02 0.  1.
    5000001    1    1    2    0    0 -0.13978722852E+02 -0.76871168341E+02 -0.51538001153E+02  0.21001130155E+03  0.18800000000E+03 0.  0.
   -5000001    1    1    2    0    0  0.13978722852E+02  0.76871168341E+02  0.59093566414E+02  0.21199205364E+03  0.18800000000E+03 0.  0.
<mgrwt>
<rscale>  0 0.42193571E+03</rscale>
<asrwt>0</asrwt>
<pdfrwt beam="1">  1        2 0.29603414E-01 0.42193571E+03</pdfrwt>
<pdfrwt beam="2">  1       -2 0.30682780E-01 0.42193571E+03</pdfrwt>
<totfact> 0.17608706E+03</totfact>
</mgrwt>
</event>
<event>
 4    1  0.2153371E-005  0.6948499E+03  0.7818608E-02  0.9726080E-01
          2   -1    0    0  501    0  0.00000000000E+00  0.00000000000E+00  0.15952307075E+04  0.15952307075E+04  0.25500000000E-02 0.  1.
         -2   -1    0    0    0  501 -0.00000000000E+00 -0.00000000000E+00 -0.75665596580E+02  0.75665596623E+02  0.25500000000E-02 0. -1.
    5000001    1    1    2    0    0 -0.98582086758E+02  0.21336941271E+03  0.11770850979E+04  0.12149560740E+04  0.18800000000E+03 0.  0.
   -5000001    1    1    2    0    0  0.98582086758E+02 -0.21336941271E+03  0.34248001303E+03  0.45594023012E+03  0.18800000000E+03 0.  0.
<mgrwt>
<rscale>  0 0.69484986E+03</rscale>
<asrwt>0</asrwt>
<pdfrwt beam="1">  1        2 0.22789008E+00 0.69484986E+03</pdfrwt>
<pdfrwt beam="2">  1       -2 0.10809372E-01 0.69484986E+03</pdfrwt>
<totfact> 0.79760182E+02</totfact>
</mgrwt>
</event>
<event>
 4    1  0.2153371E-005  0.1078898E+04  0.7818608E-02  0.9226006E-01
         -2   -1    0    0    0  501 -0.00000000000E+00  0.00000000000E+00  0.88795961086E+03  0.88795961087E+03  0.25500000000E-02 0. -1.
          2   -1    0    0  501    0  0.00000000000E+00 -0.00000000000E+00 -0.32772379046E+03  0.32772379047E+03  0.25500000000E-02 0.  1.
    5000001    1    1    2    0    0 -0.35362312070E+03 -0.34592890026E+03  0.39800200206E+03  0.66216743288E+03  0.18800000000E+03 0.  0.
   -5000001    1    1    2    0    0  0.35362312070E+03  0.34592890026E+03  0.16223381835E+03  0.55351596846E+03  0.18800000000E+03 0.  0.
<mgrwt>
<rscale>  0 0.10788985E+04</rscale>
<asrwt>0</asrwt>
<pdfrwt beam="1">  1        2 0.46817685E-01 0.10788985E+04</pdfrwt>
<pdfrwt beam="2">  1       -2 0.12685137E+00 0.10788985E+04</pdfrwt>
<totfact> 0.49648150E+01</totfact>
</mgrwt>
</event>
<event>
 4    1  0.2153371E-005  0.5625443E+03  0.7818608E-02  0.9986314E-01
         -2   -1    0    0    0  501 -0.00000000000E+00  0.00000000000E+00  0.11818519407E+03  0.11818519410E+03  0.25500000000E-02 0. -1.
          2   -1    0    0  501    0  0.00000000000E+00 -0.00000000000E+00 -0.66940720159E+03  0.66940720160E+03  0.25500000000E-02 0.  1.
    5000001    1    1    2    0    0  0.14209094675E+03  0.15284028384E+03 -0.25484340561E+03  0.37926132270E+03  0.18800000000E+03 0.  0.
   -5000001    1    1    2    0    0 -0.14209094675E+03 -0.15284028384E+03 -0.29637860191E+03  0.40833107300E+03  0.18800000000E+03 0.  0.
<mgrwt>
<rscale>  0 0.56254429E+03</rscale>
<asrwt>0</asrwt>
<pdfrwt beam="1">  1        2 0.95629598E-01 0.56254429E+03</pdfrwt>
<pdfrwt beam="2">  1       -2 0.16883599E-01 0.56254429E+03</pdfrwt>
<totfact> 0.13622003E+03</totfact>
</mgrwt>
</event>
<event>
 4    1  0.2153371E-005  0.4715976E+03  0.7818608E-02  0.1021470E+00
          2   -1    0    0  501    0  0.00000000000E+00  0.00000000000E+00  0.13515053663E+03  0.13515053666E+03  0.25500000000E-02 0.  1.
         -2   -1    0    0    0  501 -0.00000000000E+00 -0.00000000000E+00 -0.41140113687E+03  0.41140113687E+03  0.25500000000E-02 0. -1.
    5000001    1    1    2    0    0  0.11996724605E+03  0.76569728011E+02 -0.13647771145E+03  0.27244307496E+03  0.18800000000E+03 0.  0.
   -5000001    1    1    2    0    0 -0.11996724605E+03 -0.76569728011E+02 -0.13977288878E+03  0.27410859857E+03  0.18800000000E+03 0.  0.
<mgrwt>
<rscale>  0 0.47159764E+03</rscale>
<asrwt>0</asrwt>
<pdfrwt beam="1">  1        2 0.19307220E-01 0.47159764E+03</pdfrwt>
<pdfrwt beam="2">  1       -2 0.58771590E-01 0.47159764E+03</pdfrwt>
<totfact> 0.80480132E+02</totfact>
</mgrwt>
</event>
<event>
 4    1  0.2153371E-005  0.5447496E+03  0.7818608E-02  0.1002717E+00
          2   -1    0    0  501    0  0.00000000000E+00  0.00000000000E+00  0.11080333151E+04  0.11080333151E+04  0.25500000000E-02 0.  1.
         -2   -1    0    0    0  501 -0.00000000000E+00 -0.00000000000E+00 -0.66954692531E+02  0.66954692580E+02  0.25500000000E-02 0. -1.
    5000001    1    1    2    0    0  0.48231714744E+02  0.14243373624E+03  0.79532912402E+03  0.83096695665E+03  0.18800000000E+03 0.  0.
   -5000001    1    1    2    0    0 -0.48231714744E+02 -0.14243373624E+03  0.24574949858E+03  0.34402105107E+03  0.18800000000E+03 0.  0.
<mgrwt>
<rscale>  0 0.54474959E+03</rscale>
<asrwt>0</asrwt>
<pdfrwt beam="1">  1        2 0.15829048E+00 0.54474959E+03</pdfrwt>
<pdfrwt beam="2">  1       -2 0.95649557E-02 0.54474959E+03</pdfrwt>
<totfact> 0.17931901E+03</totfact>
</mgrwt>
</event>
<event>
 4    1  0.2153371E-005  0.5056985E+03  0.7818608E-02  0.1012302E+00
          2   -1    0    0  501    0  0.00000000000E+00  0.00000000000E+00  0.31763745305E+04  0.31763745305E+04  0.25500000000E-02 0.  1.
         -2   -1    0    0    0  501 -0.00000000000E+00 -0.00000000000E+00 -0.20127579712E+02  0.20127579873E+02  0.25500000000E-02 0. -1.
    5000001    1    1    2    0    0 -0.14551926667E+03  0.52600153460E+02  0.11472719999E+04  0.11728255092E+04  0.18800000000E+03 0.  0.
   -5000001    1    1    2    0    0  0.14551926667E+03 -0.52600153460E+02  0.20089749508E+04  0.20236766012E+04  0.18800000000E+03 0.  0.
<mgrwt>
<rscale>  0 0.50569845E+03</rscale>
<asrwt>0</asrwt>
<pdfrwt beam="1">  1        2 0.45376790E+00 0.50569845E+03</pdfrwt>
<pdfrwt beam="2">  1       -2 0.28753678E-02 0.50569845E+03</pdfrwt>
<totfact> 0.97508573E+02</totfact>
</mgrwt>
</event>
<event>
 4    1  0.2153371E-005  0.4283327E+03  0.7818608E-02  0.1034388E+00
         -2   -1    0    0    0  501 -0.00000000000E+00  0.00000000000E+00  0.15634275054E+03  0.15634275056E+03  0.25500000000E-02 0. -1.
          2   -1    0    0  501    0  0.00000000000E+00 -0.00000000000E+00 -0.29337612432E+03  0.29337612433E+03  0.25500000000E-02 0.  1.
    5000001    1    1    2    0    0 -0.87850238508E+02 -0.52248260542E+02 -0.59382602392E+02  0.22207619999E+03  0.18800000000E+03 0.  0.
   -5000001    1    1    2    0    0  0.87850238508E+02  0.52248260542E+02 -0.77650771388E+02  0.22764267489E+03  0.18800000000E+03 0.  0.
<mgrwt>
<rscale>  0 0.42833272E+03</rscale>
<asrwt>0</asrwt>
<pdfrwt beam="1">  1        2 0.41910875E-01 0.42833272E+03</pdfrwt>
<pdfrwt beam="2">  1       -2 0.22334679E-01 0.42833272E+03</pdfrwt>
<totfact> 0.21236272E+03</totfact>
</mgrwt>
</event>
<event>
 4    1  0.2153371E-005  0.5358148E+03  0.7818608E-02  0.1004832E+00
         -2   -1    0    0    0  501 -0.00000000000E+00  0.00000000000E+00  0.14320715172E+03  0.14320715175E+03  0.25500000000E-02 0. -1.
          2   -1    0    0  501    0  0.00000000000E+00 -0.00000000000E+00 -0.50119259266E+03  0.50119259267E+03  0.25500000000E-02 0.  1.
    5000001    1    1    2    0    0 -0.77934301098E+02  0.15440847753E+03 -0.27606284366E+03  0.37612554669E+03  0.18800000000E+03 0.  0.
   -5000001    1    1    2    0    0  0.77934301098E+02 -0.15440847753E+03 -0.81922597276E+02  0.26827419773E+03  0.18800000000E+03 0.  0.
<mgrwt>
<rscale>  0 0.53581476E+03</rscale>
<asrwt>0</asrwt>
<pdfrwt beam="1">  1        2 0.71598941E-01 0.53581476E+03</pdfrwt>
<pdfrwt beam="2">  1       -2 0.20458165E-01 0.53581476E+03</pdfrwt>
<totfact> 0.13716070E+03</totfact>
</mgrwt>
</event>
<event>
 4    1  0.2153371E-005  0.5773135E+03  0.7818608E-02  0.9953624E-01
          2   -1    0    0  501    0  0.00000000000E+00  0.00000000000E+00  0.88001172727E+03  0.88001172727E+03  0.25500000000E-02 0.  1.
         -2   -1    0    0    0  501 -0.00000000000E+00 -0.00000000000E+00 -0.94683642749E+02  0.94683642783E+02  0.25500000000E-02 0. -1.
    5000001    1    1    2    0    0 -0.20074051252E+03  0.85565889971E+02  0.36061062278E+03  0.46152171796E+03  0.18800000000E+03 0.  0.
   -5000001    1    1    2    0    0  0.20074051252E+03 -0.85565889971E+02  0.42471746174E+03  0.51317365209E+03  0.18800000000E+03 0.  0.
<mgrwt>
<rscale>  0 0.57731349E+03</rscale>
<asrwt>0</asrwt>
<pdfrwt beam="1">  1        2 0.12571596E+00 0.57731349E+03</pdfrwt>
<pdfrwt beam="2">  1       -2 0.13526235E-01 0.57731349E+03</pdfrwt>
<totfact> 0.14015101E+03</totfact>
</mgrwt>
</event>
<event>
 4    1  0.2153371E-005  0.1342420E+04  0.7818608E-02  0.8996586E-01
          2   -1    0    0  501    0  0.00000000000E+00  0.00000000000E+00  0.79788708346E+03  0.79788708346E+03  0.25500000000E-02 0.  1.
         -2   -1    0    0    0  501 -0.00000000000E+00 -0.00000000000E+00 -0.56464453307E+03  0.56464453307E+03  0.25500000000E-02 0. -1.
    5000001    1    1    2    0    0 -0.31408180560E+03  0.21710879613E+03 -0.41018756346E+03  0.59108497459E+03  0.18800000000E+03 0.  0.
   -5000001    1    1    2    0    0  0.31408180560E+03 -0.21710879613E+03  0.64343011385E+03  0.77144664195E+03  0.18800000000E+03 0.  0.
<mgrwt>
<rscale>  0 0.13424196E+04</rscale>
<asrwt>0</asrwt>
<pdfrwt beam="1">  1        2 0.11398387E+00 0.13424196E+04</pdfrwt>
<pdfrwt beam="2">  1       -2 0.80663504E-01 0.13424196E+04</pdfrwt>
<totfact> 0.50660166E+01</totfact>
</mgrwt>
</event>
<event>
 4    1  0.2153371E-005  0.5666955E+03  0.7818608E-02  0.9977018E-01
          2   -1    0    0  501    0  0.00000000000E+00  0.00000000000E+00  0.34268421311E+03  0.34268421312E+03  0.25500000000E-02 0.  1.
         -2   -1    0    0    0  501 -0.00000000000E+00 -0.00000000000E+00 -0.23428548894E+03  0.23428548896E+03  0.25500000000E-02 0. -1.
    5000001    1    1    2    0    0  0.11956473345E+03  0.13981504030E+03 -0.53057476440E+02  0.26833387186E+03  0.18800000000E+03 0.  0.
   -5000001    1    1    2    0    0 -0.11956473345E+03 -0.13981504030E+03  0.16145620060E+03  0.30863583022E+03  0.18800000000E+03 0.  0.
<mgrwt>
<rscale>  0 0.56669547E+03</rscale>
<asrwt>0</asrwt>
<pdfrwt beam="1">  1        2 0.48954887E-01 0.56669547E+03</pdfrwt>
<pdfrwt beam="2">  1       -2 0.33469356E-01 0.56669547E+03</pdfrwt>
<totfact> 0.86067720E+02</totfact>
</mgrwt>
</event>
<event>
 4    1  0.2153371E-005  0.5591097E+03  0.7818608E-02  0.9994071E-01
          2   -1    0    0  501    0  0.00000000000E+00  0.00000000000E+00  0.41483197343E+03  0.41483197343E+03  0.25500000000E-02 0.  1.
         -2   -1    0    0    0  501 -0.00000000000E+00 -0.00000000000E+00 -0.18839170201E+03  0.18839170203E+03  0.25500000000E-02 0. -1.
    5000001    1    1    2    0    0  0.14516963813E+03 -0.13287645097E+03  0.44334841099E+02  0.27575342825E+03  0.18800000000E+03 0.  0.
   -5000001    1    1    2    0    0 -0.14516963813E+03  0.13287645097E+03  0.18210543031E+03  0.32747024721E+03  0.18800000000E+03 0.  0.
<mgrwt>
<rscale>  0 0.55910965E+03</rscale>
<asrwt>0</asrwt>
<pdfrwt beam="1">  1        2 0.59261711E-01 0.55910965E+03</pdfrwt>
<pdfrwt beam="2">  1       -2 0.26913100E-01 0.55910965E+03</pdfrwt>
<totfact> 0.10417117E+03</totfact>
</mgrwt>
</event>
<event>
 4    1  0.2153371E-005  0.4472252E+03  0.7818608E-02  0.1028553E+00
          2   -1    0    0  501    0  0.00000000000E+00  0.00000000000E+00  0.60429257115E+03  0.60429257115E+03  0.25500000000E-02 0.  1.
         -2   -1    0    0    0  501 -0.00000000000E+00 -0.00000000000E+00 -0.82745689012E+02  0.82745689051E+02  0.25500000000E-02 0. -1.
    5000001    1    1    2    0    0 -0.85545115277E+02  0.85013091715E+02  0.24441336206E+03  0.33109980982E+03  0.18800000000E+03 0.  0.
   -5000001    1    1    2    0    0  0.85545115277E+02 -0.85013091715E+02  0.27713352008E+03  0.35593845038E+03  0.18800000000E+03 0.  0.
<mgrwt>
<rscale>  0 0.44722525E+03</rscale>
<asrwt>0</asrwt>
<pdfrwt beam="1">  1        2 0.86327510E-01 0.44722525E+03</pdfrwt>
<pdfrwt beam="2">  1       -2 0.11820813E-01 0.44722525E+03</pdfrwt>
<totfact> 0.27839486E+03</totfact>
</mgrwt>
</event>
<event>
 4    1  0.2153371E-005  0.4471339E+03  0.7818608E-02  0.1028580E+00
         -2   -1    0    0    0  501 -0.00000000000E+00  0.00000000000E+00  0.36871622319E+03  0.36871622320E+03  0.25500000000E-02 0. -1.
          2   -1    0    0  501    0  0.00000000000E+00 -0.00000000000E+00 -0.13555730074E+03  0.13555730076E+03  0.25500000000E-02 0.  1.
    5000001    1    1    2    0    0 -0.34980376046E+02  0.10454384578E+03  0.17280109464E+03  0.27813173265E+03  0.18800000000E+03 0.  0.
   -5000001    1    1    2    0    0  0.34980376046E+02 -0.10454384578E+03  0.60357827811E+02  0.22614179131E+03  0.18800000000E+03 0.  0.
<mgrwt>
<rscale>  0 0.44713388E+03</rscale>
<asrwt>0</asrwt>
<pdfrwt beam="1">  1        2 0.19365329E-01 0.44713388E+03</pdfrwt>
<pdfrwt beam="2">  1       -2 0.52673746E-01 0.44713388E+03</pdfrwt>
<totfact> 0.10048650E+03</totfact>
</mgrwt>
</event>
<event>
 4    1  0.2153371E-005  0.3808789E+03  0.7818608E-02  0.1050609E+00
          2   -1    0    0  501    0  0.00000000000E+00  0.00000000000E+00  0.45446890451E+03  0.45446890451E+03  0.25500000000E-02 0.  1.
         -2   -1    0    0    0  501 -0.00000000000E+00 -0.00000000000E+00 -0.79801243930E+02  0.79801243971E+02  0.25500000000E-02 0. -1.
    5000001    1    1    2    0    0  0.25677516460E+02 -0.88651487835E+01  0.16824133365E+03  0.25374607793E+03  0.18800000000E+03 0.  0.
   -5000001    1    1    2    0    0 -0.25677516460E+02  0.88651487835E+01  0.20642632692E+03  0.28052407056E+03  0.18800000000E+03 0.  0.
<mgrwt>
<rscale>  0 0.38087890E+03</rscale>
<asrwt>0</asrwt>
<pdfrwt beam="1">  1        2 0.64924132E-01 0.38087890E+03</pdfrwt>
<pdfrwt beam="2">  1       -2 0.11400177E-01 0.38087890E+03</pdfrwt>
<totfact> 0.40680477E+03</totfact>
</mgrwt>
</event>
<event>
 4    1  0.2153371E-005  0.4422290E+03  0.7818608E-02  0.1030065E+00
          2   -1    0    0  501    0  0.00000000000E+00  0.00000000000E+00  0.13228214354E+04  0.13228214354E+04  0.25500000000E-02 0.  1.
         -2   -1    0    0    0  501 -0.00000000000E+00 -0.00000000000E+00 -0.36960108986E+02  0.36960109074E+02  0.25500000000E-02 0. -1.
    5000001    1    1    2    0    0 -0.14950127783E+02 -0.77804793615E+02  0.38074736908E+03  0.43196024272E+03  0.18800000000E+03 0.  0.
   -5000001    1    1    2    0    0  0.14950127783E+02  0.77804793615E+02  0.90511395733E+03  0.92782130175E+03  0.18800000000E+03 0.  0.
<mgrwt>
<rscale>  0 0.44222901E+03</rscale>
<asrwt>0</asrwt>
<pdfrwt beam="1">  1        2 0.18897445E+00 0.44222901E+03</pdfrwt>
<pdfrwt beam="2">  1       -2 0.52800166E-02 0.44222901E+03</pdfrwt>
<totfact> 0.34789472E+03</totfact>
</mgrwt>
</event>
<event>
 4    1  0.2153371E-005  0.4991310E+03  0.7818608E-02  0.1014006E+00
         -2   -1    0    0    0  501 -0.00000000000E+00  0.00000000000E+00  0.14709683474E+03  0.14709683476E+03  0.25500000000E-02 0. -1.
          2   -1    0    0  501    0  0.00000000000E+00 -0.00000000000E+00 -0.42341460613E+03  0.42341460614E+03  0.25500000000E-02 0.  1.
    5000001    1    1    2    0    0  0.86360341493E+02  0.11691451037E+03 -0.22529666643E+03  0.32745946195E+03  0.18800000000E+03 0.  0.
   -5000001    1    1    2    0    0 -0.86360341493E+02 -0.11691451037E+03 -0.51021104964E+02  0.24305197895E+03  0.18800000000E+03 0.  0.
<mgrwt>
<rscale>  0 0.49913104E+03</rscale>
<asrwt>0</asrwt>
<pdfrwt beam="1">  1        2 0.60487800E-01 0.49913104E+03</pdfrwt>
<pdfrwt beam="2">  1       -2 0.21013834E-01 0.49913104E+03</pdfrwt>
<totfact> 0.15811561E+03</totfact>
</mgrwt>
</event>
<event>
 4    1  0.2153371E-005  0.4276299E+03  0.7818608E-02  0.1034611E+00
          2   -1    0    0  501    0  0.00000000000E+00  0.00000000000E+00  0.14739201729E+03  0.14739201732E+03  0.25500000000E-02 0.  1.
         -2   -1    0    0    0  501 -0.00000000000E+00 -0.00000000000E+00 -0.31017173987E+03  0.31017173988E+03  0.25500000000E-02 0. -1.
    5000001    1    1    2    0    0  0.81536113720E+02  0.35107804253E+02 -0.13480569116E+03  0.24778472537E+03  0.18800000000E+03 0.  0.
   -5000001    1    1    2    0    0 -0.81536113720E+02 -0.35107804253E+02 -0.27974031421E+02  0.20977903183E+03  0.18800000000E+03 0.  0.
<mgrwt>
<rscale>  0 0.42762993E+03</rscale>
<asrwt>0</asrwt>
<pdfrwt beam="1">  1        2 0.21056003E-01 0.42762993E+03</pdfrwt>
<pdfrwt beam="2">  1       -2 0.44310248E-01 0.42762993E+03</pdfrwt>
<totfact> 0.12884009E+03</totfact>
</mgrwt>
</event>
<event>
 4    1  0.2153371E-005  0.9469240E+03  0.7818608E-02  0.9368753E-01
          2   -1    0    0  501    0  0.00000000000E+00  0.00000000000E+00  0.83586309655E+03  0.83586309655E+03  0.25500000000E-02 0. -1.
         -2   -1    0    0    0  501 -0.00000000000E+00 -0.00000000000E+00 -0.26818539829E+03  0.26818539830E+03  0.25500000000E-02 0.  1.
    5000001    1    1    2    0    0  0.23851703871E+03 -0.16713347888E+03 -0.92159669929E+02  0.35869399532E+03  0.18800000000E+03 0.  0.
   -5000001    1    1    2    0    0 -0.23851703871E+03  0.16713347888E+03  0.65983736819E+03  0.74535449954E+03  0.18800000000E+03 0.  0.
<mgrwt>
<rscale>  0 0.94692403E+03</rscale>
<asrwt>0</asrwt>
<pdfrwt beam="1">  1        2 0.11940901E+00 0.94692403E+03</pdfrwt>
<pdfrwt beam="2">  1       -2 0.38312200E-01 0.94692403E+03</pdfrwt>
<totfact> 0.23072856E+02</totfact>
</mgrwt>
</event>
<event>
 4    1  0.2153371E-005  0.1311363E+04  0.7818608E-02  0.9020603E-01
         -2   -1    0    0    0  501 -0.00000000000E+00  0.00000000000E+00  0.23811700073E+03  0.23811700074E+03  0.25500000000E-02 0. -1.
          2   -1    0    0  501    0  0.00000000000E+00 -0.00000000000E+00 -0.18054903027E+04  0.18054903027E+04  0.25500000000E-02 0.  1.
    5000001    1    1    2    0    0 -0.12455685282E+03  0.13206851837E+03 -0.17208155866E+04  0.17405478409E+04  0.18800000000E+03 0.  0.
   -5000001    1    1    2    0    0  0.12455685282E+03 -0.13206851837E+03  0.15344228467E+03  0.30305946257E+03  0.18800000000E+03 0.  0.
<mgrwt>
<rscale>  0 0.13113626E+04</rscale>
<asrwt>0</asrwt>
<pdfrwt beam="1">  1        2 0.25792718E+00 0.13113626E+04</pdfrwt>
<pdfrwt beam="2">  1       -2 0.34016715E-01 0.13113626E+04</pdfrwt>
<totfact> 0.80122549E+01</totfact>
</mgrwt>
</event>
<event>
 4    1  0.2153371E-005  0.4326262E+03  0.7818608E-02  0.1033034E+00
          2   -1    0    0  501    0  0.00000000000E+00  0.00000000000E+00  0.81791475451E+03  0.81791475452E+03  0.25500000000E-02 0.  1.
         -2   -1    0    0    0  501 -0.00000000000E+00 -0.00000000000E+00 -0.57208108799E+02  0.57208108856E+02  0.25500000000E-02 0. -1.
    5000001    1    1    2    0    0 -0.64370967922E+02  0.69650702308E+02  0.48052893502E+03  0.52463978045E+03  0.18800000000E+03 0.  0.
   -5000001    1    1    2    0    0  0.64370967922E+02 -0.69650702308E+02  0.28017771070E+03  0.35048308292E+03  0.18800000000E+03 0.  0.
<mgrwt>
<rscale>  0 0.43262620E+03</rscale>
<asrwt>0</asrwt>
<pdfrwt beam="1">  1        2 0.11684497E+00 0.43262620E+03</pdfrwt>
<pdfrwt beam="2">  1       -2 0.81725869E-02 0.43262620E+03</pdfrwt>
<totfact> 0.34877507E+03</totfact>
</mgrwt>
</event>
<event>
 4    1  0.2153371E-005  0.4748691E+03  0.7818608E-02  0.1020555E+00
          2   -1    0    0  501    0  0.00000000000E+00  0.00000000000E+00  0.60737487054E+03  0.60737487055E+03  0.25500000000E-02 0.  1.
         -2   -1    0    0    0  501 -0.00000000000E+00 -0.00000000000E+00 -0.92817726691E+02  0.92817726727E+02  0.25500000000E-02 0. -1.
    5000001    1    1    2    0    0  0.82029128040E+01  0.14234584458E+03  0.29633261457E+03  0.37879631163E+03  0.18800000000E+03 0.  0.
   -5000001    1    1    2    0    0 -0.82029128040E+01 -0.14234584458E+03  0.21822452928E+03  0.32139628565E+03  0.18800000000E+03 0.  0.
<mgrwt>
<rscale>  0 0.47486905E+03</rscale>
<asrwt>0</asrwt>
<pdfrwt beam="1">  1        2 0.86767844E-01 0.47486905E+03</pdfrwt>
<pdfrwt beam="2">  1       -2 0.13259674E-01 0.47486905E+03</pdfrwt>
<totfact> 0.22927449E+03</totfact>
</mgrwt>
</event>
<event>
 4    1  0.2153371E-005  0.4401133E+03  0.7818608E-02  0.1030712E+00
         -2   -1    0    0    0  501 -0.00000000000E+00  0.00000000000E+00  0.46935517833E+02  0.46935517902E+02  0.25500000000E-02 0. -1.
          2   -1    0    0  501    0  0.00000000000E+00 -0.00000000000E+00 -0.10317329704E+04  0.10317329704E+04  0.25500000000E-02 0.  1.
    5000001    1    1    2    0    0 -0.48024374221E+02  0.97336055965E+02 -0.40402141192E+03  0.45864795825E+03  0.18800000000E+03 0.  0.
   -5000001    1    1    2    0    0  0.48024374221E+02 -0.97336055965E+02 -0.58077604065E+03  0.62002053007E+03  0.18800000000E+03 0.  0.
<mgrwt>
<rscale>  0 0.44011326E+03</rscale>
<asrwt>0</asrwt>
<pdfrwt beam="1">  1        2 0.14739041E+00 0.44011326E+03</pdfrwt>
<pdfrwt beam="2">  1       -2 0.67050747E-02 0.44011326E+03</pdfrwt>
<totfact> 0.34928903E+03</totfact>
</mgrwt>
</event>
<event>
 4    1  0.2153371E-005  0.7363656E+03  0.7818608E-02  0.9656987E-01
         -2   -1    0    0    0  501 -0.00000000000E+00  0.00000000000E+00  0.70274347979E+03  0.70274347979E+03  0.25500000000E-02 0.  1.
          2   -1    0    0  501    0  0.00000000000E+00 -0.00000000000E+00 -0.19289907135E+03  0.19289907136E+03  0.25500000000E-02 0. -1.
    5000001    1    1    2    0    0 -0.31351364286E+03 -0.30278802046E+02  0.29351854883E+03  0.46979223985E+03  0.18800000000E+03 0.  0.
   -5000001    1    1    2    0    0  0.31351364286E+03  0.30278802046E+02  0.21632585961E+03  0.42585031131E+03  0.18800000000E+03 0.  0.
<mgrwt>
<rscale>  0 0.73636557E+03</rscale>
<asrwt>0</asrwt>
<pdfrwt beam="1">  1        2 0.27557010E-01 0.73636557E+03</pdfrwt>
<pdfrwt beam="2">  1       -2 0.10039193E+00 0.73636557E+03</pdfrwt>
<totfact> 0.16187755E+02</totfact>
</mgrwt>
</event>
<event>
 4    1  0.2153371E-005  0.5238978E+03  0.7818608E-02  0.1007723E+00
         -2   -1    0    0    0  501 -0.00000000000E+00  0.00000000000E+00  0.71935675638E+02  0.71935675683E+02  0.25500000000E-02 0. -1.
          2   -1    0    0  501    0  0.00000000000E+00 -0.00000000000E+00 -0.95386932665E+03  0.95386932665E+03  0.25500000000E-02 0.  1.
    5000001    1    1    2    0    0 -0.94429257076E+02  0.15580162503E+03 -0.45871948854E+03  0.52816531514E+03  0.18800000000E+03 0.  0.
   -5000001    1    1    2    0    0  0.94429257076E+02 -0.15580162503E+03 -0.42321416247E+03  0.49763968719E+03  0.18800000000E+03 0.  0.
<mgrwt>
<rscale>  0 0.52389783E+03</rscale>
<asrwt>0</asrwt>
<pdfrwt beam="1">  1        2 0.13626704E+00 0.52389783E+03</pdfrwt>
<pdfrwt beam="2">  1       -2 0.10276526E-01 0.52389783E+03</pdfrwt>
<totfact> 0.19751643E+03</totfact>
</mgrwt>
</event>
<event>
 4    1  0.2153371E-005  0.3865761E+03  0.7818608E-02  0.1048530E+00
         -2   -1    0    0    0  501 -0.00000000000E+00  0.00000000000E+00  0.80493402285E+02  0.80493402325E+02  0.25500000000E-02 0.  1.
          2   -1    0    0  501    0  0.00000000000E+00 -0.00000000000E+00 -0.46414081060E+03  0.46414081061E+03  0.25500000000E-02 0. -1.
    5000001    1    1    2    0    0 -0.30001731843E+02  0.27059482332E+02 -0.16421733961E+03  0.25287082498E+03  0.18800000000E+03 0.  0.
   -5000001    1    1    2    0    0  0.30001731843E+02 -0.27059482332E+02 -0.21943006871E+03  0.29176338795E+03  0.18800000000E+03 0.  0.
<mgrwt>
<rscale>  0 0.38657611E+03</rscale>
<asrwt>0</asrwt>
<pdfrwt beam="1">  1        2 0.66305829E-01 0.38657611E+03</pdfrwt>
<pdfrwt beam="2">  1       -2 0.11499058E-01 0.38657611E+03</pdfrwt>
<totfact> 0.39201528E+03</totfact>
</mgrwt>
</event>
<event>
 4    1  0.2153371E-005  0.4636916E+03  0.7818608E-02  0.1023716E+00
          2   -1    0    0  501    0  0.00000000000E+00  0.00000000000E+00  0.76100736717E+02  0.76100736760E+02  0.25500000000E-02 0.  1.
         -2   -1    0    0    0  501 -0.00000000000E+00 -0.00000000000E+00 -0.70633315747E+03  0.70633315748E+03  0.25500000000E-02 0. -1.
    5000001    1    1    2    0    0  0.18288104305E+02 -0.13423249141E+03 -0.30252756614E+03  0.38107708509E+03  0.18800000000E+03 0.  0.
   -5000001    1    1    2    0    0 -0.18288104305E+02  0.13423249141E+03 -0.32770485462E+03  0.40135680914E+03  0.18800000000E+03 0.  0.
<mgrwt>
<rscale>  0 0.46369159E+03</rscale>
<asrwt>0</asrwt>
<pdfrwt beam="1">  1        2 0.10871534E-01 0.46369159E+03</pdfrwt>
<pdfrwt beam="2">  1       -2 0.10090473E+00 0.46369159E+03</pdfrwt>
<totfact> 0.48767423E+02</totfact>
</mgrwt>
</event>
<event>
 4    1  0.2153371E-005  0.8287957E+03  0.7818608E-02  0.9519247E-01
         -2   -1    0    0    0  501 -0.00000000000E+00  0.00000000000E+00  0.32882564736E+03  0.32882564737E+03  0.25500000000E-02 0. -1.
          2   -1    0    0  501    0  0.00000000000E+00 -0.00000000000E+00 -0.52223897903E+03  0.52223897904E+03  0.25500000000E-02 0.  1.
    5000001    1    1    2    0    0  0.20112770949E+03 -0.29056994525E+03 -0.20681806702E+03  0.45055628001E+03  0.18800000000E+03 0.  0.
   -5000001    1    1    2    0    0 -0.20112770949E+03  0.29056994525E+03  0.13404735347E+02  0.40050834640E+03  0.18800000000E+03 0.  0.
<mgrwt>
<rscale>  0 0.82879568E+03</rscale>
<asrwt>0</asrwt>
<pdfrwt beam="1">  1        2 0.74605568E-01 0.82879568E+03</pdfrwt>
<pdfrwt beam="2">  1       -2 0.46975093E-01 0.82879568E+03</pdfrwt>
<totfact> 0.27568077E+02</totfact>
</mgrwt>
</event>
<event>
 4    1  0.2153371E-005  0.6189840E+03  0.7818608E-02  0.9866785E-01
          2   -1    0    0  501    0  0.00000000000E+00  0.00000000000E+00  0.18044447416E+04  0.18044447416E+04  0.25500000000E-02 0.  1.
         -2   -1    0    0    0  501 -0.00000000000E+00 -0.00000000000E+00 -0.53082974391E+02  0.53082974452E+02  0.25500000000E-02 0. -1.
    5000001    1    1    2    0    0  0.64900230672E+02 -0.18237951774E+03  0.13304675241E+04  0.13575574246E+04  0.18800000000E+03 0.  0.
   -5000001    1    1    2    0    0 -0.64900230672E+02  0.18237951774E+03  0.42089424306E+03  0.49997029139E+03  0.18800000000E+03 0.  0.
<mgrwt>
<rscale>  0 0.61898399E+03</rscale>
<asrwt>0</asrwt>
<pdfrwt beam="1">  1        2 0.25777785E+00 0.61898399E+03</pdfrwt>
<pdfrwt beam="2">  1       -2 0.75832812E-02 0.61898399E+03</pdfrwt>
<totfact> 0.11083524E+03</totfact>
</mgrwt>
</event>
<event>
 4    1  0.2153371E-005  0.7239922E+03  0.7818608E-02  0.9677060E-01
          2   -1    0    0  501    0  0.00000000000E+00  0.00000000000E+00  0.24250659379E+04  0.24250659379E+04  0.25500000000E-02 0.  1.
         -2   -1    0    0    0  501 -0.00000000000E+00 -0.00000000000E+00 -0.54036123681E+02  0.54036123741E+02  0.25500000000E-02 0. -1.
    5000001    1    1    2    0    0  0.30898423623E+03 -0.13151358925E+02  0.11605988474E+04  0.12157211445E+04  0.18800000000E+03 0.  0.
   -5000001    1    1    2    0    0 -0.30898423623E+03  0.13151358925E+02  0.12104309668E+04  0.12633809171E+04  0.18800000000E+03 0.  0.
<mgrwt>
<rscale>  0 0.72399216E+03</rscale>
<asrwt>0</asrwt>
<pdfrwt beam="1">  1        2 0.34643805E+00 0.72399216E+03</pdfrwt>
<pdfrwt beam="2">  1       -2 0.77194450E-02 0.72399216E+03</pdfrwt>
<totfact> 0.51926458E+02</totfact>
</mgrwt>
</event>
<event>
 4    1  0.2153371E-005  0.8317471E+03  0.7818608E-02  0.9515168E-01
          2   -1    0    0  501    0  0.00000000000E+00  0.00000000000E+00  0.11617074136E+04  0.11617074136E+04  0.25500000000E-02 0.  1.
         -2   -1    0    0    0  501 -0.00000000000E+00 -0.00000000000E+00 -0.14887640054E+03  0.14887640056E+03  0.25500000000E-02 0. -1.
    5000001    1    1    2    0    0 -0.28431269367E+03  0.20990912876E+03  0.32876439319E+03  0.51800152157E+03  0.18800000000E+03 0.  0.
   -5000001    1    1    2    0    0  0.28431269367E+03 -0.20990912876E+03  0.68406661988E+03  0.79258229261E+03  0.18800000000E+03 0.  0.
<mgrwt>
<rscale>  0 0.83174712E+03</rscale>
<asrwt>0</asrwt>
<pdfrwt beam="1">  1        2 0.16595819E+00 0.83174712E+03</pdfrwt>
<pdfrwt beam="2">  1       -2 0.21268059E-01 0.83174712E+03</pdfrwt>
<totfact> 0.43148804E+02</totfact>
</mgrwt>
</event>
<event>
 4    1  0.2153371E-005  0.8712979E+03  0.7818608E-02  0.9462189E-01
         -2   -1    0    0    0  501 -0.00000000000E+00  0.00000000000E+00  0.31880640581E+03  0.31880640582E+03  0.25500000000E-02 0. -1.
          2   -1    0    0  501    0  0.00000000000E+00 -0.00000000000E+00 -0.59531426665E+03  0.59531426665E+03  0.25500000000E-02 0.  1.
    5000001    1    1    2    0    0 -0.19480586412E+03 -0.24836483414E+03  0.10737134515E+03  0.38276235616E+03  0.18800000000E+03 0.  0.
   -5000001    1    1    2    0    0  0.19480586412E+03  0.24836483414E+03 -0.38387920598E+03  0.53135831631E+03  0.18800000000E+03 0.  0.
<mgrwt>
<rscale>  0 0.87129789E+03</rscale>
<asrwt>0</asrwt>
<pdfrwt beam="1">  1        2 0.85044895E-01 0.87129789E+03</pdfrwt>
<pdfrwt beam="2">  1       -2 0.45543773E-01 0.87129789E+03</pdfrwt>
<totfact> 0.25123402E+02</totfact>
</mgrwt>
</event>
<event>
 4    1  0.2153371E-005  0.5278207E+03  0.7818608E-02  0.1006762E+00
          2   -1    0    0  501    0  0.00000000000E+00  0.00000000000E+00  0.80943335528E+02  0.80943335568E+02  0.25500000000E-02 0.  1.
         -2   -1    0    0    0  501 -0.00000000000E+00 -0.00000000000E+00 -0.86046202312E+03  0.86046202313E+03  0.25500000000E-02 0. -1.
    5000001    1    1    2    0    0  0.68042917779E+02  0.10114931240E+03 -0.14105744503E+03  0.26476824745E+03  0.18800000000E+03 0.  0.
   -5000001    1    1    2    0    0 -0.68042917779E+02 -0.10114931240E+03 -0.63846124257E+03  0.67663711125E+03  0.18800000000E+03 0.  0.
<mgrwt>
<rscale>  0 0.52782068E+03</rscale>
<asrwt>0</asrwt>
<pdfrwt beam="1">  1        2 0.11563334E-01 0.52782068E+03</pdfrwt>
<pdfrwt beam="2">  1       -2 0.12292314E+00 0.52782068E+03</pdfrwt>
<totfact> 0.28029919E+02</totfact>
</mgrwt>
</event>
<event>
 4    1  0.2153371E-005  0.4851306E+03  0.7818608E-02  0.1017735E+00
          2   -1    0    0  501    0  0.00000000000E+00  0.00000000000E+00  0.12146805047E+04  0.12146805047E+04  0.25500000000E-02 0.  1.
         -2   -1    0    0    0  501 -0.00000000000E+00 -0.00000000000E+00 -0.48439012340E+02  0.48439012407E+02  0.25500000000E-02 0. -1.
    5000001    1    1    2    0    0  0.13434508867E+03 -0.38602375707E+02  0.74686602306E+03  0.78274619300E+03  0.18800000000E+03 0.  0.
   -5000001    1    1    2    0    0 -0.13434508867E+03  0.38602375707E+02  0.41937546928E+03  0.48037332409E+03  0.18800000000E+03 0.  0.
<mgrwt>
<rscale>  0 0.48513060E+03</rscale>
<asrwt>0</asrwt>
<pdfrwt beam="1">  1        2 0.17352579E+00 0.48513060E+03</pdfrwt>
<pdfrwt beam="2">  1       -2 0.69198588E-02 0.48513060E+03</pdfrwt>
<totfact> 0.26137547E+03</totfact>
</mgrwt>
</event>
<event>
 4    1  0.2153371E-005  0.4209889E+03  0.7818608E-02  0.1036745E+00
          2   -1    0    0  501    0  0.00000000000E+00  0.00000000000E+00  0.60129549751E+03  0.60129549751E+03  0.25500000000E-02 0.  1.
         -2   -1    0    0    0  501 -0.00000000000E+00 -0.00000000000E+00 -0.73687407715E+02  0.73687407759E+02  0.25500000000E-02 0. -1.
    5000001    1    1    2    0    0  0.84075270836E+02  0.39089078063E+02  0.29453189803E+03  0.36151022966E+03  0.18800000000E+03 0.  0.
   -5000001    1    1    2    0    0 -0.84075270836E+02 -0.39089078063E+02  0.23307619176E+03  0.31347267562E+03  0.18800000000E+03 0.  0.
<mgrwt>
<rscale>  0 0.42098887E+03</rscale>
<asrwt>0</asrwt>
<pdfrwt beam="1">  1        2 0.85899353E-01 0.42098887E+03</pdfrwt>
<pdfrwt beam="2">  1       -2 0.10526773E-01 0.42098887E+03</pdfrwt>
<totfact> 0.33774865E+03</totfact>
</mgrwt>
</event>
<event>
 4    1  0.2153371E-005  0.5235779E+03  0.7818608E-02  0.1007802E+00
         -2   -1    0    0    0  501 -0.00000000000E+00  0.00000000000E+00  0.13946732162E+03  0.13946732164E+03  0.25500000000E-02 0. -1.
          2   -1    0    0  501    0  0.00000000000E+00 -0.00000000000E+00 -0.49139425993E+03  0.49139425994E+03  0.25500000000E-02 0.  1.
    5000001    1    1    2    0    0 -0.68079811564E+02  0.16221991267E+03 -0.23298082372E+03  0.34723799479E+03  0.18800000000E+03 0.  0.
   -5000001    1    1    2    0    0  0.68079811564E+02 -0.16221991267E+03 -0.11894611460E+03  0.28362358679E+03  0.18800000000E+03 0.  0.
<mgrwt>
<rscale>  0 0.52357785E+03</rscale>
<asrwt>0</asrwt>
<pdfrwt beam="1">  1        2 0.70199179E-01 0.52357785E+03</pdfrwt>
<pdfrwt beam="2">  1       -2 0.19923903E-01 0.52357785E+03</pdfrwt>
<totfact> 0.14686715E+03</totfact>
</mgrwt>
</event>
<event>
 4    1  0.2153371E-005  0.4000836E+03  0.7818608E-02  0.1043751E+00
          2   -1    0    0  501    0  0.00000000000E+00  0.00000000000E+00  0.15858935263E+03  0.15858935265E+03  0.25500000000E-02 0.  1.
         -2   -1    0    0    0  501 -0.00000000000E+00 -0.00000000000E+00 -0.25232923396E+03  0.25232923397E+03  0.25500000000E-02 0. -1.
    5000001    1    1    2    0    0  0.28842456606E+01 -0.56010320326E+02 -0.87008406774E+02  0.21461579090E+03  0.18800000000E+03 0.  0.
   -5000001    1    1    2    0    0 -0.28842456606E+01  0.56010320326E+02 -0.67314745548E+01  0.19630279572E+03  0.18800000000E+03 0.  0.
<mgrwt>
<rscale>  0 0.40008364E+03</rscale>
<asrwt>0</asrwt>
<pdfrwt beam="1">  1        2 0.22655622E-01 0.40008364E+03</pdfrwt>
<pdfrwt beam="2">  1       -2 0.36047033E-01 0.40008364E+03</pdfrwt>
<totfact> 0.17618396E+03</totfact>
</mgrwt>
</event>
<event>
 4    1  0.2153371E-005  0.8411642E+03  0.7818608E-02  0.9502273E-01
          2   -1    0    0  501    0  0.00000000000E+00  0.00000000000E+00  0.15896580875E+04  0.15896580875E+04  0.25500000000E-02 0.  1.
         -2   -1    0    0    0  501 -0.00000000000E+00 -0.00000000000E+00 -0.11127507259E+03  0.11127507262E+03  0.25500000000E-02 0. -1.
    5000001    1    1    2    0    0  0.70866409694E+02 -0.34909858454E+03  0.98397176130E+03  0.10632197782E+04  0.18800000000E+03 0.  0.
   -5000001    1    1    2    0    0 -0.70866409694E+02  0.34909858454E+03  0.49441125358E+03  0.63771338188E+03  0.18800000000E+03 0.  0.
<mgrwt>
<rscale>  0 0.84116424E+03</rscale>
<asrwt>0</asrwt>
<pdfrwt beam="1">  1        2 0.22709401E+00 0.84116424E+03</pdfrwt>
<pdfrwt beam="2">  1       -2 0.15896439E-01 0.84116424E+03</pdfrwt>
<totfact> 0.41867022E+02</totfact>
</mgrwt>
</event>
<event>
 4    1  0.2153371E-005  0.5085603E+03  0.7818608E-02  0.1011568E+00
          2   -1    0    0  501    0  0.00000000000E+00  0.00000000000E+00  0.45512428703E+04  0.45512428703E+04  0.25500000000E-02 0.  1.
         -2   -1    0    0    0  501 -0.00000000000E+00 -0.00000000000E+00 -0.14206755937E+02  0.14206756166E+02  0.25500000000E-02 0. -1.
    5000001    1    1    2    0    0 -0.14202389304E+03 -0.61791330243E+02  0.16134009469E+04  0.16316848869E+04  0.18800000000E+03 0.  0.
   -5000001    1    1    2    0    0  0.14202389304E+03  0.61791330243E+02  0.29236351674E+04  0.29337647395E+04  0.18800000000E+03 0.  0.
<mgrwt>
<rscale>  0 0.50856031E+03</rscale>
<asrwt>0</asrwt>
<pdfrwt beam="1">  1        2 0.65017845E+00 0.50856031E+03</pdfrwt>
<pdfrwt beam="2">  1       -2 0.20295338E-02 0.50856031E+03</pdfrwt>
<totfact> 0.20974343E+02</totfact>
</mgrwt>
</event>
<event>
 4    1  0.2153371E-005  0.6261243E+03  0.7818608E-02  0.9852641E-01
         -2   -1    0    0    0  501 -0.00000000000E+00  0.00000000000E+00  0.36502383881E+02  0.36502383970E+02  0.25500000000E-02 0. -1.
          2   -1    0    0  501    0  0.00000000000E+00 -0.00000000000E+00 -0.26849732408E+04  0.26849732408E+04  0.25500000000E-02 0.  1.
    5000001    1    1    2    0    0  0.94366326641E+02 -0.52545135172E+02 -0.23058028350E+04  0.23159742461E+04  0.18800000000E+03 0.  0.
   -5000001    1    1    2    0    0 -0.94366326641E+02  0.52545135172E+02 -0.34266802191E+03  0.40550137863E+03  0.18800000000E+03 0.  0.
<mgrwt>
<rscale>  0 0.62612435E+03</rscale>
<asrwt>0</asrwt>
<pdfrwt beam="1">  1        2 0.38356748E+00 0.62612435E+03</pdfrwt>
<pdfrwt beam="2">  1       -2 0.52146280E-02 0.62612435E+03</pdfrwt>
<totfact> 0.71212150E+02</totfact>
</mgrwt>
</event>
<event>
 4    1  0.2153371E-005  0.5686185E+03  0.7818608E-02  0.9972740E-01
          2   -1    0    0  501    0  0.00000000000E+00  0.00000000000E+00  0.55067725103E+02  0.55067725162E+02  0.25500000000E-02 0.  1.
         -2   -1    0    0    0  501 -0.00000000000E+00 -0.00000000000E+00 -0.14678606084E+04  0.14678606084E+04  0.25500000000E-02 0. -1.
    5000001    1    1    2    0    0  0.24345455766E+02 -0.17484010122E+03 -0.38582804851E+03  0.46407870586E+03  0.18800000000E+03 0.  0.
   -5000001    1    1    2    0    0 -0.24345455766E+02  0.17484010122E+03 -0.10269648348E+04  0.10588496278E+04  0.18800000000E+03 0.  0.
<mgrwt>
<rscale>  0 0.56861848E+03</rscale>
<asrwt>0</asrwt>
<pdfrwt beam="1">  1        2 0.78668188E-02 0.56861848E+03</pdfrwt>
<pdfrwt beam="2">  1       -2 0.20969435E+00 0.56861848E+03</pdfrwt>
<totfact> 0.10721795E+02</totfact>
</mgrwt>
</event>
<event>
 4    1  0.2153371E-005  0.4992258E+03  0.7818608E-02  0.1013981E+00
         -2   -1    0    0    0  501 -0.00000000000E+00  0.00000000000E+00  0.49443613575E+03  0.49443613575E+03  0.25500000000E-02 0. -1.
          2   -1    0    0  501    0  0.00000000000E+00 -0.00000000000E+00 -0.12601546616E+03  0.12601546619E+03  0.25500000000E-02 0.  1.
    5000001    1    1    2    0    0 -0.71316281036E+02 -0.13401081005E+03  0.26200072977E+03  0.35641729974E+03  0.18800000000E+03 0.  0.
   -5000001    1    1    2    0    0  0.71316281036E+02  0.13401081005E+03  0.10641993981E+03  0.26403430220E+03  0.18800000000E+03 0.  0.
<mgrwt>
<rscale>  0 0.49922580E+03</rscale>
<asrwt>0</asrwt>
<pdfrwt beam="1">  1        2 0.18002210E-01 0.49922580E+03</pdfrwt>
<pdfrwt beam="2">  1       -2 0.70633732E-01 0.49922580E+03</pdfrwt>
<totfact> 0.59097937E+02</totfact>
</mgrwt>
</event>
<event>
 4    1  0.2153371E-005  0.4308721E+03  0.7818608E-02  0.1033585E+00
         -2   -1    0    0    0  501 -0.00000000000E+00  0.00000000000E+00  0.18436543255E+03  0.18436543256E+03  0.25500000000E-02 0. -1.
          2   -1    0    0  501    0  0.00000000000E+00 -0.00000000000E+00 -0.25174292110E+03  0.25174292111E+03  0.25500000000E-02 0.  1.
    5000001    1    1    2    0    0  0.24869156391E+02 -0.96522627140E+02  0.38940159057E+00  0.21278920114E+03  0.18800000000E+03 0.  0.
   -5000001    1    1    2    0    0 -0.24869156391E+02  0.96522627140E+02 -0.67766890145E+02  0.22331915254E+03  0.18800000000E+03 0.  0.
<mgrwt>
<rscale>  0 0.43087210E+03</rscale>
<asrwt>0</asrwt>
<pdfrwt beam="1">  1        2 0.35963274E-01 0.43087210E+03</pdfrwt>
<pdfrwt beam="2">  1       -2 0.26337919E-01 0.43087210E+03</pdfrwt>
<totfact> 0.18744849E+03</totfact>
</mgrwt>
</event>
<event>
 4    1  0.2153371E-005  0.6418339E+03  0.7818608E-02  0.9822224E-01
         -2   -1    0    0    0  501 -0.00000000000E+00  0.00000000000E+00  0.65199639323E+02  0.65199639373E+02  0.25500000000E-02 0. -1.
          2   -1    0    0  501    0  0.00000000000E+00 -0.00000000000E+00 -0.15795742802E+04  0.15795742802E+04  0.25500000000E-02 0.  1.
    5000001    1    1    2    0    0 -0.25916520692E+03  0.12463018195E+02 -0.80315340740E+03  0.86470881059E+03  0.18800000000E+03 0.  0.
   -5000001    1    1    2    0    0  0.25916520692E+03 -0.12463018195E+02 -0.71122123350E+03  0.78006510900E+03  0.18800000000E+03 0.  0.
<mgrwt>
<rscale>  0 0.64183385E+03</rscale>
<asrwt>0</asrwt>
<pdfrwt beam="1">  1        2 0.22565345E+00 0.64183385E+03</pdfrwt>
<pdfrwt beam="2">  1       -2 0.93142351E-02 0.64183385E+03</pdfrwt>
<totfact> 0.10374933E+03</totfact>
</mgrwt>
</event>
<event>
 4    1  0.2153371E-005  0.5638026E+03  0.7818608E-02  0.9983487E-01
         -2   -1    0    0    0  501 -0.00000000000E+00  0.00000000000E+00  0.11939588604E+03  0.11939588607E+03  0.25500000000E-02 0. -1.
          2   -1    0    0  501    0  0.00000000000E+00 -0.00000000000E+00 -0.66558683357E+03  0.66558683357E+03  0.25500000000E-02 0.  1.
    5000001    1    1    2    0    0 -0.18362916128E+03 -0.10200310401E+03 -0.27286398797E+03  0.39233029202E+03  0.18800000000E+03 0.  0.
   -5000001    1    1    2    0    0  0.18362916128E+03  0.10200310401E+03 -0.27332695956E+03  0.39265242763E+03  0.18800000000E+03 0.  0.
<mgrwt>
<rscale>  0 0.56380255E+03</rscale>
<asrwt>0</asrwt>
<pdfrwt beam="1">  1        2 0.95083831E-01 0.56380255E+03</pdfrwt>
<pdfrwt beam="2">  1       -2 0.17056555E-01 0.56380255E+03</pdfrwt>
<totfact> 0.13479981E+03</totfact>
</mgrwt>
</event>
<event>
 4    1  0.2153371E-005  0.6492512E+03  0.7818608E-02  0.9808185E-01
          2   -1    0    0  501    0  0.00000000000E+00  0.00000000000E+00  0.10163747190E+04  0.10163747190E+04  0.25500000000E-02 0.  1.
         -2   -1    0    0    0  501 -0.00000000000E+00 -0.00000000000E+00 -0.10368396874E+03  0.10368396877E+03  0.25500000000E-02 0. -1.
    5000001    1    1    2    0    0  0.23488115466E+03 -0.42837390760E+02  0.65329704782E+03  0.72051733606E+03  0.18800000000E+03 0.  0.
   -5000001    1    1    2    0    0 -0.23488115466E+03  0.42837390760E+02  0.25939370241E+03  0.39954135169E+03  0.18800000000E+03 0.  0.
<mgrwt>
<rscale>  0 0.64925115E+03</rscale>
<asrwt>0</asrwt>
<pdfrwt beam="1">  1        2 0.14519640E+00 0.64925115E+03</pdfrwt>
<pdfrwt beam="2">  1       -2 0.14811995E-01 0.64925115E+03</pdfrwt>
<totfact> 0.98686679E+02</totfact>
</mgrwt>
</event>
<event>
 4    1  0.2153371E-005  0.6816985E+03  0.7818608E-02  0.9749052E-01
          2   -1    0    0  501    0  0.00000000000E+00  0.00000000000E+00  0.15461248636E+04  0.15461248636E+04  0.25500000000E-02 0.  1.
         -2   -1    0    0    0  501 -0.00000000000E+00 -0.00000000000E+00 -0.75141547702E+02  0.75141547745E+02  0.25500000000E-02 0. -1.
    5000001    1    1    2    0    0 -0.13711781192E+03  0.24464049839E+03  0.84663491755E+03  0.91147405416E+03  0.18800000000E+03 0.  0.
   -5000001    1    1    2    0    0  0.13711781192E+03 -0.24464049839E+03  0.62434839833E+03  0.70979235717E+03  0.18800000000E+03 0.  0.
<mgrwt>
<rscale>  0 0.68169851E+03</rscale>
<asrwt>0</asrwt>
<pdfrwt beam="1">  1        2 0.22087499E+00 0.68169851E+03</pdfrwt>
<pdfrwt beam="2">  1       -2 0.10734507E-01 0.68169851E+03</pdfrwt>
<totfact> 0.85594089E+02</totfact>
</mgrwt>
</event>
<event>
 4    1  0.2153371E-005  0.4897586E+03  0.7818608E-02  0.1016487E+00
          2   -1    0    0  501    0  0.00000000000E+00  0.00000000000E+00  0.21081857648E+04  0.21081857648E+04  0.25500000000E-02 0.  1.
         -2   -1    0    0    0  501 -0.00000000000E+00 -0.00000000000E+00 -0.28444299986E+02  0.28444300101E+02  0.25500000000E-02 0. -1.
    5000001    1    1    2    0    0  0.68358980930E+02  0.10802267064E+03  0.64289588584E+03  0.68190979438E+03  0.18800000000E+03 0.  0.
   -5000001    1    1    2    0    0 -0.68358980930E+02 -0.10802267064E+03  0.14368455790E+04  0.14547202706E+04  0.18800000000E+03 0.  0.
<mgrwt>
<rscale>  0 0.48975859E+03</rscale>
<asrwt>0</asrwt>
<pdfrwt beam="1">  1        2 0.30116949E+00 0.48975859E+03</pdfrwt>
<pdfrwt beam="2">  1       -2 0.40634702E-02 0.48975859E+03</pdfrwt>
<totfact> 0.20754234E+03</totfact>
</mgrwt>
</event>
<event>
 4    1  0.2153371E-005  0.4695460E+03  0.7818608E-02  0.1022048E+00
         -2   -1    0    0    0  501 -0.00000000000E+00  0.00000000000E+00  0.50586437040E+02  0.50586437105E+02  0.25500000000E-02 0. -1.
          2   -1    0    0  501    0  0.00000000000E+00 -0.00000000000E+00 -0.10895877959E+04  0.10895877959E+04  0.25500000000E-02 0.  1.
    5000001    1    1    2    0    0  0.41692508360E+02  0.95311124573E+02 -0.28975338615E+03  0.36072635128E+03  0.18800000000E+03 0.  0.
   -5000001    1    1    2    0    0 -0.41692508360E+02 -0.95311124573E+02 -0.74924797266E+03  0.77944788168E+03  0.18800000000E+03 0.  0.
<mgrwt>
<rscale>  0 0.46954601E+03</rscale>
<asrwt>0</asrwt>
<pdfrwt beam="1">  1        2 0.15565539E+00 0.46954601E+03</pdfrwt>
<pdfrwt beam="2">  1       -2 0.72266345E-02 0.46954601E+03</pdfrwt>
<totfact> 0.28731831E+03</totfact>
</mgrwt>
</event>
<event>
 4    1  0.2153371E-005  0.6527696E+03  0.7818608E-02  0.9801596E-01
          2   -1    0    0  501    0  0.00000000000E+00  0.00000000000E+00  0.14773645276E+04  0.14773645276E+04  0.25500000000E-02 0.  1.
         -2   -1    0    0    0  501 -0.00000000000E+00 -0.00000000000E+00 -0.72106126598E+02  0.72106126644E+02  0.25500000000E-02 0. -1.
    5000001    1    1    2    0    0  0.24060321846E+03  0.10624984777E+03  0.80889232331E+03  0.87110833402E+03  0.18800000000E+03 0.  0.
   -5000001    1    1    2    0    0 -0.24060321846E+03 -0.10624984777E+03  0.59636607770E+03  0.67836232024E+03  0.18800000000E+03 0.  0.
<mgrwt>
<rscale>  0 0.65276959E+03</rscale>
<asrwt>0</asrwt>
<pdfrwt beam="1">  1        2 0.21105209E+00 0.65276959E+03</pdfrwt>
<pdfrwt beam="2">  1       -2 0.10300875E-01 0.65276959E+03</pdfrwt>
<totfact> 0.99564895E+02</totfact>
</mgrwt>
</event>
<event>
 4    1  0.2153371E-005  0.1310582E+04  0.7818608E-02  0.9021215E-01
          2   -1    0    0  501    0  0.00000000000E+00  0.00000000000E+00  0.12485172677E+04  0.12485172677E+04  0.25500000000E-02 0.  1.
         -2   -1    0    0    0  501 -0.00000000000E+00 -0.00000000000E+00 -0.34393296271E+03  0.34393296272E+03  0.25500000000E-02 0. -1.
    5000001    1    1    2    0    0 -0.55850092991E+03  0.20082901949E+03  0.20385048993E+03  0.65509892842E+03  0.18800000000E+03 0.  0.
   -5000001    1    1    2    0    0  0.55850092991E+03 -0.20082901949E+03  0.70073381507E+03  0.93735130200E+03  0.18800000000E+03 0.  0.
<mgrwt>
<rscale>  0 0.13105819E+04</rscale>
<asrwt>0</asrwt>
<pdfrwt beam="1">  1        2 0.17835961E+00 0.13105819E+04</pdfrwt>
<pdfrwt beam="2">  1       -2 0.49133280E-01 0.13105819E+04</pdfrwt>
<totfact> 0.77078574E+01</totfact>
</mgrwt>
</event>
<event>
 4    1  0.2153371E-005  0.6238964E+03  0.7818608E-02  0.9857032E-01
          2   -1    0    0  501    0  0.00000000000E+00  0.00000000000E+00  0.24000183072E+03  0.24000183074E+03  0.25500000000E-02 0.  1.
         -2   -1    0    0    0  501 -0.00000000000E+00 -0.00000000000E+00 -0.40546225065E+03  0.40546225065E+03  0.25500000000E-02 0. -1.
    5000001    1    1    2    0    0  0.56035974043E+02 -0.20643525741E+03 -0.21445870197E+03  0.35649976260E+03  0.18800000000E+03 0.  0.
   -5000001    1    1    2    0    0 -0.56035974043E+02  0.20643525741E+03  0.48998282043E+02  0.28896431879E+03  0.18800000000E+03 0.  0.
<mgrwt>
<rscale>  0 0.62389641E+03</rscale>
<asrwt>0</asrwt>
<pdfrwt beam="1">  1        2 0.34285976E-01 0.62389641E+03</pdfrwt>
<pdfrwt beam="2">  1       -2 0.57923178E-01 0.62389641E+03</pdfrwt>
<totfact> 0.43077879E+02</totfact>
</mgrwt>
</event>
<event>
 4    1  0.2153371E-005  0.4540069E+03  0.7818608E-02  0.1026534E+00
         -2   -1    0    0    0  501 -0.00000000000E+00  0.00000000000E+00  0.15827804213E+03  0.15827804215E+03  0.25500000000E-02 0. -1.
          2   -1    0    0  501    0  0.00000000000E+00 -0.00000000000E+00 -0.32556990662E+03  0.32556990663E+03  0.25500000000E-02 0.  1.
    5000001    1    1    2    0    0 -0.74311531265E+02 -0.99570089040E+02 -0.54456629939E+02  0.23183168648E+03  0.18800000000E+03 0.  0.
   -5000001    1    1    2    0    0  0.74311531265E+02  0.99570089040E+02 -0.11283523455E+03  0.25201626231E+03  0.18800000000E+03 0.  0.
<mgrwt>
<rscale>  0 0.45400690E+03</rscale>
<asrwt>0</asrwt>
<pdfrwt beam="1">  1        2 0.46509987E-01 0.45400690E+03</pdfrwt>
<pdfrwt beam="2">  1       -2 0.22611149E-01 0.45400690E+03</pdfrwt>
<totfact> 0.18557334E+03</totfact>
</mgrwt>
</event>
<event>
 4    1  0.2153371E-005  0.6818810E+03  0.7818608E-02  0.9748730E-01
         -2   -1    0    0    0  501 -0.00000000000E+00  0.00000000000E+00  0.37352771305E+03  0.37352771306E+03  0.25500000000E-02 0. -1.
          2   -1    0    0  501    0  0.00000000000E+00 -0.00000000000E+00 -0.31119623603E+03  0.31119623604E+03  0.25500000000E-02 0.  1.
    5000001    1    1    2    0    0  0.27099256693E+03  0.34158871288E+02  0.11082249950E+03  0.34961325234E+03  0.18800000000E+03 0.  0.
   -5000001    1    1    2    0    0 -0.27099256693E+03 -0.34158871288E+02 -0.48491022479E+02  0.33511069675E+03  0.18800000000E+03 0.  0.
<mgrwt>
<rscale>  0 0.68188098E+03</rscale>
<asrwt>0</asrwt>
<pdfrwt beam="1">  1        2 0.44456605E-01 0.68188098E+03</pdfrwt>
<pdfrwt beam="2">  1       -2 0.53361102E-01 0.68188098E+03</pdfrwt>
<totfact> 0.38223092E+02</totfact>
</mgrwt>
</event>
<event>
 4    1  0.2153371E-005  0.6571614E+03  0.7818608E-02  0.9793433E-01
         -2   -1    0    0    0  501 -0.00000000000E+00  0.00000000000E+00  0.23083804291E+03  0.23083804292E+03  0.25500000000E-02 0. -1.
          2   -1    0    0  501    0  0.00000000000E+00 -0.00000000000E+00 -0.46771002213E+03  0.46771002214E+03  0.25500000000E-02 0.  1.
    5000001    1    1    2    0    0  0.94723841682E+02  0.22204041289E+03 -0.24575712547E+03  0.39244759632E+03  0.18800000000E+03 0.  0.
   -5000001    1    1    2    0    0 -0.94723841682E+02 -0.22204041289E+03  0.88851462562E+01  0.30610046874E+03  0.18800000000E+03 0.  0.
<mgrwt>
<rscale>  0 0.65716137E+03</rscale>
<asrwt>0</asrwt>
<pdfrwt beam="1">  1        2 0.66815717E-01 0.65716137E+03</pdfrwt>
<pdfrwt beam="2">  1       -2 0.32976864E-01 0.65716137E+03</pdfrwt>
<totfact> 0.62501378E+02</totfact>
</mgrwt>
</event>
<event>
 4    1  0.2153371E-005  0.4464173E+03  0.7818608E-02  0.1028796E+00
          2   -1    0    0  501    0  0.00000000000E+00  0.00000000000E+00  0.35250682924E+03  0.35250682925E+03  0.25500000000E-02 0.  1.
         -2   -1    0    0    0  501 -0.00000000000E+00 -0.00000000000E+00 -0.14133656256E+03  0.14133656258E+03  0.25500000000E-02 0. -1.
    5000001    1    1    2    0    0  0.11638836748E+03  0.20801151307E+02  0.80869618951E+02  0.23635320021E+03  0.18800000000E+03 0.  0.
   -5000001    1    1    2    0    0 -0.11638836748E+03 -0.20801151307E+02  0.13030064773E+03  0.25749019162E+03  0.18800000000E+03 0.  0.
<mgrwt>
<rscale>  0 0.44641731E+03</rscale>
<asrwt>0</asrwt>
<pdfrwt beam="1">  1        2 0.50358119E-01 0.44641731E+03</pdfrwt>
<pdfrwt beam="2">  1       -2 0.20190937E-01 0.44641731E+03</pdfrwt>
<totfact> 0.20724836E+03</totfact>
</mgrwt>
</event>
<event>
 4    1  0.2153371E-005  0.9931464E+03  0.7818608E-02  0.9316094E-01
         -2   -1    0    0    0  501 -0.00000000000E+00  0.00000000000E+00  0.18000831592E+04  0.18000831592E+04  0.25500000000E-02 0. -1.
          2   -1    0    0  501    0  0.00000000000E+00 -0.00000000000E+00 -0.13698531372E+03  0.13698531374E+03  0.25500000000E-02 0.  1.
    5000001    1    1    2    0    0 -0.30666838627E+03 -0.33484715152E+03  0.97046655380E+03  0.10878039557E+04  0.18800000000E+03 0.  0.
   -5000001    1    1    2    0    0  0.30666838627E+03  0.33484715152E+03  0.69263129168E+03  0.84926451724E+03  0.18800000000E+03 0.  0.
<mgrwt>
<rscale>  0 0.99314643E+03</rscale>
<asrwt>0</asrwt>
<pdfrwt beam="1">  1        2 0.19569330E-01 0.99314643E+03</pdfrwt>
<pdfrwt beam="2">  1       -2 0.25715474E+00 0.99314643E+03</pdfrwt>
<totfact> 0.17089916E+01</totfact>
</mgrwt>
</event>
<event>
 4    1  0.2153371E-005  0.5296053E+03  0.7818608E-02  0.1006328E+00
          2   -1    0    0  501    0  0.00000000000E+00  0.00000000000E+00  0.14138235192E+03  0.14138235194E+03  0.25500000000E-02 0.  1.
         -2   -1    0    0    0  501 -0.00000000000E+00 -0.00000000000E+00 -0.49596320393E+03  0.49596320393E+03  0.25500000000E-02 0. -1.
    5000001    1    1    2    0    0 -0.16568570386E+03 -0.82397229970E+02 -0.14944479491E+03  0.30318113842E+03  0.18800000000E+03 0.  0.
   -5000001    1    1    2    0    0  0.16568570386E+03  0.82397229970E+02 -0.20513605710E+03  0.33416441745E+03  0.18800000000E+03 0.  0.
<mgrwt>
<rscale>  0 0.52960530E+03</rscale>
<asrwt>0</asrwt>
<pdfrwt beam="1">  1        2 0.20197479E-01 0.52960530E+03</pdfrwt>
<pdfrwt beam="2">  1       -2 0.70851886E-01 0.52960530E+03</pdfrwt>
<totfact> 0.51276754E+02</totfact>
</mgrwt>
</event>
<event>
 4    1  0.2153371E-005  0.9143051E+03  0.7818608E-02  0.9407874E-01
          2   -1    0    0  501    0  0.00000000000E+00  0.00000000000E+00  0.21570294707E+04  0.21570294707E+04  0.25500000000E-02 0.  1.
         -2   -1    0    0    0  501 -0.00000000000E+00 -0.00000000000E+00 -0.96887148767E+02  0.96887148800E+02  0.25500000000E-02 0. -1.
    5000001    1    1    2    0    0 -0.19461888686E+03  0.35385222075E+03  0.77678741743E+03  0.89544994117E+03  0.18800000000E+03 0.  0.
   -5000001    1    1    2    0    0  0.19461888686E+03 -0.35385222075E+03  0.12833549045E+04  0.13584666783E+04  0.18800000000E+03 0.  0.
<mgrwt>
<rscale>  0 0.91430506E+03</rscale>
<asrwt>0</asrwt>
<pdfrwt beam="1">  1        2 0.30814705E+00 0.91430506E+03</pdfrwt>
<pdfrwt beam="2">  1       -2 0.13841022E-01 0.91430506E+03</pdfrwt>
<totfact> 0.27006364E+02</totfact>
</mgrwt>
</event>
<event>
 4    1  0.2153371E-005  0.5009683E+03  0.7818608E-02  0.1013526E+00
          2   -1    0    0  501    0  0.00000000000E+00  0.00000000000E+00  0.25448067949E+04  0.25448067949E+04  0.25500000000E-02 0.  1.
         -2   -1    0    0    0  501 -0.00000000000E+00 -0.00000000000E+00 -0.24655041214E+02  0.24655041346E+02  0.25500000000E-02 0. -1.
    5000001    1    1    2    0    0  0.12925655187E+03 -0.64997124818E+02  0.16725192505E+04  0.16892591648E+04  0.18800000000E+03 0.  0.
   -5000001    1    1    2    0    0 -0.12925655187E+03  0.64997124818E+02  0.84763250320E+03  0.88020267150E+03  0.18800000000E+03 0.  0.
<mgrwt>
<rscale>  0 0.50096833E+03</rscale>
<asrwt>0</asrwt>
<pdfrwt beam="1">  1        2 0.36354403E+00 0.50096833E+03</pdfrwt>
<pdfrwt beam="2">  1       -2 0.35221468E-02 0.50096833E+03</pdfrwt>
<totfact> 0.15539320E+03</totfact>
</mgrwt>
</event>
<event>
 4    1  0.2153371E-005  0.4224475E+03  0.7818608E-02  0.1036273E+00
          2   -1    0    0  501    0  0.00000000000E+00  0.00000000000E+00  0.22289694303E+03  0.22289694304E+03  0.25500000000E-02 0.  1.
         -2   -1    0    0    0  501 -0.00000000000E+00 -0.00000000000E+00 -0.20016186266E+03  0.20016186267E+03  0.25500000000E-02 0. -1.
    5000001    1    1    2    0    0 -0.88890221750E+02 -0.23211116754E+02  0.40240492618E+02  0.21308102851E+03  0.18800000000E+03 0.  0.
   -5000001    1    1    2    0    0  0.88890221750E+02  0.23211116754E+02 -0.17505412249E+02  0.20997777721E+03  0.18800000000E+03 0.  0.
<mgrwt>
<rscale>  0 0.42244748E+03</rscale>
<asrwt>0</asrwt>
<pdfrwt beam="1">  1        2 0.31842420E-01 0.42244748E+03</pdfrwt>
<pdfrwt beam="2">  1       -2 0.28594552E-01 0.42244748E+03</pdfrwt>
<totfact> 0.18474871E+03</totfact>
</mgrwt>
</event>
<event>
 4    1  0.2153371E-005  0.9407086E+03  0.7818608E-02  0.9376077E-01
         -2   -1    0    0    0  501 -0.00000000000E+00  0.00000000000E+00  0.12177020828E+03  0.12177020831E+03  0.25500000000E-02 0. -1.
          2   -1    0    0  501    0  0.00000000000E+00 -0.00000000000E+00 -0.18168086718E+04  0.18168086718E+04  0.25500000000E-02 0.  1.
    5000001    1    1    2    0    0 -0.23983840223E+03  0.23124903701E+03 -0.14114710455E+04  0.14623929323E+04  0.18800000000E+03 0.  0.
   -5000001    1    1    2    0    0  0.23983840223E+03 -0.23124903701E+03 -0.28356741809E+03  0.47618594783E+03  0.18800000000E+03 0.  0.
<mgrwt>
<rscale>  0 0.94070861E+03</rscale>
<asrwt>0</asrwt>
<pdfrwt beam="1">  1        2 0.25954408E+00 0.94070861E+03</pdfrwt>
<pdfrwt beam="2">  1       -2 0.17395745E-01 0.94070861E+03</pdfrwt>
<totfact> 0.27233992E+02</totfact>
</mgrwt>
</event>
<event>
 4    1  0.2153371E-005  0.6183599E+03  0.7818608E-02  0.9868030E-01
         -2   -1    0    0    0  501 -0.00000000000E+00  0.00000000000E+00  0.58452154114E+02  0.58452154170E+02  0.25500000000E-02 0. -1.
          2   -1    0    0  501    0  0.00000000000E+00 -0.00000000000E+00 -0.16353931807E+04  0.16353931807E+04  0.25500000000E-02 0.  1.
    5000001    1    1    2    0    0  0.91239934581E+01 -0.23625457590E+03 -0.60782954881E+03  0.67874902011E+03  0.18800000000E+03 0.  0.
   -5000001    1    1    2    0    0 -0.91239934581E+01  0.23625457590E+03 -0.96911147777E+03  0.10150963148E+04  0.18800000000E+03 0.  0.
<mgrwt>
<rscale>  0 0.61835994E+03</rscale>
<asrwt>0</asrwt>
<pdfrwt beam="1">  1        2 0.23362757E+00 0.61835994E+03</pdfrwt>
<pdfrwt beam="2">  1       -2 0.83503087E-02 0.61835994E+03</pdfrwt>
<totfact> 0.11586239E+03</totfact>
</mgrwt>
</event>
<event>
 4    1  0.2153371E-005  0.7795695E+03  0.7818608E-02  0.9590070E-01
          2   -1    0    0  501    0  0.00000000000E+00  0.00000000000E+00  0.16320841219E+03  0.16320841221E+03  0.25500000000E-02 0.  1.
         -2   -1    0    0    0  501 -0.00000000000E+00 -0.00000000000E+00 -0.93090871116E+03  0.93090871116E+03  0.25500000000E-02 0. -1.
    5000001    1    1    2    0    0  0.17781841824E+03  0.12712515049E+03 -0.15697206275E+02  0.28873966828E+03  0.18800000000E+03 0.  0.
   -5000001    1    1    2    0    0 -0.17781841824E+03 -0.12712515049E+03 -0.75200309269E+03  0.80537745509E+03  0.18800000000E+03 0.  0.
<mgrwt>
<rscale>  0 0.77956945E+03</rscale>
<asrwt>0</asrwt>
<pdfrwt beam="1">  1        2 0.23315488E-01 0.77956945E+03</pdfrwt>
<pdfrwt beam="2">  1       -2 0.13298696E+00 0.77956945E+03</pdfrwt>
<totfact> 0.98226240E+01</totfact>
</mgrwt>
</event>
<event>
 4    1  0.2153371E-005  0.5533718E+03  0.7818608E-02  0.1000716E+00
         -2   -1    0    0    0  501 -0.00000000000E+00  0.00000000000E+00  0.51978245787E+02  0.51978245850E+02  0.25500000000E-02 0. -1.
          2   -1    0    0  501    0  0.00000000000E+00 -0.00000000000E+00 -0.14728294427E+04  0.14728294427E+04  0.25500000000E-02 0.  1.
    5000001    1    1    2    0    0 -0.26237872546E+02  0.14755702381E+03 -0.33311941520E+03  0.41082118496E+03  0.18800000000E+03 0.  0.
   -5000001    1    1    2    0    0  0.26237872546E+02 -0.14755702381E+03 -0.10877317817E+04  0.11139865036E+04  0.18800000000E+03 0.  0.
<mgrwt>
<rscale>  0 0.55337181E+03</rscale>
<asrwt>0</asrwt>
<pdfrwt beam="1">  1        2 0.21040418E+00 0.55337181E+03</pdfrwt>
<pdfrwt beam="2">  1       -2 0.74254646E-02 0.55337181E+03</pdfrwt>
<totfact> 0.16986226E+03</totfact>
</mgrwt>
</event>
<event>
 4    1  0.2153371E-005  0.4436211E+03  0.7818608E-02  0.1029642E+00
         -2   -1    0    0    0  501 -0.00000000000E+00  0.00000000000E+00  0.25522394040E+02  0.25522394168E+02  0.25500000000E-02 0. -1.
          2   -1    0    0  501    0  0.00000000000E+00 -0.00000000000E+00 -0.19277158091E+04  0.19277158091E+04  0.25500000000E-02 0.  1.
    5000001    1    1    2    0    0  0.11551441919E+03  0.20396093884E+02 -0.99431308825E+03  0.10187060907E+04  0.18800000000E+03 0.  0.
   -5000001    1    1    2    0    0 -0.11551441919E+03 -0.20396093884E+02 -0.90788032683E+03  0.93453211263E+03  0.18800000000E+03 0.  0.
<mgrwt>
<rscale>  0 0.44362111E+03</rscale>
<asrwt>0</asrwt>
<pdfrwt beam="1">  1        2 0.27538788E+00 0.44362111E+03</pdfrwt>
<pdfrwt beam="2">  1       -2 0.36460575E-02 0.44362111E+03</pdfrwt>
<totfact> 0.30160173E+03</totfact>
</mgrwt>
</event>
<event>
 4    1  0.2153371E-005  0.4999615E+03  0.7818608E-02  0.1013789E+00
         -2   -1    0    0    0  501 -0.00000000000E+00  0.00000000000E+00  0.85846636697E+02  0.85846636735E+02  0.25500000000E-02 0. -1.
          2   -1    0    0  501    0  0.00000000000E+00 -0.00000000000E+00 -0.72793040977E+03  0.72793040977E+03  0.25500000000E-02 0.  1.
    5000001    1    1    2    0    0  0.36126275141E+01  0.16325292288E+03 -0.28531406275E+03  0.37869866953E+03  0.18800000000E+03 0.  0.
   -5000001    1    1    2    0    0 -0.36126275141E+01 -0.16325292288E+03 -0.35676971032E+03  0.43507837697E+03  0.18800000000E+03 0.  0.
<mgrwt>
<rscale>  0 0.49996151E+03</rscale>
<asrwt>0</asrwt>
<pdfrwt beam="1">  1        2 0.10399005E+00 0.49996151E+03</pdfrwt>
<pdfrwt beam="2">  1       -2 0.12263806E-01 0.49996151E+03</pdfrwt>
<totfact> 0.20995024E+03</totfact>
</mgrwt>
</event>
<event>
 4    1  0.2153371E-005  0.1026541E+04  0.7818608E-02  0.9279905E-01
          2   -1    0    0  501    0  0.00000000000E+00  0.00000000000E+00  0.11240574714E+04  0.11240574714E+04  0.25500000000E-02 0.  1.
         -2   -1    0    0    0  501 -0.00000000000E+00 -0.00000000000E+00 -0.23437115401E+03  0.23437115402E+03  0.25500000000E-02 0. -1.
    5000001    1    1    2    0    0 -0.22382261229E+03 -0.26666679173E+03  0.12190876751E+02  0.39585395926E+03  0.18800000000E+03 0.  0.
   -5000001    1    1    2    0    0  0.22382261229E+03  0.26666679173E+03  0.87749544067E+03  0.96257466618E+03  0.18800000000E+03 0.  0.
<mgrwt>
<rscale>  0 0.10265411E+04</rscale>
<asrwt>0</asrwt>
<pdfrwt beam="1">  1        2 0.16057963E+00 0.10265411E+04</pdfrwt>
<pdfrwt beam="2">  1       -2 0.33481594E-01 0.10265411E+04</pdfrwt>
<totfact> 0.19611162E+02</totfact>
</mgrwt>
</event>
<event>
 4    1  0.2153371E-005  0.6162876E+03  0.7818608E-02  0.9872179E-01
          2   -1    0    0  501    0  0.00000000000E+00  0.00000000000E+00  0.12571253179E+04  0.12571253179E+04  0.25500000000E-02 0.  1.
         -2   -1    0    0    0  501 -0.00000000000E+00 -0.00000000000E+00 -0.75531532617E+02  0.75531532660E+02  0.25500000000E-02 0. -1.
    5000001    1    1    2    0    0 -0.21864915167E+03  0.82576890370E+02  0.43816481472E+03  0.53099792768E+03  0.18800000000E+03 0.  0.
   -5000001    1    1    2    0    0  0.21864915167E+03 -0.82576890370E+02  0.74342897052E+03  0.80165892284E+03  0.18800000000E+03 0.  0.
<mgrwt>
<rscale>  0 0.61628760E+03</rscale>
<asrwt>0</asrwt>
<pdfrwt beam="1">  1        2 0.17958933E+00 0.61628760E+03</pdfrwt>
<pdfrwt beam="2">  1       -2 0.10790219E-01 0.61628760E+03</pdfrwt>
<totfact> 0.12134102E+03</totfact>
</mgrwt>
</event>
<event>
 4    1  0.2153371E-005  0.6581461E+03  0.7818608E-02  0.9791613E-01
          2   -1    0    0  501    0  0.00000000000E+00  0.00000000000E+00  0.23616450719E+04  0.23616450719E+04  0.25500000000E-02 0.  1.
         -2   -1    0    0    0  501 -0.00000000000E+00 -0.00000000000E+00 -0.45853236737E+02  0.45853236808E+02  0.25500000000E-02 0. -1.
    5000001    1    1    2    0    0 -0.22192045301E+03  0.80079163206E+02  0.67698772309E+03  0.74115972439E+03  0.18800000000E+03 0.  0.
   -5000001    1    1    2    0    0  0.22192045301E+03 -0.80079163206E+02  0.16388041121E+04  0.16663385843E+04  0.18800000000E+03 0.  0.
<mgrwt>
<rscale>  0 0.65814610E+03</rscale>
<asrwt>0</asrwt>
<pdfrwt beam="1">  1        2 0.33737803E+00 0.65814610E+03</pdfrwt>
<pdfrwt beam="2">  1       -2 0.65504593E-02 0.65814610E+03</pdfrwt>
<totfact> 0.72958693E+02</totfact>
</mgrwt>
</event>
<event>
 4    1  0.2153371E-005  0.9234858E+03  0.7818608E-02  0.9396690E-01
         -2   -1    0    0    0  501 -0.00000000000E+00  0.00000000000E+00  0.35659549497E+03  0.35659549498E+03  0.25500000000E-02 0. -1.
          2   -1    0    0  501    0  0.00000000000E+00 -0.00000000000E+00 -0.59789452076E+03  0.59789452077E+03  0.25500000000E-02 0.  1.
    5000001    1    1    2    0    0  0.32967352121E+03  0.23451846238E+03  0.24236210678E+01  0.44613161031E+03  0.18800000000E+03 0.  0.
   -5000001    1    1    2    0    0 -0.32967352121E+03 -0.23451846238E+03 -0.24372264686E+03  0.50835840543E+03  0.18800000000E+03 0.  0.
<mgrwt>
<rscale>  0 0.92348577E+03</rscale>
<asrwt>0</asrwt>
<pdfrwt beam="1">  1        2 0.85413503E-01 0.92348577E+03</pdfrwt>
<pdfrwt beam="2">  1       -2 0.50942213E-01 0.92348577E+03</pdfrwt>
<totfact> 0.19883852E+02</totfact>
</mgrwt>
</event>
<event>
 4    1  0.2153371E-005  0.4722567E+03  0.7818608E-02  0.1021285E+00
         -2   -1    0    0    0  501 -0.00000000000E+00  0.00000000000E+00  0.22545999249E+02  0.22545999393E+02  0.25500000000E-02 0. -1.
          2   -1    0    0  501    0  0.00000000000E+00 -0.00000000000E+00 -0.24730155214E+04  0.24730155214E+04  0.25500000000E-02 0.  1.
    5000001    1    1    2    0    0 -0.12012836525E+03 -0.20129612724E+01 -0.81667247875E+03  0.84660074043E+03  0.18800000000E+03 0.  0.
   -5000001    1    1    2    0    0  0.12012836525E+03  0.20129612724E+01 -0.16337970434E+04  0.16489607804E+04  0.18800000000E+03 0.  0.
<mgrwt>
<rscale>  0 0.47225674E+03</rscale>
<asrwt>0</asrwt>
<pdfrwt beam="1">  1        2 0.35328776E+00 0.47225674E+03</pdfrwt>
<pdfrwt beam="2">  1       -2 0.32208586E-02 0.47225674E+03</pdfrwt>
<totfact> 0.19401713E+03</totfact>
</mgrwt>
</event>
<event>
 4    1  0.2153371E-005  0.6327902E+03  0.7818608E-02  0.9839619E-01
         -2   -1    0    0    0  501 -0.00000000000E+00  0.00000000000E+00  0.75056154777E+02  0.75056154820E+02  0.25500000000E-02 0. -1.
          2   -1    0    0  501    0  0.00000000000E+00 -0.00000000000E+00 -0.13337463423E+04  0.13337463423E+04  0.25500000000E-02 0.  1.
    5000001    1    1    2    0    0 -0.91751401808E+02 -0.18870444369E+03 -0.30876701142E+03  0.41798176293E+03  0.18800000000E+03 0.  0.
   -5000001    1    1    2    0    0  0.91751401808E+02  0.18870444369E+03 -0.94992317615E+03  0.99082073424E+03  0.18800000000E+03 0.  0.
<mgrwt>
<rscale>  0 0.63279024E+03</rscale>
<asrwt>0</asrwt>
<pdfrwt beam="1">  1        2 0.19053518E+00 0.63279024E+03</pdfrwt>
<pdfrwt beam="2">  1       -2 0.10722309E-01 0.63279024E+03</pdfrwt>
<totfact> 0.11129056E+03</totfact>
</mgrwt>
</event>
<event>
 4    1  0.2153371E-005  0.5813665E+03  0.7818608E-02  0.9944837E-01
          2   -1    0    0  501    0  0.00000000000E+00  0.00000000000E+00  0.87302072541E+03  0.87302072541E+03  0.25500000000E-02 0.  1.
         -2   -1    0    0    0  501 -0.00000000000E+00 -0.00000000000E+00 -0.96786640310E+02  0.96786640344E+02  0.25500000000E-02 0. -1.
    5000001    1    1    2    0    0 -0.17067176894E+03  0.13420856219E+03  0.31329245807E+03  0.42501406467E+03  0.18800000000E+03 0.  0.
   -5000001    1    1    2    0    0  0.17067176894E+03 -0.13420856219E+03  0.46294162702E+03  0.54479330109E+03  0.18800000000E+03 0.  0.
<mgrwt>
<rscale>  0 0.58136647E+03</rscale>
<asrwt>0</asrwt>
<pdfrwt beam="1">  1        2 0.12471725E+00 0.58136647E+03</pdfrwt>
<pdfrwt beam="2">  1       -2 0.13826663E-01 0.58136647E+03</pdfrwt>
<totfact> 0.13653766E+03</totfact>
</mgrwt>
</event>
<event>
 4    1  0.2153371E-005  0.7139035E+03  0.7818608E-02  0.9693746E-01
         -2   -1    0    0    0  501 -0.00000000000E+00  0.00000000000E+00  0.17913992546E+03  0.17913992547E+03  0.25500000000E-02 0. -1.
          2   -1    0    0  501    0  0.00000000000E+00 -0.00000000000E+00 -0.71125720995E+03  0.71125720995E+03  0.25500000000E-02 0.  1.
    5000001    1    1    2    0    0 -0.22983961702E+03 -0.18534434761E+03 -0.35329107516E+03  0.49733023287E+03  0.18800000000E+03 0.  0.
   -5000001    1    1    2    0    0  0.22983961702E+03  0.18534434761E+03 -0.17882620933E+03  0.39306690256E+03  0.18800000000E+03 0.  0.
<mgrwt>
<rscale>  0 0.71390353E+03</rscale>
<asrwt>0</asrwt>
<pdfrwt beam="1">  1        2 0.10160817E+00 0.71390353E+03</pdfrwt>
<pdfrwt beam="2">  1       -2 0.25591418E-01 0.71390353E+03</pdfrwt>
<totfact> 0.60835824E+02</totfact>
</mgrwt>
</event>
<event>
 4    1  0.2153371E-005  0.7331665E+03  0.7818608E-02  0.9662136E-01
         -2   -1    0    0    0  501 -0.00000000000E+00  0.00000000000E+00  0.12220457270E+03  0.12220457273E+03  0.25500000000E-02 0. -1.
          2   -1    0    0  501    0  0.00000000000E+00 -0.00000000000E+00 -0.10996584878E+04  0.10996584878E+04  0.25500000000E-02 0.  1.
    5000001    1    1    2    0    0 -0.27904865409E+03  0.87999101814E+02 -0.68184118914E+03  0.76541714148E+03  0.18800000000E+03 0.  0.
   -5000001    1    1    2    0    0  0.27904865409E+03 -0.87999101814E+02 -0.29561272595E+03  0.45644591904E+03  0.18800000000E+03 0.  0.
<mgrwt>
<rscale>  0 0.73316654E+03</rscale>
<asrwt>0</asrwt>
<pdfrwt beam="1">  1        2 0.15709406E+00 0.73316654E+03</pdfrwt>
<pdfrwt beam="2">  1       -2 0.17457797E-01 0.73316654E+03</pdfrwt>
<totfact> 0.66383865E+02</totfact>
</mgrwt>
</event>
<event>
 4    1  0.2153371E-005  0.5279446E+03  0.7818608E-02  0.1006732E+00
          2   -1    0    0  501    0  0.00000000000E+00  0.00000000000E+00  0.19045920624E+04  0.19045920624E+04  0.25500000000E-02 0.  1.
         -2   -1    0    0    0  501 -0.00000000000E+00 -0.00000000000E+00 -0.36585981021E+02  0.36585981110E+02  0.25500000000E-02 0. -1.
    5000001    1    1    2    0    0 -0.18433061847E+03  0.18777154583E+02  0.92426755649E+03  0.96122051290E+03  0.18800000000E+03 0.  0.
   -5000001    1    1    2    0    0  0.18433061847E+03 -0.18777154583E+02  0.94373852485E+03  0.97995753057E+03  0.18800000000E+03 0.  0.
<mgrwt>
<rscale>  0 0.52794458E+03</rscale>
<asrwt>0</asrwt>
<pdfrwt beam="1">  1        2 0.27208466E+00 0.52794458E+03</pdfrwt>
<pdfrwt beam="2">  1       -2 0.52265672E-02 0.52794458E+03</pdfrwt>
<totfact> 0.17771805E+03</totfact>
</mgrwt>
</event>
<event>
 4    1  0.2153371E-005  0.5685097E+03  0.7818608E-02  0.9972982E-01
         -2   -1    0    0    0  501 -0.00000000000E+00  0.00000000000E+00  0.33250598770E+02  0.33250598868E+02  0.25500000000E-02 0. -1.
          2   -1    0    0  501    0  0.00000000000E+00 -0.00000000000E+00 -0.24300556911E+04  0.24300556911E+04  0.25500000000E-02 0.  1.
    5000001    1    1    2    0    0  0.21063096100E+03 -0.57700398893E+01 -0.13393464677E+04  0.13687920425E+04  0.18800000000E+03 0.  0.
   -5000001    1    1    2    0    0 -0.21063096100E+03  0.57700398893E+01 -0.10574586246E+04  0.10945142474E+04  0.18800000000E+03 0.  0.
<mgrwt>
<rscale>  0 0.56850965E+03</rscale>
<asrwt>0</asrwt>
<pdfrwt beam="1">  1        2 0.34715070E+00 0.56850965E+03</pdfrwt>
<pdfrwt beam="2">  1       -2 0.47500871E-02 0.56850965E+03</pdfrwt>
<totfact> 0.11189573E+03</totfact>
</mgrwt>
</event>
<event>
 4    1  0.2153371E-005  0.5133590E+03  0.7818608E-02  0.1010350E+00
         -2   -1    0    0    0  501 -0.00000000000E+00  0.00000000000E+00  0.57938670083E+03  0.57938670083E+03  0.25500000000E-02 0. -1.
          2   -1    0    0  501    0  0.00000000000E+00 -0.00000000000E+00 -0.11371399670E+03  0.11371399673E+03  0.25500000000E-02 0.  1.
    5000001    1    1    2    0    0  0.53909358983E+02  0.18677022578E+02  0.45585424101E+03  0.49638910061E+03  0.18800000000E+03 0.  0.
   -5000001    1    1    2    0    0 -0.53909358983E+02 -0.18677022578E+02  0.98184631121E+01  0.19671159695E+03  0.18800000000E+03 0.  0.
<mgrwt>
<rscale>  0 0.51335905E+03</rscale>
<asrwt>0</asrwt>
<pdfrwt beam="1">  1        2 0.16244856E-01 0.51335905E+03</pdfrwt>
<pdfrwt beam="2">  1       -2 0.82769530E-01 0.51335905E+03</pdfrwt>
<totfact> 0.47027975E+02</totfact>
</mgrwt>
</event>
<event>
 4    1  0.2153371E-005  0.5268217E+03  0.7818608E-02  0.1007006E+00
          2   -1    0    0  501    0  0.00000000000E+00  0.00000000000E+00  0.79568785236E+03  0.79568785236E+03  0.25500000000E-02 0.  1.
         -2   -1    0    0    0  501 -0.00000000000E+00 -0.00000000000E+00 -0.87201617012E+02  0.87201617049E+02  0.25500000000E-02 0. -1.
    5000001    1    1    2    0    0  0.17451353609E+03 -0.17249974768E+02  0.45035053689E+03  0.51856739387E+03  0.18800000000E+03 0.  0.
   -5000001    1    1    2    0    0 -0.17451353609E+03  0.17249974768E+02  0.25813569846E+03  0.36432207554E+03  0.18800000000E+03 0.  0.
<mgrwt>
<rscale>  0 0.52682167E+03</rscale>
<asrwt>0</asrwt>
<pdfrwt beam="1">  1        2 0.11366969E+00 0.52682167E+03</pdfrwt>
<pdfrwt beam="2">  1       -2 0.12457374E-01 0.52682167E+03</pdfrwt>
<totfact> 0.18308423E+03</totfact>
</mgrwt>
</event>
<event>
 4    1  0.2153371E-005  0.5662051E+03  0.7818608E-02  0.9978111E-01
          2   -1    0    0  501    0  0.00000000000E+00  0.00000000000E+00  0.13384040661E+04  0.13384040661E+04  0.25500000000E-02 0.  1.
         -2   -1    0    0    0  501 -0.00000000000E+00 -0.00000000000E+00 -0.59882561843E+02  0.59882561898E+02  0.25500000000E-02 0. -1.
    5000001    1    1    2    0    0 -0.19738999652E+03  0.11660970713E+02  0.45274194079E+03  0.52860008884E+03  0.18800000000E+03 0.  0.
   -5000001    1    1    2    0    0  0.19738999652E+03 -0.11660970713E+02  0.82577956343E+03  0.86968653913E+03  0.18800000000E+03 0.  0.
<mgrwt>
<rscale>  0 0.56620514E+03</rscale>
<asrwt>0</asrwt>
<pdfrwt beam="1">  1        2 0.19120058E+00 0.56620514E+03</pdfrwt>
<pdfrwt beam="2">  1       -2 0.85546516E-02 0.56620514E+03</pdfrwt>
<totfact> 0.15968974E+03</totfact>
</mgrwt>
</event>
<event>
 4    1  0.2153371E-005  0.1180553E+04  0.7818608E-02  0.9130051E-01
         -2   -1    0    0    0  501 -0.00000000000E+00  0.00000000000E+00  0.45830422593E+03  0.45830422594E+03  0.25500000000E-02 0.  1.
          2   -1    0    0  501    0  0.00000000000E+00 -0.00000000000E+00 -0.76025126822E+03  0.76025126822E+03  0.25500000000E-02 0. -1.
    5000001    1    1    2    0    0 -0.37466158518E+03  0.38241929497E+03 -0.31889585540E+03  0.65088738440E+03  0.18800000000E+03 0.  0.
   -5000001    1    1    2    0    0  0.37466158518E+03 -0.38241929497E+03  0.16948813118E+02  0.56766810976E+03  0.18800000000E+03 0.  0.
<mgrwt>
<rscale>  0 0.11805530E+04</rscale>
<asrwt>0</asrwt>
<pdfrwt beam="1">  1        2 0.10860732E+00 0.11805530E+04</pdfrwt>
<pdfrwt beam="2">  1       -2 0.65472033E-01 0.11805530E+04</pdfrwt>
<totfact> 0.86256106E+01</totfact>
</mgrwt>
</event>
<event>
 4    1  0.2153371E-005  0.8822449E+03  0.7818608E-02  0.9448052E-01
          2   -1    0    0  501    0  0.00000000000E+00  0.00000000000E+00  0.93974437447E+03  0.93974437447E+03  0.25500000000E-02 0.  1.
         -2   -1    0    0    0  501 -0.00000000000E+00 -0.00000000000E+00 -0.20706591976E+03  0.20706591977E+03  0.25500000000E-02 0. -1.
    5000001    1    1    2    0    0  0.26845909884E+03  0.13752702775E+03  0.26722613443E+02  0.35642961322E+03  0.18800000000E+03 0.  0.
   -5000001    1    1    2    0    0 -0.26845909884E+03 -0.13752702775E+03  0.70595584127E+03  0.79038068102E+03  0.18800000000E+03 0.  0.
<mgrwt>
<rscale>  0 0.88224494E+03</rscale>
<asrwt>0</asrwt>
<pdfrwt beam="1">  1        2 0.13424919E+00 0.88224494E+03</pdfrwt>
<pdfrwt beam="2">  1       -2 0.29580846E-01 0.88224494E+03</pdfrwt>
<totfact> 0.32265663E+02</totfact>
</mgrwt>
</event>
<event>
 4    1  0.2153371E-005  0.5252499E+03  0.7818608E-02  0.1007391E+00
          2   -1    0    0  501    0  0.00000000000E+00  0.00000000000E+00  0.97395312114E+03  0.97395312114E+03  0.25500000000E-02 0.  1.
         -2   -1    0    0    0  501 -0.00000000000E+00 -0.00000000000E+00 -0.70816401759E+02  0.70816401805E+02  0.25500000000E-02 0. -1.
    5000001    1    1    2    0    0  0.17938064210E+03 -0.29618658577E+02  0.40394736236E+03  0.48121944189E+03  0.18800000000E+03 0.  0.
   -5000001    1    1    2    0    0 -0.17938064210E+03  0.29618658577E+02  0.49918935702E+03  0.56355008106E+03  0.18800000000E+03 0.  0.
<mgrwt>
<rscale>  0 0.52524987E+03</rscale>
<asrwt>0</asrwt>
<pdfrwt beam="1">  1        2 0.13913615E+00 0.52524987E+03</pdfrwt>
<pdfrwt beam="2">  1       -2 0.10116630E-01 0.52524987E+03</pdfrwt>
<totfact> 0.19688160E+03</totfact>
</mgrwt>
</event>
<event>
 4    1  0.2153371E-005  0.4955130E+03  0.7818608E-02  0.1014957E+00
          2   -1    0    0  501    0  0.00000000000E+00  0.00000000000E+00  0.74423993583E+03  0.74423993584E+03  0.25500000000E-02 0.  1.
         -2   -1    0    0    0  501 -0.00000000000E+00 -0.00000000000E+00 -0.82477806448E+02  0.82477806487E+02  0.25500000000E-02 0. -1.
    5000001    1    1    2    0    0  0.12768450697E+03 -0.83157233993E+02  0.41949250558E+03  0.48428960460E+03  0.18800000000E+03 0.  0.
   -5000001    1    1    2    0    0 -0.12768450697E+03  0.83157233993E+02  0.24226962380E+03  0.34242813772E+03  0.18800000000E+03 0.  0.
<mgrwt>
<rscale>  0 0.49551298E+03</rscale>
<asrwt>0</asrwt>
<pdfrwt beam="1">  1        2 0.10631999E+00 0.49551298E+03</pdfrwt>
<pdfrwt beam="2">  1       -2 0.11782544E-01 0.49551298E+03</pdfrwt>
<totfact> 0.21814052E+03</totfact>
</mgrwt>
</event>
<event>
 4    1  0.2153371E-005  0.4628381E+03  0.7818608E-02  0.1023961E+00
          2   -1    0    0  501    0  0.00000000000E+00  0.00000000000E+00  0.21498524299E+04  0.21498524299E+04  0.25500000000E-02 0.  1.
         -2   -1    0    0    0  501 -0.00000000000E+00 -0.00000000000E+00 -0.24910909745E+02  0.24910909875E+02  0.25500000000E-02 0. -1.
    5000001    1    1    2    0    0  0.12763111745E+03  0.31253644606E+02  0.91808145746E+03  0.94630019284E+03  0.18800000000E+03 0.  0.
   -5000001    1    1    2    0    0 -0.12763111745E+03 -0.31253644606E+02  0.12068600627E+04  0.12284631469E+04  0.18800000000E+03 0.  0.
<mgrwt>
<rscale>  0 0.46283811E+03</rscale>
<asrwt>0</asrwt>
<pdfrwt beam="1">  1        2 0.30712173E+00 0.46283811E+03</pdfrwt>
<pdfrwt beam="2">  1       -2 0.35587020E-02 0.46283811E+03</pdfrwt>
<totfact> 0.24248121E+03</totfact>
</mgrwt>
</event>
<event>
 4    1  0.2153371E-005  0.6062980E+03  0.7818608E-02  0.9892425E-01
         -2   -1    0    0    0  501 -0.00000000000E+00  0.00000000000E+00  0.62131799012E+02  0.62131799065E+02  0.25500000000E-02 0. -1.
          2   -1    0    0  501    0  0.00000000000E+00 -0.00000000000E+00 -0.14791026640E+04  0.14791026640E+04  0.25500000000E-02 0.  1.
    5000001    1    1    2    0    0 -0.21802408396E+03  0.94077308780E+02 -0.67531512886E+03  0.74012131740E+03  0.18800000000E+03 0.  0.
   -5000001    1    1    2    0    0  0.21802408396E+03 -0.94077308780E+02 -0.74165573609E+03  0.80111314562E+03  0.18800000000E+03 0.  0.
<mgrwt>
<rscale>  0 0.60629798E+03</rscale>
<asrwt>0</asrwt>
<pdfrwt beam="1">  1        2 0.21130036E+00 0.60629798E+03</pdfrwt>
<pdfrwt beam="2">  1       -2 0.88759722E-02 0.60629798E+03</pdfrwt>
<totfact> 0.12662490E+03</totfact>
</mgrwt>
</event>
<event>
 4    1  0.2153371E-005  0.9710124E+03  0.7818608E-02  0.9340922E-01
          2   -1    0    0  501    0  0.00000000000E+00  0.00000000000E+00  0.39669199725E+03  0.39669199726E+03  0.25500000000E-02 0.  1.
         -2   -1    0    0    0  501 -0.00000000000E+00 -0.00000000000E+00 -0.59420469287E+03  0.59420469287E+03  0.25500000000E-02 0. -1.
    5000001    1    1    2    0    0  0.17694545005E+03  0.13659774092E+03 -0.49451713006E+03  0.57433424680E+03  0.18800000000E+03 0.  0.
   -5000001    1    1    2    0    0 -0.17694545005E+03 -0.13659774092E+03  0.29700443444E+03  0.41656244334E+03  0.18800000000E+03 0.  0.
<mgrwt>
<rscale>  0 0.97101235E+03</rscale>
<asrwt>0</asrwt>
<pdfrwt beam="1">  1        2 0.56670286E-01 0.97101235E+03</pdfrwt>
<pdfrwt beam="2">  1       -2 0.84886384E-01 0.97101235E+03</pdfrwt>
<totfact> 0.10557459E+02</totfact>
</mgrwt>
</event>
<event>
 4    1  0.2153371E-005  0.4285046E+03  0.7818608E-02  0.1034333E+00
          2   -1    0    0  501    0  0.00000000000E+00  0.00000000000E+00  0.50335508192E+03  0.50335508192E+03  0.25500000000E-02 0.  1.
         -2   -1    0    0    0  501 -0.00000000000E+00 -0.00000000000E+00 -0.91196149224E+02  0.91196149260E+02  0.25500000000E-02 0. -1.
    5000001    1    1    2    0    0 -0.45038380027E+02  0.41588955485E+02  0.32051225214E+03  0.37660350592E+03  0.18800000000E+03 0.  0.
   -5000001    1    1    2    0    0  0.45038380027E+02 -0.41588955485E+02  0.91646680550E+02  0.21794772527E+03  0.18800000000E+03 0.  0.
<mgrwt>
<rscale>  0 0.42850459E+03</rscale>
<asrwt>0</asrwt>
<pdfrwt beam="1">  1        2 0.71907869E-01 0.42850459E+03</pdfrwt>
<pdfrwt beam="2">  1       -2 0.13028021E-01 0.42850459E+03</pdfrwt>
<totfact> 0.29247071E+03</totfact>
</mgrwt>
</event>
<event>
 4    1  0.2153371E-005  0.7671524E+03  0.7818608E-02  0.9608819E-01
          2   -1    0    0  501    0  0.00000000000E+00  0.00000000000E+00  0.90479624648E+03  0.90479624648E+03  0.25500000000E-02 0.  1.
         -2   -1    0    0    0  501 -0.00000000000E+00 -0.00000000000E+00 -0.16261195017E+03  0.16261195019E+03  0.25500000000E-02 0. -1.
    5000001    1    1    2    0    0  0.33053649844E+03  0.20349333656E+02  0.30705478834E+03  0.48917799953E+03  0.18800000000E+03 0.  0.
   -5000001    1    1    2    0    0 -0.33053649844E+03 -0.20349333656E+02  0.43512950797E+03  0.57823019715E+03  0.18800000000E+03 0.  0.
<mgrwt>
<rscale>  0 0.76715235E+03</rscale>
<asrwt>0</asrwt>
<pdfrwt beam="1">  1        2 0.12925661E+00 0.76715235E+03</pdfrwt>
<pdfrwt beam="2">  1       -2 0.23230278E-01 0.76715235E+03</pdfrwt>
<totfact> 0.52976844E+02</totfact>
</mgrwt>
</event>
<event>
 4    1  0.2153371E-005  0.4532316E+03  0.7818608E-02  0.1026763E+00
          2   -1    0    0  501    0  0.00000000000E+00  0.00000000000E+00  0.29420041706E+04  0.29420041706E+04  0.25500000000E-02 0.  1.
         -2   -1    0    0    0  501 -0.00000000000E+00 -0.00000000000E+00 -0.17455691174E+02  0.17455691360E+02  0.25500000000E-02 0. -1.
    5000001    1    1    2    0    0 -0.11426049576E+03 -0.53934270110E+02  0.15067289475E+04  0.15236602271E+04  0.18800000000E+03 0.  0.
   -5000001    1    1    2    0    0  0.11426049576E+03  0.53934270110E+02  0.14178195319E+04  0.14357996348E+04  0.18800000000E+03 0.  0.
<mgrwt>
<rscale>  0 0.45323158E+03</rscale>
<asrwt>0</asrwt>
<pdfrwt beam="1">  1        2 0.42028654E+00 0.45323158E+03</pdfrwt>
<pdfrwt beam="2">  1       -2 0.24936688E-02 0.45323158E+03</pdfrwt>
<totfact> 0.16299599E+03</totfact>
</mgrwt>
</event>
<event>
 4    1  0.2153371E-005  0.5332672E+03  0.7818608E-02  0.1005443E+00
          2   -1    0    0  501    0  0.00000000000E+00  0.00000000000E+00  0.15037403056E+04  0.15037403056E+04  0.25500000000E-02 0.  1.
         -2   -1    0    0    0  501 -0.00000000000E+00 -0.00000000000E+00 -0.47277764427E+02  0.47277764495E+02  0.25500000000E-02 0. -1.
    5000001    1    1    2    0    0 -0.16011267856E+03  0.98120481509E+02  0.66412620450E+03  0.71531203976E+03  0.18800000000E+03 0.  0.
   -5000001    1    1    2    0    0  0.16011267856E+03 -0.98120481509E+02  0.79233633667E+03  0.83570603033E+03  0.18800000000E+03 0.  0.
<mgrwt>
<rscale>  0 0.53326721E+03</rscale>
<asrwt>0</asrwt>
<pdfrwt beam="1">  1        2 0.21482004E+00 0.53326721E+03</pdfrwt>
<pdfrwt beam="2">  1       -2 0.67539666E-02 0.53326721E+03</pdfrwt>
<totfact> 0.19019947E+03</totfact>
</mgrwt>
</event>
<event>
 4    1  0.2153371E-005  0.7239508E+03  0.7818608E-02  0.9677128E-01
          2   -1    0    0  501    0  0.00000000000E+00  0.00000000000E+00  0.20207623830E+04  0.20207623830E+04  0.25500000000E-02 0.  1.
         -2   -1    0    0    0  501 -0.00000000000E+00 -0.00000000000E+00 -0.64839979453E+02  0.64839979503E+02  0.25500000000E-02 0. -1.
    5000001    1    1    2    0    0 -0.32844928229E+02 -0.17958637552E+03  0.25859815756E+03  0.36816716675E+03  0.18800000000E+03 0.  0.
   -5000001    1    1    2    0    0  0.32844928229E+02  0.17958637552E+03  0.16973242460E+04  0.17174351957E+04  0.18800000000E+03 0.  0.
<mgrwt>
<rscale>  0 0.72395080E+03</rscale>
<asrwt>0</asrwt>
<pdfrwt beam="1">  1        2 0.28868033E+00 0.72395080E+03</pdfrwt>
<pdfrwt beam="2">  1       -2 0.92628544E-02 0.72395080E+03</pdfrwt>
<totfact> 0.62174993E+02</totfact>
</mgrwt>
</event>
<event>
 4    1  0.2153371E-005  0.4404327E+03  0.7818608E-02  0.1030614E+00
         -2   -1    0    0    0  501 -0.00000000000E+00  0.00000000000E+00  0.56521165639E+02  0.56521165697E+02  0.25500000000E-02 0. -1.
          2   -1    0    0  501    0  0.00000000000E+00 -0.00000000000E+00 -0.85800134076E+03  0.85800134076E+03  0.25500000000E-02 0.  1.
    5000001    1    1    2    0    0  0.10070553597E+03  0.39665332650E+02 -0.32204705423E+03  0.38829531123E+03  0.18800000000E+03 0.  0.
   -5000001    1    1    2    0    0 -0.10070553597E+03 -0.39665332650E+02 -0.47943312089E+03  0.52622719523E+03  0.18800000000E+03 0.  0.
<mgrwt>
<rscale>  0 0.44043268E+03</rscale>
<asrwt>0</asrwt>
<pdfrwt beam="1">  1        2 0.12257161E+00 0.44043268E+03</pdfrwt>
<pdfrwt beam="2">  1       -2 0.80744528E-02 0.44043268E+03</pdfrwt>
<totfact> 0.33437963E+03</totfact>
</mgrwt>
</event>
<event>
 4    1  0.2153371E-005  0.6977161E+03  0.7818608E-02  0.9721146E-01
         -2   -1    0    0    0  501 -0.00000000000E+00  0.00000000000E+00  0.89979729514E+02  0.89979729550E+02  0.25500000000E-02 0. -1.
          2   -1    0    0  501    0  0.00000000000E+00 -0.00000000000E+00 -0.13525483237E+04  0.13525483237E+04  0.25500000000E-02 0.  1.
    5000001    1    1    2    0    0 -0.66247926332E+02 -0.27424861109E+03 -0.46133574114E+03  0.57251703423E+03  0.18800000000E+03 0.  0.
   -5000001    1    1    2    0    0  0.66247926332E+02  0.27424861109E+03 -0.80123285307E+03  0.87001101905E+03  0.18800000000E+03 0.  0.
<mgrwt>
<rscale>  0 0.69771608E+03</rscale>
<asrwt>0</asrwt>
<pdfrwt beam="1">  1        2 0.19322118E+00 0.69771608E+03</pdfrwt>
<pdfrwt beam="2">  1       -2 0.12854248E-01 0.69771608E+03</pdfrwt>
<totfact> 0.80457212E+02</totfact>
</mgrwt>
</event>
<event>
 4    1  0.2153371E-005  0.5812197E+03  0.7818608E-02  0.9945154E-01
         -2   -1    0    0    0  501 -0.00000000000E+00  0.00000000000E+00  0.43294129984E+02  0.43294130059E+02  0.25500000000E-02 0. -1.
          2   -1    0    0  501    0  0.00000000000E+00 -0.00000000000E+00 -0.19507052008E+04  0.19507052008E+04  0.25500000000E-02 0.  1.
    5000001    1    1    2    0    0  0.14862823858E+03 -0.16374800192E+03 -0.90442689963E+03  0.94986092572E+03  0.18800000000E+03 0.  0.
   -5000001    1    1    2    0    0 -0.14862823858E+03  0.16374800192E+03 -0.10029841711E+04  0.10441384051E+04  0.18800000000E+03 0.  0.
<mgrwt>
<rscale>  0 0.58121970E+03</rscale>
<asrwt>0</asrwt>
<pdfrwt beam="1">  1        2 0.27867212E+00 0.58121970E+03</pdfrwt>
<pdfrwt beam="2">  1       -2 0.61848770E-02 0.58121970E+03</pdfrwt>
<totfact> 0.12929524E+03</totfact>
</mgrwt>
</event>
<event>
 4    1  0.2153371E-005  0.4944421E+03  0.7818608E-02  0.1015240E+00
          2   -1    0    0  501    0  0.00000000000E+00  0.00000000000E+00  0.43937939172E+03  0.43937939172E+03  0.25500000000E-02 0.  1.
         -2   -1    0    0    0  501 -0.00000000000E+00 -0.00000000000E+00 -0.13910130870E+03  0.13910130872E+03  0.25500000000E-02 0. -1.
    5000001    1    1    2    0    0 -0.66332464146E+02  0.13171963529E+03  0.22435762879E+03  0.32776577569E+03  0.18800000000E+03 0.  0.
   -5000001    1    1    2    0    0  0.66332464146E+02 -0.13171963529E+03  0.75920454230E+02  0.25071492475E+03  0.18800000000E+03 0.  0.
<mgrwt>
<rscale>  0 0.49444210E+03</rscale>
<asrwt>0</asrwt>
<pdfrwt beam="1">  1        2 0.62768486E-01 0.49444210E+03</pdfrwt>
<pdfrwt beam="2">  1       -2 0.19871615E-01 0.49444210E+03</pdfrwt>
<totfact> 0.16723342E+03</totfact>
</mgrwt>
</event>
<event>
 4    1  0.2153371E-005  0.6974753E+03  0.7818608E-02  0.9721560E-01
          2   -1    0    0  501    0  0.00000000000E+00  0.00000000000E+00  0.25578750120E+04  0.25578750120E+04  0.25500000000E-02 0.  1.
         -2   -1    0    0    0  501 -0.00000000000E+00 -0.00000000000E+00 -0.47546472722E+02  0.47546472790E+02  0.25500000000E-02 0. -1.
    5000001    1    1    2    0    0 -0.15541828301E+03 -0.24782538544E+03  0.11562142917E+04  0.12073722511E+04  0.18800000000E+03 0.  0.
   -5000001    1    1    2    0    0  0.15541828301E+03  0.24782538544E+03  0.13541142476E+04  0.13980492337E+04  0.18800000000E+03 0.  0.
<mgrwt>
<rscale>  0 0.69747526E+03</rscale>
<asrwt>0</asrwt>
<pdfrwt beam="1">  1        2 0.36541080E+00 0.69747526E+03</pdfrwt>
<pdfrwt beam="2">  1       -2 0.67923516E-02 0.69747526E+03</pdfrwt>
<totfact> 0.54464995E+02</totfact>
</mgrwt>
</event>
<event>
 4    1  0.2153371E-005  0.6390523E+03  0.7818608E-02  0.9827541E-01
         -2   -1    0    0    0  501 -0.00000000000E+00  0.00000000000E+00  0.15763374248E+03  0.15763374250E+03  0.25500000000E-02 0. -1.
          2   -1    0    0  501    0  0.00000000000E+00 -0.00000000000E+00 -0.64768465684E+03  0.64768465684E+03  0.25500000000E-02 0.  1.
    5000001    1    1    2    0    0  0.13797815915E+02 -0.24762903689E+03 -0.15378282002E+03  0.34713639303E+03  0.18800000000E+03 0.  0.
   -5000001    1    1    2    0    0 -0.13797815915E+02  0.24762903689E+03 -0.33626809433E+03  0.45818200631E+03  0.18800000000E+03 0.  0.
<mgrwt>
<rscale>  0 0.63905229E+03</rscale>
<asrwt>0</asrwt>
<pdfrwt beam="1">  1        2 0.92526378E-01 0.63905229E+03</pdfrwt>
<pdfrwt beam="2">  1       -2 0.22519106E-01 0.63905229E+03</pdfrwt>
<totfact> 0.85869301E+02</totfact>
</mgrwt>
</event>
<event>
 4    1  0.2153371E-005  0.4690921E+03  0.7818608E-02  0.1022177E+00
         -2   -1    0    0    0  501 -0.00000000000E+00  0.00000000000E+00  0.16221655267E+02  0.16221655467E+02  0.25500000000E-02 0. -1.
          2   -1    0    0  501    0  0.00000000000E+00 -0.00000000000E+00 -0.33912597255E+04  0.33912597255E+04  0.25500000000E-02 0.  1.
    5000001    1    1    2    0    0  0.85796363805E+02  0.91377428648E+02 -0.21444579976E+04  0.21563290459E+04  0.18800000000E+03 0.  0.
   -5000001    1    1    2    0    0 -0.85796363805E+02 -0.91377428648E+02 -0.12305800726E+04  0.12511523351E+04  0.18800000000E+03 0.  0.
<mgrwt>
<rscale>  0 0.46909209E+03</rscale>
<asrwt>0</asrwt>
<pdfrwt beam="1">  1        2 0.48446522E+00 0.46909209E+03</pdfrwt>
<pdfrwt beam="2">  1       -2 0.23173815E-02 0.46909209E+03</pdfrwt>
<totfact> 0.10236164E+03</totfact>
</mgrwt>
</event>
<event>
 4    1  0.2153371E-005  0.3950371E+03  0.7818608E-02  0.1045512E+00
         -2   -1    0    0    0  501 -0.00000000000E+00  0.00000000000E+00  0.66183034712E+02  0.66183034761E+02  0.25500000000E-02 0. -1.
          2   -1    0    0  501    0  0.00000000000E+00 -0.00000000000E+00 -0.58948009070E+03  0.58948009071E+03  0.25500000000E-02 0.  1.
    5000001    1    1    2    0    0  0.25370515703E+02  0.30754743040E+02 -0.33734597055E+03  0.38824711349E+03  0.18800000000E+03 0.  0.
   -5000001    1    1    2    0    0 -0.25370515703E+02 -0.30754743040E+02 -0.18595108544E+03  0.26741601198E+03  0.18800000000E+03 0.  0.
<mgrwt>
<rscale>  0 0.39503712E+03</rscale>
<asrwt>0</asrwt>
<pdfrwt beam="1">  1        2 0.84211438E-01 0.39503712E+03</pdfrwt>
<pdfrwt beam="2">  1       -2 0.94547196E-02 0.39503712E+03</pdfrwt>
<totfact> 0.41022471E+03</totfact>
</mgrwt>
</event>
<event>
 4    1  0.2153371E-005  0.4538507E+03  0.7818608E-02  0.1026580E+00
         -2   -1    0    0    0  501 -0.00000000000E+00  0.00000000000E+00  0.21604486327E+02  0.21604486478E+02  0.25500000000E-02 0. -1.
          2   -1    0    0  501    0  0.00000000000E+00 -0.00000000000E+00 -0.23835384716E+04  0.23835384716E+04  0.25500000000E-02 0.  1.
    5000001    1    1    2    0    0  0.41794368462E+01  0.12415230125E+03 -0.10387823336E+04  0.10629412017E+04  0.18800000000E+03 0.  0.
   -5000001    1    1    2    0    0 -0.41794368462E+01 -0.12415230125E+03 -0.13231516517E+04  0.13422017564E+04  0.18800000000E+03 0.  0.
<mgrwt>
<rscale>  0 0.45385074E+03</rscale>
<asrwt>0</asrwt>
<pdfrwt beam="1">  1        2 0.34050533E+00 0.45385074E+03</pdfrwt>
<pdfrwt beam="2">  1       -2 0.30863567E-02 0.45385074E+03</pdfrwt>
<totfact> 0.22992762E+03</totfact>
</mgrwt>
</event>
<event>
 4    1  0.2153371E-005  0.4476615E+03  0.7818608E-02  0.1028422E+00
          2   -1    0    0  501    0  0.00000000000E+00  0.00000000000E+00  0.74546492688E+03  0.74546492688E+03  0.25500000000E-02 0.  1.
         -2   -1    0    0    0  501 -0.00000000000E+00 -0.00000000000E+00 -0.67206668150E+02  0.67206668199E+02  0.25500000000E-02 0. -1.
    5000001    1    1    2    0    0  0.10947492190E+03 -0.19818229094E+02  0.42766810935E+03  0.48023070756E+03  0.18800000000E+03 0.  0.
   -5000001    1    1    2    0    0 -0.10947492190E+03  0.19818229094E+02  0.25059014937E+03  0.33244088751E+03  0.18800000000E+03 0.  0.
<mgrwt>
<rscale>  0 0.44766154E+03</rscale>
<asrwt>0</asrwt>
<pdfrwt beam="1">  1        2 0.10649498E+00 0.44766154E+03</pdfrwt>
<pdfrwt beam="2">  1       -2 0.96009531E-02 0.44766154E+03</pdfrwt>
<totfact> 0.30313625E+03</totfact>
</mgrwt>
</event>
<event>
 4    1  0.2153371E-005  0.6755311E+03  0.7818608E-02  0.9760017E-01
          2   -1    0    0  501    0  0.00000000000E+00  0.00000000000E+00  0.30734107814E+03  0.30734107815E+03  0.25500000000E-02 0.  1.
         -2   -1    0    0    0  501 -0.00000000000E+00 -0.00000000000E+00 -0.37120184870E+03  0.37120184871E+03  0.25500000000E-02 0. -1.
    5000001    1    1    2    0    0 -0.12440221958E+03  0.11484308423E+03 -0.25670638775E+03  0.36042615852E+03  0.18800000000E+03 0.  0.
   -5000001    1    1    2    0    0  0.12440221958E+03 -0.11484308423E+03  0.19284561719E+03  0.31811676834E+03  0.18800000000E+03 0.  0.
<mgrwt>
<rscale>  0 0.67553113E+03</rscale>
<asrwt>0</asrwt>
<pdfrwt beam="1">  1        2 0.43905868E-01 0.67553113E+03</pdfrwt>
<pdfrwt beam="2">  1       -2 0.53028836E-01 0.67553113E+03</pdfrwt>
<totfact> 0.39261180E+02</totfact>
</mgrwt>
</event>
<event>
 4    1  0.2153371E-005  0.5234835E+03  0.7818608E-02  0.1007825E+00
          2   -1    0    0  501    0  0.00000000000E+00  0.00000000000E+00  0.26434750756E+04  0.26434750756E+04  0.25500000000E-02 0.  1.
         -2   -1    0    0    0  501 -0.00000000000E+00 -0.00000000000E+00 -0.25916168789E+02  0.25916168915E+02  0.25500000000E-02 0. -1.
    5000001    1    1    2    0    0  0.16626667535E+03  0.73895372535E+02  0.12694081560E+04  0.12960888086E+04  0.18800000000E+03 0.  0.
   -5000001    1    1    2    0    0 -0.16626667535E+03 -0.73895372535E+02  0.13481507508E+04  0.13733024358E+04  0.18800000000E+03 0.  0.
<mgrwt>
<rscale>  0 0.52348351E+03</rscale>
<asrwt>0</asrwt>
<pdfrwt beam="1">  1        2 0.37763914E+00 0.52348351E+03</pdfrwt>
<pdfrwt beam="2">  1       -2 0.37023114E-02 0.52348351E+03</pdfrwt>
<totfact> 0.12791135E+03</totfact>
</mgrwt>
</event>
<event>
 4    1  0.2153371E-005  0.6121879E+03  0.7818608E-02  0.9880438E-01
         -2   -1    0    0    0  501 -0.00000000000E+00  0.00000000000E+00  0.30953620533E+03  0.30953620534E+03  0.25500000000E-02 0. -1.
          2   -1    0    0  501    0  0.00000000000E+00 -0.00000000000E+00 -0.30269002388E+03  0.30269002389E+03  0.25500000000E-02 0.  1.
    5000001    1    1    2    0    0 -0.17718094865E+02 -0.20400583404E+03 -0.12471458273E+03  0.30468022311E+03  0.18800000000E+03 0.  0.
   -5000001    1    1    2    0    0  0.17718094865E+02  0.20400583404E+03  0.13156076418E+03  0.30754600612E+03  0.18800000000E+03 0.  0.
<mgrwt>
<rscale>  0 0.61218795E+03</rscale>
<asrwt>0</asrwt>
<pdfrwt beam="1">  1        2 0.43241432E-01 0.61218795E+03</pdfrwt>
<pdfrwt beam="2">  1       -2 0.44219458E-01 0.61218795E+03</pdfrwt>
<totfact> 0.57665340E+02</totfact>
</mgrwt>
</event>
<event>
 4    1  0.2153371E-005  0.6261393E+03  0.7818608E-02  0.9852612E-01
         -2   -1    0    0    0  501 -0.00000000000E+00  0.00000000000E+00  0.49780085551E+02  0.49780085617E+02  0.25500000000E-02 0. -1.
          2   -1    0    0  501    0  0.00000000000E+00 -0.00000000000E+00 -0.19689122217E+04  0.19689122217E+04  0.25500000000E-02 0.  1.
    5000001    1    1    2    0    0 -0.21147323332E+03  0.93380750061E+02 -0.64986230588E+03  0.71491671507E+03  0.18800000000E+03 0.  0.
   -5000001    1    1    2    0    0  0.21147323332E+03 -0.93380750061E+02 -0.12692698303E+04  0.13037755922E+04  0.18800000000E+03 0.  0.
<mgrwt>
<rscale>  0 0.62613934E+03</rscale>
<asrwt>0</asrwt>
<pdfrwt beam="1">  1        2 0.28127313E+00 0.62613934E+03</pdfrwt>
<pdfrwt beam="2">  1       -2 0.71114420E-02 0.62613934E+03</pdfrwt>
<totfact> 0.10136539E+03</totfact>
</mgrwt>
</event>
<event>
 4    1  0.2153371E-005  0.4024351E+03  0.7818608E-02  0.1042940E+00
         -2   -1    0    0    0  501 -0.00000000000E+00  0.00000000000E+00  0.71273631611E+02  0.71273631656E+02  0.25500000000E-02 0. -1.
          2   -1    0    0  501    0  0.00000000000E+00 -0.00000000000E+00 -0.56807128046E+03  0.56807128047E+03  0.25500000000E-02 0.  1.
    5000001    1    1    2    0    0 -0.25483171395E+02  0.64189483261E+02 -0.27915636092E+03  0.34357234410E+03  0.18800000000E+03 0.  0.
   -5000001    1    1    2    0    0  0.25483171395E+02 -0.64189483261E+02 -0.21764128793E+03  0.29577256803E+03  0.18800000000E+03 0.  0.
<mgrwt>
<rscale>  0 0.40243510E+03</rscale>
<asrwt>0</asrwt>
<pdfrwt beam="1">  1        2 0.81153038E-01 0.40243510E+03</pdfrwt>
<pdfrwt beam="2">  1       -2 0.10181948E-01 0.40243510E+03</pdfrwt>
<totfact> 0.38026243E+03</totfact>
</mgrwt>
</event>
<event>
 4    1  0.2153371E-005  0.6011521E+03  0.7818608E-02  0.9903019E-01
         -2   -1    0    0    0  501 -0.00000000000E+00  0.00000000000E+00  0.15656740913E+03  0.15656740915E+03  0.25500000000E-02 0. -1.
          2   -1    0    0  501    0  0.00000000000E+00 -0.00000000000E+00 -0.57704199307E+03  0.57704199307E+03  0.25500000000E-02 0.  1.
    5000001    1    1    2    0    0 -0.13379079635E+03 -0.17643463409E+03 -0.11592464309E+03  0.31274858940E+03  0.18800000000E+03 0.  0.
   -5000001    1    1    2    0    0  0.13379079635E+03  0.17643463409E+03 -0.30454994085E+03  0.42086081282E+03  0.18800000000E+03 0.  0.
<mgrwt>
<rscale>  0 0.60115213E+03</rscale>
<asrwt>0</asrwt>
<pdfrwt beam="1">  1        2 0.82434569E-01 0.60115213E+03</pdfrwt>
<pdfrwt beam="2">  1       -2 0.22366773E-01 0.60115213E+03</pdfrwt>
<totfact> 0.99694510E+02</totfact>
</mgrwt>
</event>
<event>
 4    1  0.2153371E-005  0.6506838E+03  0.7818608E-02  0.9805497E-01
         -2   -1    0    0    0  501 -0.00000000000E+00  0.00000000000E+00  0.70938457267E+02  0.70938457313E+02  0.25500000000E-02 0. -1.
          2   -1    0    0  501    0  0.00000000000E+00 -0.00000000000E+00 -0.14921012703E+04  0.14921012703E+04  0.25500000000E-02 0.  1.
    5000001    1    1    2    0    0 -0.12745703147E+03  0.23236672382E+03 -0.67156788156E+03  0.74604759148E+03  0.18800000000E+03 0.  0.
   -5000001    1    1    2    0    0  0.12745703147E+03 -0.23236672382E+03 -0.74959493145E+03  0.81699213611E+03  0.18800000000E+03 0.  0.
<mgrwt>
<rscale>  0 0.65068383E+03</rscale>
<asrwt>0</asrwt>
<pdfrwt beam="1">  1        2 0.21315731E+00 0.65068383E+03</pdfrwt>
<pdfrwt beam="2">  1       -2 0.10134066E-01 0.65068383E+03</pdfrwt>
<totfact> 0.10045048E+03</totfact>
</mgrwt>
</event>
<event>
 4    1  0.2153371E-005  0.7908807E+03  0.7818608E-02  0.9573312E-01
          2   -1    0    0  501    0  0.00000000000E+00  0.00000000000E+00  0.51981352970E+03  0.51981352970E+03  0.25500000000E-02 0.  1.
         -2   -1    0    0    0  501 -0.00000000000E+00 -0.00000000000E+00 -0.30082530290E+03  0.30082530291E+03  0.25500000000E-02 0. -1.
    5000001    1    1    2    0    0 -0.19887525413E+03  0.28351451267E+03  0.75123494922E+02  0.40114758517E+03  0.18800000000E+03 0.  0.
   -5000001    1    1    2    0    0  0.19887525413E+03 -0.28351451267E+03  0.14386473188E+03  0.41949124744E+03  0.18800000000E+03 0.  0.
<mgrwt>
<rscale>  0 0.79088068E+03</rscale>
<asrwt>0</asrwt>
<pdfrwt beam="1">  1        2 0.74259075E-01 0.79088068E+03</pdfrwt>
<pdfrwt beam="2">  1       -2 0.42975044E-01 0.79088068E+03</pdfrwt>
<totfact> 0.33140706E+02</totfact>
</mgrwt>
</event>
<event>
 4    1  0.2153371E-005  0.6722801E+03  0.7818608E-02  0.9765847E-01
          2   -1    0    0  501    0  0.00000000000E+00  0.00000000000E+00  0.83644558466E+03  0.83644558466E+03  0.25500000000E-02 0.  1.
         -2   -1    0    0    0  501 -0.00000000000E+00 -0.00000000000E+00 -0.13508368025E+03  0.13508368027E+03  0.25500000000E-02 0. -1.
    5000001    1    1    2    0    0 -0.20209289025E+03  0.16671654394E+03  0.21350658875E+03  0.38673635173E+03  0.18800000000E+03 0.  0.
   -5000001    1    1    2    0    0  0.20209289025E+03 -0.16671654394E+03  0.48785531566E+03  0.58479291320E+03  0.18800000000E+03 0.  0.
<mgrwt>
<rscale>  0 0.67228014E+03</rscale>
<asrwt>0</asrwt>
<pdfrwt beam="1">  1        2 0.11949223E+00 0.67228014E+03</pdfrwt>
<pdfrwt beam="2">  1       -2 0.19297669E-01 0.67228014E+03</pdfrwt>
<totfact> 0.81750143E+02</totfact>
</mgrwt>
</event>
<event>
 4    1  0.2153371E-005  0.4664411E+03  0.7818608E-02  0.1022930E+00
         -2   -1    0    0    0  501 -0.00000000000E+00  0.00000000000E+00  0.80545780766E+03  0.80545780767E+03  0.25500000000E-02 0. -1.
          2   -1    0    0  501    0  0.00000000000E+00 -0.00000000000E+00 -0.67529074845E+02  0.67529074893E+02  0.25500000000E-02 0.  1.
    5000001    1    1    2    0    0  0.22823850588E+02 -0.13179789549E+03  0.43260415925E+03  0.49028764212E+03  0.18800000000E+03 0.  0.
   -5000001    1    1    2    0    0 -0.22823850588E+02  0.13179789549E+03  0.30532457357E+03  0.38269924044E+03  0.18800000000E+03 0.  0.
<mgrwt>
<rscale>  0 0.46644108E+03</rscale>
<asrwt>0</asrwt>
<pdfrwt beam="1">  1        2 0.96470112E-02 0.46644108E+03</pdfrwt>
<pdfrwt beam="2">  1       -2 0.11506540E+00 0.46644108E+03</pdfrwt>
<totfact> 0.41415471E+02</totfact>
</mgrwt>
</event>
<event>
 4    1  0.2153371E-005  0.5783864E+03  0.7818608E-02  0.9951291E-01
         -2   -1    0    0    0  501 -0.00000000000E+00  0.00000000000E+00  0.18539882620E+03  0.18539882621E+03  0.25500000000E-02 0. -1.
          2   -1    0    0  501    0  0.00000000000E+00 -0.00000000000E+00 -0.45109621149E+03  0.45109621149E+03  0.25500000000E-02 0.  1.
    5000001    1    1    2    0    0  0.40289968639E+02  0.19931841097E+03 -0.41188345163E+02  0.27998498228E+03  0.18800000000E+03 0.  0.
   -5000001    1    1    2    0    0 -0.40289968639E+02 -0.19931841097E+03 -0.22450904013E+03  0.35651005543E+03  0.18800000000E+03 0.  0.
<mgrwt>
<rscale>  0 0.57838640E+03</rscale>
<asrwt>0</asrwt>
<pdfrwt beam="1">  1        2 0.64442315E-01 0.57838640E+03</pdfrwt>
<pdfrwt beam="2">  1       -2 0.26485547E-01 0.57838640E+03</pdfrwt>
<totfact> 0.97645652E+02</totfact>
</mgrwt>
</event>
<event>
 4    1  0.2153371E-005  0.4865177E+03  0.7818608E-02  0.1017359E+00
          2   -1    0    0  501    0  0.00000000000E+00  0.00000000000E+00  0.27528043151E+04  0.27528043151E+04  0.25500000000E-02 0.  1.
         -2   -1    0    0    0  501 -0.00000000000E+00 -0.00000000000E+00 -0.21496213137E+02  0.21496213288E+02  0.25500000000E-02 0. -1.
    5000001    1    1    2    0    0 -0.27749846398E+01  0.12609182799E+03  0.18732610582E+04  0.18868910519E+04  0.18800000000E+03 0.  0.
   -5000001    1    1    2    0    0  0.27749846398E+01 -0.12609182799E+03  0.85804704376E+03  0.88740947648E+03  0.18800000000E+03 0.  0.
<mgrwt>
<rscale>  0 0.48651770E+03</rscale>
<asrwt>0</asrwt>
<pdfrwt beam="1">  1        2 0.39325766E+00 0.48651770E+03</pdfrwt>
<pdfrwt beam="2">  1       -2 0.30708884E-02 0.48651770E+03</pdfrwt>
<totfact> 0.14951683E+03</totfact>
</mgrwt>
</event>
<event>
 4    1  0.2153371E-005  0.4387910E+03  0.7818608E-02  0.1031118E+00
          2   -1    0    0  501    0  0.00000000000E+00  0.00000000000E+00  0.59800720854E+03  0.59800720855E+03  0.25500000000E-02 0.  1.
         -2   -1    0    0    0  501 -0.00000000000E+00 -0.00000000000E+00 -0.80491303506E+02  0.80491303547E+02  0.25500000000E-02 0. -1.
    5000001    1    1    2    0    0  0.14570095223E+02 -0.11122876660E+03  0.23655084867E+03  0.32231107676E+03  0.18800000000E+03 0.  0.
   -5000001    1    1    2    0    0 -0.14570095223E+02  0.11122876660E+03  0.28096505637E+03  0.35618743534E+03  0.18800000000E+03 0.  0.
<mgrwt>
<rscale>  0 0.43879097E+03</rscale>
<asrwt>0</asrwt>
<pdfrwt beam="1">  1        2 0.85429604E-01 0.43879097E+03</pdfrwt>
<pdfrwt beam="2">  1       -2 0.11498757E-01 0.43879097E+03</pdfrwt>
<totfact> 0.29472433E+03</totfact>
</mgrwt>
</event>
<event>
 4    1  0.2153371E-005  0.4574171E+03  0.7818608E-02  0.1025533E+00
          2   -1    0    0  501    0  0.00000000000E+00  0.00000000000E+00  0.12316278589E+03  0.12316278591E+03  0.25500000000E-02 0.  1.
         -2   -1    0    0    0  501 -0.00000000000E+00 -0.00000000000E+00 -0.42470292339E+03  0.42470292340E+03  0.25500000000E-02 0. -1.
    5000001    1    1    2    0    0  0.85546317637E+02 -0.21547518864E+02 -0.36004992844E+02  0.21076723545E+03  0.18800000000E+03 0.  0.
   -5000001    1    1    2    0    0 -0.85546317637E+02  0.21547518864E+02 -0.26553514466E+03  0.33709847386E+03  0.18800000000E+03 0.  0.
<mgrwt>
<rscale>  0 0.45741708E+03</rscale>
<asrwt>0</asrwt>
<pdfrwt beam="1">  1        2 0.17594684E-01 0.45741708E+03</pdfrwt>
<pdfrwt beam="2">  1       -2 0.60671845E-01 0.45741708E+03</pdfrwt>
<totfact> 0.83975448E+02</totfact>
</mgrwt>
</event>
<event>
 4    1  0.2153371E-005  0.6894922E+03  0.7818608E-02  0.9735373E-01
          2   -1    0    0  501    0  0.00000000000E+00  0.00000000000E+00  0.14835281379E+04  0.14835281379E+04  0.25500000000E-02 0. -1.
         -2   -1    0    0    0  501 -0.00000000000E+00 -0.00000000000E+00 -0.80112998083E+02  0.80112998123E+02  0.25500000000E-02 0.  1.
    5000001    1    1    2    0    0 -0.43966731821E+02 -0.26242658075E+03  0.44608640942E+03  0.55239285700E+03  0.18800000000E+03 0.  0.
   -5000001    1    1    2    0    0  0.43966731821E+02  0.26242658075E+03  0.95732873042E+03  0.10112482790E+04  0.18800000000E+03 0.  0.
<mgrwt>
<rscale>  0 0.68949224E+03</rscale>
<asrwt>0</asrwt>
<pdfrwt beam="1">  1        2 0.21193257E+00 0.68949224E+03</pdfrwt>
<pdfrwt beam="2">  1       -2 0.11444715E-01 0.68949224E+03</pdfrwt>
<totfact> 0.83060506E+02</totfact>
</mgrwt>
</event>
<event>
 4    1  0.2153371E-005  0.8310075E+03  0.7818608E-02  0.9516189E-01
         -2   -1    0    0    0  501 -0.00000000000E+00  0.00000000000E+00  0.73442593322E+02  0.73442593367E+02  0.25500000000E-02 0.  1.
          2   -1    0    0  501    0  0.00000000000E+00 -0.00000000000E+00 -0.23507252765E+04  0.23507252765E+04  0.25500000000E-02 0. -1.
    5000001    1    1    2    0    0 -0.76192476576E+02 -0.35732060213E+03 -0.95843709099E+03  0.10427986208E+04  0.18800000000E+03 0.  0.
   -5000001    1    1    2    0    0  0.76192476576E+02  0.35732060213E+03 -0.13188455922E+04  0.13813692490E+04  0.18800000000E+03 0.  0.
<mgrwt>
<rscale>  0 0.83100749E+03</rscale>
<asrwt>0</asrwt>
<pdfrwt beam="1">  1        2 0.33581785E+00 0.83100749E+03</pdfrwt>
<pdfrwt beam="2">  1       -2 0.10491800E-01 0.83100749E+03</pdfrwt>
<totfact> 0.34251321E+02</totfact>
</mgrwt>
</event>
<event>
 4    1  0.2153371E-005  0.5099031E+03  0.7818608E-02  0.1011226E+00
          2   -1    0    0  501    0  0.00000000000E+00  0.00000000000E+00  0.10086477216E+03  0.10086477220E+03  0.25500000000E-02 0.  1.
         -2   -1    0    0    0  501 -0.00000000000E+00 -0.00000000000E+00 -0.64443006217E+03  0.64443006217E+03  0.25500000000E-02 0. -1.
    5000001    1    1    2    0    0 -0.16508979724E+03 -0.32929669423E+02 -0.32483207084E+03  0.41133791282E+03  0.18800000000E+03 0.  0.
   -5000001    1    1    2    0    0  0.16508979724E+03  0.32929669423E+02 -0.21873321916E+03  0.33395692154E+03  0.18800000000E+03 0.  0.
<mgrwt>
<rscale>  0 0.50990309E+03</rscale>
<asrwt>0</asrwt>
<pdfrwt beam="1">  1        2 0.14409254E-01 0.50990309E+03</pdfrwt>
<pdfrwt beam="2">  1       -2 0.92061435E-01 0.50990309E+03</pdfrwt>
<totfact> 0.42655848E+02</totfact>
</mgrwt>
</event>
<event>
 4    1  0.2153371E-005  0.5718042E+03  0.7818608E-02  0.9965694E-01
          2   -1    0    0  501    0  0.00000000000E+00  0.00000000000E+00  0.29923835729E+03  0.29923835731E+03  0.25500000000E-02 0.  1.
         -2   -1    0    0    0  501 -0.00000000000E+00 -0.00000000000E+00 -0.27316018963E+03  0.27316018965E+03  0.25500000000E-02 0. -1.
    5000001    1    1    2    0    0  0.40318844879E+01 -0.20921009643E+03 -0.38110857357E+02  0.28386890987E+03  0.18800000000E+03 0.  0.
   -5000001    1    1    2    0    0 -0.40318844879E+01  0.20921009643E+03  0.64189025018E+02  0.28852963708E+03  0.18800000000E+03 0.  0.
<mgrwt>
<rscale>  0 0.57180418E+03</rscale>
<asrwt>0</asrwt>
<pdfrwt beam="1">  1        2 0.42748337E-01 0.57180418E+03</pdfrwt>
<pdfrwt beam="2">  1       -2 0.39022884E-01 0.57180418E+03</pdfrwt>
<totfact> 0.74602507E+02</totfact>
</mgrwt>
</event>
<event>
 4    1  0.2153371E-005  0.6745109E+03  0.7818608E-02  0.9761843E-01
         -2   -1    0    0    0  501 -0.00000000000E+00  0.00000000000E+00  0.36621554828E+02  0.36621554917E+02  0.25500000000E-02 0. -1.
          2   -1    0    0  501    0  0.00000000000E+00 -0.00000000000E+00 -0.31058552769E+04  0.31058552769E+04  0.25500000000E-02 0.  1.
    5000001    1    1    2    0    0 -0.16623680537E+03 -0.47551143711E+01 -0.25840581914E+04  0.25962199489E+04  0.18800000000E+03 0.  0.
   -5000001    1    1    2    0    0  0.16623680537E+03  0.47551143711E+01 -0.48517553075E+03  0.54625688299E+03  0.18800000000E+03 0.  0.
<mgrwt>
<rscale>  0 0.67451093E+03</rscale>
<asrwt>0</asrwt>
<pdfrwt beam="1">  1        2 0.44369344E+00 0.67451093E+03</pdfrwt>
<pdfrwt beam="2">  1       -2 0.52316527E-02 0.67451093E+03</pdfrwt>
<totfact> 0.41882192E+02</totfact>
</mgrwt>
</event>
<event>
 4    1  0.2153371E-005  0.7024532E+03  0.7818608E-02  0.9713046E-01
         -2   -1    0    0    0  501 -0.00000000000E+00  0.00000000000E+00  0.15692590332E+03  0.15692590334E+03  0.25500000000E-02 0. -1.
          2   -1    0    0  501    0  0.00000000000E+00 -0.00000000000E+00 -0.78610436276E+03  0.78610436276E+03  0.25500000000E-02 0.  1.
    5000001    1    1    2    0    0 -0.27381098234E+03  0.91182713208E+02 -0.40691247325E+03  0.53311209152E+03  0.18800000000E+03 0.  0.
   -5000001    1    1    2    0    0  0.27381098234E+03 -0.91182713208E+02 -0.22226598618E+03  0.40991817458E+03  0.18800000000E+03 0.  0.
<mgrwt>
<rscale>  0 0.70245324E+03</rscale>
<asrwt>0</asrwt>
<pdfrwt beam="1">  1        2 0.11230062E+00 0.70245324E+03</pdfrwt>
<pdfrwt beam="2">  1       -2 0.22417987E-01 0.70245324E+03</pdfrwt>
<totfact> 0.68022663E+02</totfact>
</mgrwt>
</event>
<event>
 4    1  0.2153371E-005  0.5874479E+03  0.7818608E-02  0.9931795E-01
         -2   -1    0    0    0  501 -0.00000000000E+00  0.00000000000E+00  0.29348719215E+03  0.29348719216E+03  0.25500000000E-02 0. -1.
          2   -1    0    0  501    0  0.00000000000E+00 -0.00000000000E+00 -0.29396086877E+03  0.29396086879E+03  0.25500000000E-02 0.  1.
    5000001    1    1    2    0    0 -0.17984275465E+03  0.92984742439E+02  0.99463601609E+02  0.29364363908E+03  0.18800000000E+03 0.  0.
   -5000001    1    1    2    0    0  0.17984275465E+03 -0.92984742439E+02 -0.99937278231E+02  0.29380442187E+03  0.18800000000E+03 0.  0.
<mgrwt>
<rscale>  0 0.58744787E+03</rscale>
<asrwt>0</asrwt>
<pdfrwt beam="1">  1        2 0.41994410E-01 0.58744787E+03</pdfrwt>
<pdfrwt beam="2">  1       -2 0.41926742E-01 0.58744787E+03</pdfrwt>
<totfact> 0.66161879E+02</totfact>
</mgrwt>
</event>
<event>
 4    1  0.2153371E-005  0.6152206E+03  0.7818608E-02  0.9874322E-01
          2   -1    0    0  501    0  0.00000000000E+00  0.00000000000E+00  0.14250388977E+04  0.14250388977E+04  0.25500000000E-02 0.  1.
         -2   -1    0    0    0  501 -0.00000000000E+00 -0.00000000000E+00 -0.66401068169E+02  0.66401068217E+02  0.25500000000E-02 0. -1.
    5000001    1    1    2    0    0 -0.78320187036E+02 -0.22082737173E+03  0.83978292238E+03  0.89189581035E+03  0.18800000000E+03 0.  0.
   -5000001    1    1    2    0    0  0.78320187036E+02  0.22082737173E+03  0.51885490719E+03  0.59954415560E+03  0.18800000000E+03 0.  0.
<mgrwt>
<rscale>  0 0.61522063E+03</rscale>
<asrwt>0</asrwt>
<pdfrwt beam="1">  1        2 0.20357698E+00 0.61522063E+03</pdfrwt>
<pdfrwt beam="2">  1       -2 0.94858670E-02 0.61522063E+03</pdfrwt>
<totfact> 0.12143132E+03</totfact>
</mgrwt>
</event>
<event>
 4    1  0.2153371E-005  0.6319400E+03  0.7818608E-02  0.9841270E-01
         -2   -1    0    0    0  501 -0.00000000000E+00  0.00000000000E+00  0.23964216875E+03  0.23964216876E+03  0.25500000000E-02 0. -1.
          2   -1    0    0  501    0  0.00000000000E+00 -0.00000000000E+00 -0.41660885448E+03  0.41660885449E+03  0.25500000000E-02 0.  1.
    5000001    1    1    2    0    0 -0.91576582938E+02 -0.17243100575E+03  0.80166066081E+02  0.28264698908E+03  0.18800000000E+03 0.  0.
   -5000001    1    1    2    0    0  0.91576582938E+02  0.17243100575E+03 -0.25713275182E+03  0.37360403417E+03  0.18800000000E+03 0.  0.
<mgrwt>
<rscale>  0 0.63194003E+03</rscale>
<asrwt>0</asrwt>
<pdfrwt beam="1">  1        2 0.59515551E-01 0.63194003E+03</pdfrwt>
<pdfrwt beam="2">  1       -2 0.34234595E-01 0.63194003E+03</pdfrwt>
<totfact> 0.66357874E+02</totfact>
</mgrwt>
</event>
<event>
 4    1  0.2153371E-005  0.7385699E+03  0.7818608E-02  0.9653455E-01
          2   -1    0    0  501    0  0.00000000000E+00  0.00000000000E+00  0.21790483107E+03  0.21790483109E+03  0.25500000000E-02 0.  1.
         -2   -1    0    0    0  501 -0.00000000000E+00 -0.00000000000E+00 -0.62583004128E+03  0.62583004129E+03  0.25500000000E-02 0. -1.
    5000001    1    1    2    0    0  0.31797459855E+02 -0.28247413271E+03 -0.41499350098E+02  0.34332041909E+03  0.18800000000E+03 0.  0.
   -5000001    1    1    2    0    0 -0.31797459855E+02  0.28247413271E+03 -0.36642586011E+03  0.50041445329E+03  0.18800000000E+03 0.  0.
<mgrwt>
<rscale>  0 0.73856994E+03</rscale>
<asrwt>0</asrwt>
<pdfrwt beam="1">  1        2 0.31129262E-01 0.73856994E+03</pdfrwt>
<pdfrwt beam="2">  1       -2 0.89404291E-01 0.73856994E+03</pdfrwt>
<totfact> 0.18479718E+02</totfact>
</mgrwt>
</event>
<event>
 4    1  0.2153371E-005  0.4990190E+03  0.7818608E-02  0.1014035E+00
         -2   -1    0    0    0  501 -0.00000000000E+00  0.00000000000E+00  0.12884094561E+03  0.12884094564E+03  0.25500000000E-02 0. -1.
          2   -1    0    0  501    0  0.00000000000E+00 -0.00000000000E+00 -0.48319250703E+03  0.48319250703E+03  0.25500000000E-02 0.  1.
    5000001    1    1    2    0    0 -0.14003461136E+03  0.37029698497E+02 -0.27162289819E+03  0.36069916796E+03  0.18800000000E+03 0.  0.
   -5000001    1    1    2    0    0  0.14003461136E+03 -0.37029698497E+02 -0.82728663228E+02  0.25133428471E+03  0.18800000000E+03 0.  0.
<mgrwt>
<rscale>  0 0.49901896E+03</rscale>
<asrwt>0</asrwt>
<pdfrwt beam="1">  1        2 0.69027500E-01 0.49901896E+03</pdfrwt>
<pdfrwt beam="2">  1       -2 0.18405850E-01 0.49901896E+03</pdfrwt>
<totfact> 0.17160786E+03</totfact>
</mgrwt>
</event>
<event>
 4    1  0.2153371E-005  0.3994339E+03  0.7818608E-02  0.1043976E+00
          2   -1    0    0  501    0  0.00000000000E+00  0.00000000000E+00  0.15614617191E+03  0.15614617193E+03  0.25500000000E-02 0.  1.
         -2   -1    0    0    0  501 -0.00000000000E+00 -0.00000000000E+00 -0.25544565487E+03  0.25544565489E+03  0.25500000000E-02 0. -1.
    5000001    1    1    2    0    0 -0.58875535164E+02  0.26225465554E+02 -0.29332666423E+02  0.20089427320E+03  0.18800000000E+03 0.  0.
   -5000001    1    1    2    0    0  0.58875535164E+02 -0.26225465554E+02 -0.69966816539E+02  0.21069755362E+03  0.18800000000E+03 0.  0.
<mgrwt>
<rscale>  0 0.39943391E+03</rscale>
<asrwt>0</asrwt>
<pdfrwt beam="1">  1        2 0.22306596E-01 0.39943391E+03</pdfrwt>
<pdfrwt beam="2">  1       -2 0.36492236E-01 0.39943391E+03</pdfrwt>
<totfact> 0.17521899E+03</totfact>
</mgrwt>
</event>
<event>
 4    1  0.2153371E-005  0.4147407E+03  0.7818608E-02  0.1038792E+00
         -2   -1    0    0    0  501 -0.00000000000E+00  0.00000000000E+00  0.56213861559E+02  0.56213861617E+02  0.25500000000E-02 0. -1.
          2   -1    0    0  501    0  0.00000000000E+00 -0.00000000000E+00 -0.76497984520E+03  0.76497984521E+03  0.25500000000E-02 0.  1.
    5000001    1    1    2    0    0  0.74242100597E+02 -0.17221485144E+02 -0.43954678950E+03  0.48410107334E+03  0.18800000000E+03 0.  0.
   -5000001    1    1    2    0    0 -0.74242100597E+02  0.17221485144E+02 -0.26921919415E+03  0.33709263348E+03  0.18800000000E+03 0.  0.
<mgrwt>
<rscale>  0 0.41474074E+03</rscale>
<asrwt>0</asrwt>
<pdfrwt beam="1">  1        2 0.10928283E+00 0.41474074E+03</pdfrwt>
<pdfrwt beam="2">  1       -2 0.80305521E-02 0.41474074E+03</pdfrwt>
<totfact> 0.38982942E+03</totfact>
</mgrwt>
</event>
<event>
 4    1  0.2153371E-005  0.8703271E+03  0.7818608E-02  0.9463453E-01
          2   -1    0    0  501    0  0.00000000000E+00  0.00000000000E+00  0.49918710406E+03  0.49918710407E+03  0.25500000000E-02 0.  1.
         -2   -1    0    0    0  501 -0.00000000000E+00 -0.00000000000E+00 -0.37935140255E+03  0.37935140256E+03  0.25500000000E-02 0. -1.
    5000001    1    1    2    0    0  0.36979388409E+03  0.38343898520E+02  0.18682415012E+03  0.45657971301E+03  0.18800000000E+03 0.  0.
   -5000001    1    1    2    0    0 -0.36979388409E+03 -0.38343898520E+02 -0.66988448603E+02  0.42195879362E+03  0.18800000000E+03 0.  0.
<mgrwt>
<rscale>  0 0.87032713E+03</rscale>
<asrwt>0</asrwt>
<pdfrwt beam="1">  1        2 0.71312443E-01 0.87032713E+03</pdfrwt>
<pdfrwt beam="2">  1       -2 0.54193058E-01 0.87032713E+03</pdfrwt>
<totfact> 0.21660154E+02</totfact>
</mgrwt>
</event>
<event>
 4    1  0.2153371E-005  0.5403143E+03  0.7818608E-02  0.1003761E+00
         -2   -1    0    0    0  501 -0.00000000000E+00  0.00000000000E+00  0.16369830637E+03  0.16369830639E+03  0.25500000000E-02 0. -1.
          2   -1    0    0  501    0  0.00000000000E+00 -0.00000000000E+00 -0.44585002886E+03  0.44585002887E+03  0.25500000000E-02 0.  1.
    5000001    1    1    2    0    0  0.10732816215E+03 -0.10680047064E+03 -0.42257872647E+01  0.24142810979E+03  0.18800000000E+03 0.  0.
   -5000001    1    1    2    0    0 -0.10732816215E+03  0.10680047064E+03 -0.27792593523E+03  0.36812022546E+03  0.18800000000E+03 0.  0.
<mgrwt>
<rscale>  0 0.54031433E+03</rscale>
<asrwt>0</asrwt>
<pdfrwt beam="1">  1        2 0.63692861E-01 0.54031433E+03</pdfrwt>
<pdfrwt beam="2">  1       -2 0.23385473E-01 0.54031433E+03</pdfrwt>
<totfact> 0.12367943E+03</totfact>
</mgrwt>
</event>
<event>
 4    1  0.2153371E-005  0.7081897E+03  0.7818608E-02  0.9703328E-01
         -2   -1    0    0    0  501 -0.00000000000E+00  0.00000000000E+00  0.31554383279E+03  0.31554383280E+03  0.25500000000E-02 0. -1.
          2   -1    0    0  501    0  0.00000000000E+00 -0.00000000000E+00 -0.39735574968E+03  0.39735574969E+03  0.25500000000E-02 0.  1.
    5000001    1    1    2    0    0 -0.21004038819E+03 -0.19288534848E+03  0.53082190728E+02  0.34566376915E+03  0.18800000000E+03 0.  0.
   -5000001    1    1    2    0    0  0.21004038819E+03  0.19288534848E+03 -0.13489410762E+03  0.36723581334E+03  0.18800000000E+03 0.  0.
<mgrwt>
<rscale>  0 0.70818968E+03</rscale>
<asrwt>0</asrwt>
<pdfrwt beam="1">  1        2 0.56765107E-01 0.70818968E+03</pdfrwt>
<pdfrwt beam="2">  1       -2 0.45077691E-01 0.70818968E+03</pdfrwt>
<totfact> 0.40963327E+02</totfact>
</mgrwt>
</event>
<event>
 4    1  0.2153371E-005  0.5588483E+03  0.7818608E-02  0.9994664E-01
         -2   -1    0    0    0  501 -0.00000000000E+00  0.00000000000E+00  0.13415535016E+03  0.13415535018E+03  0.25500000000E-02 0. -1.
          2   -1    0    0  501    0  0.00000000000E+00 -0.00000000000E+00 -0.58199590979E+03  0.58199590979E+03  0.25500000000E-02 0.  1.
    5000001    1    1    2    0    0  0.77366330616E+02 -0.19077373557E+03 -0.24802083070E+03  0.37314675364E+03  0.18800000000E+03 0.  0.
   -5000001    1    1    2    0    0 -0.77366330616E+02  0.19077373557E+03 -0.19981972893E+03  0.34300450633E+03  0.18800000000E+03 0.  0.
<mgrwt>
<rscale>  0 0.55884833E+03</rscale>
<asrwt>0</asrwt>
<pdfrwt beam="1">  1        2 0.83142272E-01 0.55884833E+03</pdfrwt>
<pdfrwt beam="2">  1       -2 0.19165050E-01 0.55884833E+03</pdfrwt>
<totfact> 0.12936359E+03</totfact>
</mgrwt>
</event>
<event>
 4    1  0.2153371E-005  0.1065090E+04  0.7818608E-02  0.9239902E-01
         -2   -1    0    0    0  501 -0.00000000000E+00  0.00000000000E+00  0.73125588405E+03  0.73125588406E+03  0.25500000000E-02 0. -1.
          2   -1    0    0  501    0  0.00000000000E+00 -0.00000000000E+00 -0.38783140640E+03  0.38783140641E+03  0.25500000000E-02 0.  1.
    5000001    1    1    2    0    0 -0.44597028890E+03 -0.18677821884E+03  0.29816490584E+03  0.59834932330E+03  0.18800000000E+03 0.  0.
   -5000001    1    1    2    0    0  0.44597028890E+03  0.18677821884E+03  0.45259571814E+02  0.52073796717E+03  0.18800000000E+03 0.  0.
<mgrwt>
<rscale>  0 0.10650897E+04</rscale>
<asrwt>0</asrwt>
<pdfrwt beam="1">  1        2 0.55404487E-01 0.10650897E+04</pdfrwt>
<pdfrwt beam="2">  1       -2 0.10446513E+00 0.10650897E+04</pdfrwt>
<totfact> 0.66332015E+01</totfact>
</mgrwt>
</event>
<event>
 4    1  0.2153371E-005  0.5294214E+03  0.7818608E-02  0.1006373E+00
         -2   -1    0    0    0  501 -0.00000000000E+00  0.00000000000E+00  0.43737933091E+02  0.43737933165E+02  0.25500000000E-02 0. -1.
          2   -1    0    0  501    0  0.00000000000E+00 -0.00000000000E+00 -0.16020820912E+04  0.16020820912E+04  0.25500000000E-02 0.  1.
    5000001    1    1    2    0    0  0.31913141632E+02 -0.17934797675E+03 -0.65703425186E+03  0.70726384999E+03  0.18800000000E+03 0.  0.
   -5000001    1    1    2    0    0 -0.31913141632E+02  0.17934797675E+03 -0.90130990622E+03  0.93855617435E+03  0.18800000000E+03 0.  0.
<mgrwt>
<rscale>  0 0.52942142E+03</rscale>
<asrwt>0</asrwt>
<pdfrwt beam="1">  1        2 0.22886883E+00 0.52942142E+03</pdfrwt>
<pdfrwt beam="2">  1       -2 0.62482772E-02 0.52942142E+03</pdfrwt>
<totfact> 0.19127214E+03</totfact>
</mgrwt>
</event>
<event>
 4    1  0.2153371E-005  0.9644979E+03  0.7818608E-02  0.9348363E-01
          2   -1    0    0  501    0  0.00000000000E+00  0.00000000000E+00  0.79550492393E+03  0.79550492393E+03  0.25500000000E-02 0.  1.
         -2   -1    0    0    0  501 -0.00000000000E+00 -0.00000000000E+00 -0.29234773835E+03  0.29234773837E+03  0.25500000000E-02 0. -1.
    5000001    1    1    2    0    0 -0.12159474505E+03 -0.38460671906E+03  0.42043530914E+02  0.44701148628E+03  0.18800000000E+03 0.  0.
   -5000001    1    1    2    0    0  0.12159474505E+03  0.38460671906E+03  0.46111365466E+03  0.64084117602E+03  0.18800000000E+03 0.  0.
<mgrwt>
<rscale>  0 0.96449793E+03</rscale>
<asrwt>0</asrwt>
<pdfrwt beam="1">  1        2 0.11364356E+00 0.96449793E+03</pdfrwt>
<pdfrwt beam="2">  1       -2 0.41763963E-01 0.96449793E+03</pdfrwt>
<totfact> 0.20776242E+02</totfact>
</mgrwt>
</event>
<event>
 4    1  0.2153371E-005  0.8032959E+03  0.7818608E-02  0.9555259E-01
          2   -1    0    0  501    0  0.00000000000E+00  0.00000000000E+00  0.14391342860E+04  0.14391342860E+04  0.25500000000E-02 0.  1.
         -2   -1    0    0    0  501 -0.00000000000E+00 -0.00000000000E+00 -0.11209590621E+03  0.11209590624E+03  0.25500000000E-02 0. -1.
    5000001    1    1    2    0    0 -0.53545264990E+02  0.34849250246E+03  0.74226714916E+03  0.84298199293E+03  0.18800000000E+03 0.  0.
   -5000001    1    1    2    0    0  0.53545264990E+02 -0.34849250246E+03  0.58477123065E+03  0.70824819934E+03  0.18800000000E+03 0.  0.
<mgrwt>
<rscale>  0 0.80329587E+03</rscale>
<asrwt>0</asrwt>
<pdfrwt beam="1">  1        2 0.20559062E+00 0.80329587E+03</pdfrwt>
<pdfrwt beam="2">  1       -2 0.16013700E-01 0.80329587E+03</pdfrwt>
<totfact> 0.49710876E+02</totfact>
</mgrwt>
</event>
<event>
 4    1  0.2153371E-005  0.5281826E+03  0.7818608E-02  0.1006674E+00
          2   -1    0    0  501    0  0.00000000000E+00  0.00000000000E+00  0.58142601572E+03  0.58142601573E+03  0.25500000000E-02 0.  1.
         -2   -1    0    0    0  501 -0.00000000000E+00 -0.00000000000E+00 -0.11995372449E+03  0.11995372452E+03  0.25500000000E-02 0. -1.
    5000001    1    1    2    0    0 -0.93918866257E+02  0.11535629381E+03  0.37784325571E+03  0.44747888648E+03  0.18800000000E+03 0.  0.
   -5000001    1    1    2    0    0  0.93918866257E+02 -0.11535629381E+03  0.83629035520E+02  0.25390085376E+03  0.18800000000E+03 0.  0.
<mgrwt>
<rscale>  0 0.52818261E+03</rscale>
<asrwt>0</asrwt>
<pdfrwt beam="1">  1        2 0.83060860E-01 0.52818261E+03</pdfrwt>
<pdfrwt beam="2">  1       -2 0.17136246E-01 0.52818261E+03</pdfrwt>
<totfact> 0.15694381E+03</totfact>
</mgrwt>
</event>
<event>
 4    1  0.2153371E-005  0.1041067E+04  0.7818608E-02  0.9264615E-01
         -2   -1    0    0    0  501 -0.00000000000E+00  0.00000000000E+00  0.22495181906E+03  0.22495181907E+03  0.25500000000E-02 0. -1.
          2   -1    0    0  501    0  0.00000000000E+00 -0.00000000000E+00 -0.12045035129E+04  0.12045035129E+04  0.25500000000E-02 0.  1.
    5000001    1    1    2    0    0  0.32090181784E+02  0.45155030685E+03 -0.73029316516E+03  0.87954509063E+03  0.18800000000E+03 0.  0.
   -5000001    1    1    2    0    0 -0.32090181784E+02 -0.45155030685E+03 -0.24925852864E+03  0.54991024129E+03  0.18800000000E+03 0.  0.
<mgrwt>
<rscale>  0 0.10410673E+04</rscale>
<asrwt>0</asrwt>
<pdfrwt beam="1">  1        2 0.17207193E+00 0.10410673E+04</pdfrwt>
<pdfrwt beam="2">  1       -2 0.32135975E-01 0.10410673E+04</pdfrwt>
<totfact> 0.19028024E+02</totfact>
</mgrwt>
</event>
<event>
 4    1  0.2153371E-005  0.4508838E+03  0.7818608E-02  0.1027459E+00
          2   -1    0    0  501    0  0.00000000000E+00  0.00000000000E+00  0.10901692004E+04  0.10901692004E+04  0.25500000000E-02 0.  1.
         -2   -1    0    0    0  501 -0.00000000000E+00 -0.00000000000E+00 -0.46620322369E+02  0.46620322439E+02  0.25500000000E-02 0. -1.
    5000001    1    1    2    0    0  0.20930024517E+02  0.62527100354E+02  0.25575791311E+03  0.32419718432E+03  0.18800000000E+03 0.  0.
   -5000001    1    1    2    0    0 -0.20930024517E+02 -0.62527100354E+02  0.78779096491E+03  0.81259233850E+03  0.18800000000E+03 0.  0.
<mgrwt>
<rscale>  0 0.45088375E+03</rscale>
<asrwt>0</asrwt>
<pdfrwt beam="1">  1        2 0.15573844E+00 0.45088375E+03</pdfrwt>
<pdfrwt beam="2">  1       -2 0.66600469E-02 0.45088375E+03</pdfrwt>
<totfact> 0.32630924E+03</totfact>
</mgrwt>
</event>
<event>
 4    1  0.2153371E-005  0.6087825E+03  0.7818608E-02  0.9887351E-01
         -2   -1    0    0    0  501 -0.00000000000E+00  0.00000000000E+00  0.11509444482E+03  0.11509444485E+03  0.25500000000E-02 0. -1.
          2   -1    0    0  501    0  0.00000000000E+00 -0.00000000000E+00 -0.80502603032E+03  0.80502603032E+03  0.25500000000E-02 0.  1.
    5000001    1    1    2    0    0 -0.10667653264E+03 -0.20080738607E+03 -0.23179617988E+03  0.37520255586E+03  0.18800000000E+03 0.  0.
   -5000001    1    1    2    0    0  0.10667653264E+03  0.20080738607E+03 -0.45813540561E+03  0.54491791932E+03  0.18800000000E+03 0.  0.
<mgrwt>
<rscale>  0 0.60878247E+03</rscale>
<asrwt>0</asrwt>
<pdfrwt beam="1">  1        2 0.11500372E+00 0.60878247E+03</pdfrwt>
<pdfrwt beam="2">  1       -2 0.16442064E-01 0.60878247E+03</pdfrwt>
<totfact> 0.11327092E+03</totfact>
</mgrwt>
</event>
<event>
 4    1  0.2153371E-005  0.6275790E+03  0.7818608E-02  0.9849785E-01
          2   -1    0    0  501    0  0.00000000000E+00  0.00000000000E+00  0.13970718113E+03  0.13970718116E+03  0.25500000000E-02 0.  1.
         -2   -1    0    0    0  501 -0.00000000000E+00 -0.00000000000E+00 -0.70478733661E+03  0.70478733661E+03  0.25500000000E-02 0. -1.
    5000001    1    1    2    0    0  0.18802836585E+03  0.10528926941E+03 -0.45632738747E+03  0.53853428969E+03  0.18800000000E+03 0.  0.
   -5000001    1    1    2    0    0 -0.18802836585E+03 -0.10528926941E+03 -0.10875276801E+03  0.30596022808E+03  0.18800000000E+03 0.  0.
<mgrwt>
<rscale>  0 0.62757901E+03</rscale>
<asrwt>0</asrwt>
<pdfrwt beam="1">  1        2 0.19958169E-01 0.62757901E+03</pdfrwt>
<pdfrwt beam="2">  1       -2 0.10068390E+00 0.62757901E+03</pdfrwt>
<totfact> 0.23414719E+02</totfact>
</mgrwt>
</event>
<event>
 4    1  0.2153371E-005  0.7954150E+03  0.7818608E-02  0.9566678E-01
         -2   -1    0    0    0  501 -0.00000000000E+00  0.00000000000E+00  0.18747750764E+03  0.18747750766E+03  0.25500000000E-02 0. -1.
          2   -1    0    0  501    0  0.00000000000E+00 -0.00000000000E+00 -0.84368120131E+03  0.84368120131E+03  0.25500000000E-02 0.  1.
    5000001    1    1    2    0    0  0.15933055724E+03  0.26051933041E+03 -0.55102878736E+03  0.65744450145E+03  0.18800000000E+03 0.  0.
   -5000001    1    1    2    0    0 -0.15933055724E+03 -0.26051933041E+03 -0.10517490631E+03  0.37371420752E+03  0.18800000000E+03 0.  0.
<mgrwt>
<rscale>  0 0.79541498E+03</rscale>
<asrwt>0</asrwt>
<pdfrwt beam="1">  1        2 0.12052588E+00 0.79541498E+03</pdfrwt>
<pdfrwt beam="2">  1       -2 0.26782501E-01 0.79541498E+03</pdfrwt>
<totfact> 0.44945418E+02</totfact>
</mgrwt>
</event>
<event>
 4    1  0.2153371E-005  0.4017804E+03  0.7818608E-02  0.1043165E+00
         -2   -1    0    0    0  501 -0.00000000000E+00  0.00000000000E+00  0.11909808312E+02  0.11909808585E+02  0.25500000000E-02 0. -1.
          2   -1    0    0  501    0  0.00000000000E+00 -0.00000000000E+00 -0.33885410116E+04  0.33885410116E+04  0.25500000000E-02 0.  1.
    5000001    1    1    2    0    0  0.69770280544E+02 -0.47487761093E+01 -0.17819626814E+04  0.17932165070E+04  0.18800000000E+03 0.  0.
   -5000001    1    1    2    0    0 -0.69770280544E+02  0.47487761093E+01 -0.15946685219E+04  0.16072343132E+04  0.18800000000E+03 0.  0.
<mgrwt>
<rscale>  0 0.40178041E+03</rscale>
<asrwt>0</asrwt>
<pdfrwt beam="1">  1        2 0.48407667E+00 0.40178041E+03</pdfrwt>
<pdfrwt beam="2">  1       -2 0.17014034E-02 0.40178041E+03</pdfrwt>
<totfact> 0.16405907E+03</totfact>
</mgrwt>
</event>
<event>
 4    1  0.2153371E-005  0.4651759E+03  0.7818608E-02  0.1023291E+00
         -2   -1    0    0    0  501 -0.00000000000E+00  0.00000000000E+00  0.16952117620E+03  0.16952117622E+03  0.25500000000E-02 0. -1.
          2   -1    0    0  501    0  0.00000000000E+00 -0.00000000000E+00 -0.31911743159E+03  0.31911743160E+03  0.25500000000E-02 0.  1.
    5000001    1    1    2    0    0 -0.39135010006E+01 -0.12036790972E+03 -0.63226579946E+01  0.22335560254E+03  0.18800000000E+03 0.  0.
   -5000001    1    1    2    0    0  0.39135010006E+01  0.12036790972E+03 -0.14327359739E+03  0.26528300528E+03  0.18800000000E+03 0.  0.
<mgrwt>
<rscale>  0 0.46517593E+03</rscale>
<asrwt>0</asrwt>
<pdfrwt beam="1">  1        2 0.45588204E-01 0.46517593E+03</pdfrwt>
<pdfrwt beam="2">  1       -2 0.24217311E-01 0.46517593E+03</pdfrwt>
<totfact> 0.16803979E+03</totfact>
</mgrwt>
</event>
<event>
 4    1  0.2153371E-005  0.8880754E+03  0.7818608E-02  0.9440612E-01
         -2   -1    0    0    0  501 -0.00000000000E+00  0.00000000000E+00  0.11286725831E+03  0.11286725834E+03  0.25500000000E-02 0. -1.
          2   -1    0    0  501    0  0.00000000000E+00 -0.00000000000E+00 -0.17469147567E+04  0.17469147567E+04  0.25500000000E-02 0.  1.
    5000001    1    1    2    0    0  0.27006371862E+03  0.17751941238E+03 -0.31539245340E+03  0.48914614743E+03  0.18800000000E+03 0.  0.
   -5000001    1    1    2    0    0 -0.27006371862E+03 -0.17751941238E+03 -0.13186550450E+04  0.13706358676E+04  0.18800000000E+03 0.  0.
<mgrwt>
<rscale>  0 0.88807540E+03</rscale>
<asrwt>0</asrwt>
<pdfrwt beam="1">  1        2 0.24955923E+00 0.88807540E+03</pdfrwt>
<pdfrwt beam="2">  1       -2 0.16123895E-01 0.88807540E+03</pdfrwt>
<totfact> 0.33801680E+02</totfact>
</mgrwt>
</event>
<event>
 4    1  0.2153371E-005  0.5036326E+03  0.7818608E-02  0.1012835E+00
          2   -1    0    0  501    0  0.00000000000E+00  0.00000000000E+00  0.15722099172E+03  0.15722099174E+03  0.25500000000E-02 0.  1.
         -2   -1    0    0    0  501 -0.00000000000E+00 -0.00000000000E+00 -0.40332683130E+03  0.40332683131E+03  0.25500000000E-02 0. -1.
    5000001    1    1    2    0    0  0.13854592141E+03  0.94039723291E+02 -0.12904691912E+03  0.28290554825E+03  0.18800000000E+03 0.  0.
   -5000001    1    1    2    0    0 -0.13854592141E+03 -0.94039723291E+02 -0.11705892047E+03  0.27764227480E+03  0.18800000000E+03 0.  0.
<mgrwt>
<rscale>  0 0.50363258E+03</rscale>
<asrwt>0</asrwt>
<pdfrwt beam="1">  1        2 0.22460142E-01 0.50363258E+03</pdfrwt>
<pdfrwt beam="2">  1       -2 0.57618118E-01 0.50363258E+03</pdfrwt>
<totfact> 0.70377951E+02</totfact>
</mgrwt>
</event>
<event>
 4    1  0.2153371E-005  0.6645547E+03  0.7818608E-02  0.9779845E-01
         -2   -1    0    0    0  501 -0.00000000000E+00  0.00000000000E+00  0.54852899023E+02  0.54852899082E+02  0.25500000000E-02 0.  1.
          2   -1    0    0  501    0  0.00000000000E+00 -0.00000000000E+00 -0.20128060300E+04  0.20128060300E+04  0.25500000000E-02 0. -1.
    5000001    1    1    2    0    0 -0.53121115345E+02  0.26860959692E+03 -0.94925100313E+03  0.10056810804E+04  0.18800000000E+03 0.  0.
   -5000001    1    1    2    0    0  0.53121115345E+02 -0.26860959692E+03 -0.10087021278E+04  0.10619778487E+04  0.18800000000E+03 0.  0.
<mgrwt>
<rscale>  0 0.66455473E+03</rscale>
<asrwt>0</asrwt>
<pdfrwt beam="1">  1        2 0.28754367E+00 0.66455473E+03</pdfrwt>
<pdfrwt beam="2">  1       -2 0.78361297E-02 0.66455473E+03</pdfrwt>
<totfact> 0.82388431E+02</totfact>
</mgrwt>
</event>
<event>
 4    1  0.2153371E-005  0.5015451E+03  0.7818608E-02  0.1013376E+00
         -2   -1    0    0    0  501 -0.00000000000E+00  0.00000000000E+00  0.54908125593E+02  0.54908125652E+02  0.25500000000E-02 0. -1.
          2   -1    0    0  501    0  0.00000000000E+00 -0.00000000000E+00 -0.11453110723E+04  0.11453110723E+04  0.25500000000E-02 0.  1.
    5000001    1    1    2    0    0  0.15011409983E+03 -0.32225235481E+02 -0.69598551678E+03  0.73709738050E+03  0.18800000000E+03 0.  0.
   -5000001    1    1    2    0    0 -0.15011409983E+03  0.32225235481E+02 -0.39441742990E+03  0.46312181743E+03  0.18800000000E+03 0.  0.
<mgrwt>
<rscale>  0 0.50154515E+03</rscale>
<asrwt>0</asrwt>
<pdfrwt beam="1">  1        2 0.16361585E+00 0.50154515E+03</pdfrwt>
<pdfrwt beam="2">  1       -2 0.78440187E-02 0.50154515E+03</pdfrwt>
<totfact> 0.23451110E+03</totfact>
</mgrwt>
</event>
<event>
 4    1  0.2153371E-005  0.7924559E+03  0.7818608E-02  0.9571002E-01
         -2   -1    0    0    0  501 -0.00000000000E+00  0.00000000000E+00  0.10163789688E+03  0.10163789692E+03  0.25500000000E-02 0. -1.
          2   -1    0    0  501    0  0.00000000000E+00 -0.00000000000E+00 -0.15446657049E+04  0.15446657049E+04  0.25500000000E-02 0.  1.
    5000001    1    1    2    0    0 -0.33188373997E+03  0.10724090663E+03 -0.72622603323E+03  0.82728210439E+03  0.18800000000E+03 0.  0.
   -5000001    1    1    2    0    0  0.33188373997E+03 -0.10724090663E+03 -0.71680177480E+03  0.81902149744E+03  0.18800000000E+03 0.  0.
<mgrwt>
<rscale>  0 0.79245586E+03</rscale>
<asrwt>0</asrwt>
<pdfrwt beam="1">  1        2 0.22066651E+00 0.79245586E+03</pdfrwt>
<pdfrwt beam="2">  1       -2 0.14519701E-01 0.79245586E+03</pdfrwt>
<totfact> 0.51661698E+02</totfact>
</mgrwt>
</event>
<event>
 4    1  0.2153371E-005  0.4612563E+03  0.7818608E-02  0.1024418E+00
         -2   -1    0    0    0  501 -0.00000000000E+00  0.00000000000E+00  0.24865804675E+02  0.24865804805E+02  0.25500000000E-02 0. -1.
          2   -1    0    0  501    0  0.00000000000E+00 -0.00000000000E+00 -0.21390553797E+04  0.21390553797E+04  0.25500000000E-02 0.  1.
    5000001    1    1    2    0    0  0.42005723937E+02 -0.11342729644E+03 -0.13231038779E+04  0.13418562158E+04  0.18800000000E+03 0.  0.
   -5000001    1    1    2    0    0 -0.42005723937E+02  0.11342729644E+03 -0.79108569713E+03  0.82206496862E+03  0.18800000000E+03 0.  0.
<mgrwt>
<rscale>  0 0.46125626E+03</rscale>
<asrwt>0</asrwt>
<pdfrwt beam="1">  1        2 0.30557922E+00 0.46125626E+03</pdfrwt>
<pdfrwt beam="2">  1       -2 0.35522592E-02 0.46125626E+03</pdfrwt>
<totfact> 0.24619728E+03</totfact>
</mgrwt>
</event>
<event>
 4    1  0.2153371E-005  0.5565137E+03  0.7818608E-02  0.9999974E-01
         -2   -1    0    0    0  501 -0.00000000000E+00  0.00000000000E+00  0.12939899070E+03  0.12939899073E+03  0.25500000000E-02 0. -1.
          2   -1    0    0  501    0  0.00000000000E+00 -0.00000000000E+00 -0.59835770082E+03  0.59835770083E+03  0.25500000000E-02 0.  1.
    5000001    1    1    2    0    0 -0.12568878018E+03  0.15548517252E+03 -0.17441625671E+03  0.32517432085E+03  0.18800000000E+03 0.  0.
   -5000001    1    1    2    0    0  0.12568878018E+03 -0.15548517252E+03 -0.29454245341E+03  0.40258237070E+03  0.18800000000E+03 0.  0.
<mgrwt>
<rscale>  0 0.55651373E+03</rscale>
<asrwt>0</asrwt>
<pdfrwt beam="1">  1        2 0.85479670E-01 0.55651373E+03</pdfrwt>
<pdfrwt beam="2">  1       -2 0.18485571E-01 0.55651373E+03</pdfrwt>
<totfact> 0.13328692E+03</totfact>
</mgrwt>
</event>
<event>
 4    1  0.2153371E-005  0.5210056E+03  0.7818608E-02  0.1008437E+00
         -2   -1    0    0    0  501 -0.00000000000E+00  0.00000000000E+00  0.11305475822E+03  0.11305475825E+03  0.25500000000E-02 0. -1.
          2   -1    0    0  501    0  0.00000000000E+00 -0.00000000000E+00 -0.60025513676E+03  0.60025513677E+03  0.25500000000E-02 0.  1.
    5000001    1    1    2    0    0  0.12802647438E+03  0.11641021403E+03 -0.31308240954E+03  0.40411225079E+03  0.18800000000E+03 0.  0.
   -5000001    1    1    2    0    0 -0.12802647438E+03 -0.11641021403E+03 -0.17411796899E+03  0.30919764423E+03  0.18800000000E+03 0.  0.
<mgrwt>
<rscale>  0 0.52100556E+03</rscale>
<asrwt>0</asrwt>
<pdfrwt beam="1">  1        2 0.85750732E-01 0.52100556E+03</pdfrwt>
<pdfrwt beam="2">  1       -2 0.16150680E-01 0.52100556E+03</pdfrwt>
<totfact> 0.16720864E+03</totfact>
</mgrwt>
</event>
<event>
 4    1  0.2153371E-005  0.5627077E+03  0.7818608E-02  0.9985947E-01
          2   -1    0    0  501    0  0.00000000000E+00  0.00000000000E+00  0.28970837739E+04  0.28970837740E+04  0.25500000000E-02 0.  1.
         -2   -1    0    0    0  501 -0.00000000000E+00 -0.00000000000E+00 -0.27324020168E+02  0.27324020287E+02  0.25500000000E-02 0. -1.
    5000001    1    1    2    0    0 -0.18283085950E+03 -0.25366201083E+02  0.92183526513E+03  0.95874648545E+03  0.18800000000E+03 0.  0.
   -5000001    1    1    2    0    0  0.18283085950E+03  0.25366201083E+02  0.19479244887E+04  0.19656613088E+04  0.18800000000E+03 0.  0.
<mgrwt>
<rscale>  0 0.56270765E+03</rscale>
<asrwt>0</asrwt>
<pdfrwt beam="1">  1        2 0.41386886E+00 0.56270765E+03</pdfrwt>
<pdfrwt beam="2">  1       -2 0.39034338E-02 0.56270765E+03</pdfrwt>
<totfact> 0.86484504E+02</totfact>
</mgrwt>
</event>
<event>
 4    1  0.2153371E-005  0.5106886E+03  0.7818608E-02  0.1011026E+00
         -2   -1    0    0    0  501 -0.00000000000E+00  0.00000000000E+00  0.16388931903E+03  0.16388931905E+03  0.25500000000E-02 0. -1.
          2   -1    0    0  501    0  0.00000000000E+00 -0.00000000000E+00 -0.39783381913E+03  0.39783381913E+03  0.25500000000E-02 0.  1.
    5000001    1    1    2    0    0 -0.65850459150E+02  0.15670177152E+03 -0.15114079985E+03  0.29509196795E+03  0.18800000000E+03 0.  0.
   -5000001    1    1    2    0    0  0.65850459150E+02 -0.15670177152E+03 -0.82803700244E+02  0.26663117024E+03  0.18800000000E+03 0.  0.
<mgrwt>
<rscale>  0 0.51068861E+03</rscale>
<asrwt>0</asrwt>
<pdfrwt beam="1">  1        2 0.56833402E-01 0.51068861E+03</pdfrwt>
<pdfrwt beam="2">  1       -2 0.23412760E-01 0.51068861E+03</pdfrwt>
<totfact> 0.14007921E+03</totfact>
</mgrwt>
</event>
<event>
 4    1  0.2153371E-005  0.1931861E+04  0.7818608E-02  0.8639157E-01
          2   -1    0    0  501    0  0.00000000000E+00  0.00000000000E+00  0.18420265114E+04  0.18420265114E+04  0.25500000000E-02 0.  1.
         -2   -1    0    0    0  501 -0.00000000000E+00 -0.00000000000E+00 -0.50651938037E+03  0.50651938037E+03  0.25500000000E-02 0. -1.
    5000001    1    1    2    0    0  0.75967008420E+03  0.29530851992E+03  0.12550370670E+04  0.15082333368E+04  0.18800000000E+03 0.  0.
   -5000001    1    1    2    0    0 -0.75967008420E+03 -0.29530851992E+03  0.80470064015E+02  0.84031255493E+03  0.18800000000E+03 0.  0.
<mgrwt>
<rscale>  0 0.19318614E+04</rscale>
<asrwt>0</asrwt>
<pdfrwt beam="1">  1        2 0.26314665E+00 0.19318614E+04</pdfrwt>
<pdfrwt beam="2">  1       -2 0.72359910E-01 0.19318614E+04</pdfrwt>
<totfact> 0.15684659E+01</totfact>
</mgrwt>
</event>
<event>
 4    1  0.2153371E-005  0.7139897E+03  0.7818608E-02  0.9693603E-01
         -2   -1    0    0    0  501 -0.00000000000E+00  0.00000000000E+00  0.11781550200E+03  0.11781550203E+03  0.25500000000E-02 0. -1.
          2   -1    0    0  501    0  0.00000000000E+00 -0.00000000000E+00 -0.10817365806E+04  0.10817365806E+04  0.25500000000E-02 0.  1.
    5000001    1    1    2    0    0 -0.23155873335E+03  0.16749254245E+03 -0.65352627335E+03  0.73764069080E+03  0.18800000000E+03 0.  0.
   -5000001    1    1    2    0    0  0.23155873335E+03 -0.16749254245E+03 -0.31039480522E+03  0.46191139180E+03  0.18800000000E+03 0.  0.
<mgrwt>
<rscale>  0 0.71398974E+03</rscale>
<asrwt>0</asrwt>
<pdfrwt beam="1">  1        2 0.15453379E+00 0.71398974E+03</pdfrwt>
<pdfrwt beam="2">  1       -2 0.16830787E-01 0.71398974E+03</pdfrwt>
<totfact> 0.72466489E+02</totfact>
</mgrwt>
</event>
<event>
 4    1  0.2153371E-005  0.7817596E+03  0.7818608E-02  0.9586801E-01
         -2   -1    0    0    0  501 -0.00000000000E+00  0.00000000000E+00  0.78132549435E+02  0.78132549477E+02  0.25500000000E-02 0. -1.
          2   -1    0    0  501    0  0.00000000000E+00 -0.00000000000E+00 -0.19554851098E+04  0.19554851098E+04  0.25500000000E-02 0.  1.
    5000001    1    1    2    0    0  0.26852963559E+03 -0.21213573032E+03 -0.89118474807E+03  0.97296659165E+03  0.18800000000E+03 0.  0.
   -5000001    1    1    2    0    0 -0.26852963559E+03  0.21213573032E+03 -0.98616781230E+03  0.10606510676E+04  0.18800000000E+03 0.  0.
<mgrwt>
<rscale>  0 0.78175965E+03</rscale>
<asrwt>0</asrwt>
<pdfrwt beam="1">  1        2 0.27935498E+00 0.78175965E+03</pdfrwt>
<pdfrwt beam="2">  1       -2 0.11161794E-01 0.78175965E+03</pdfrwt>
<totfact> 0.49321468E+02</totfact>
</mgrwt>
</event>
<event>
 4    1  0.2153371E-005  0.1363981E+04  0.7818608E-02  0.8980312E-01
          2   -1    0    0  501    0  0.00000000000E+00  0.00000000000E+00  0.60167913032E+03  0.60167913033E+03  0.25500000000E-02 0.  1.
         -2   -1    0    0    0  501 -0.00000000000E+00 -0.00000000000E+00 -0.77302121056E+03  0.77302121057E+03  0.25500000000E-02 0. -1.
    5000001    1    1    2    0    0  0.21982821467E+03 -0.18465056346E+03  0.50832192432E+03  0.61331513376E+03  0.18800000000E+03 0.  0.
   -5000001    1    1    2    0    0 -0.21982821467E+03  0.18465056346E+03 -0.67966400456E+03  0.76138520714E+03  0.18800000000E+03 0.  0.
<mgrwt>
<rscale>  0 0.13639805E+04</rscale>
<asrwt>0</asrwt>
<pdfrwt beam="1">  1        2 0.85954162E-01 0.13639805E+04</pdfrwt>
<pdfrwt beam="2">  1       -2 0.11043160E+00 0.13639805E+04</pdfrwt>
<totfact> 0.34399966E+01</totfact>
</mgrwt>
</event>
<event>
 4    1  0.2153371E-005  0.4308449E+03  0.7818608E-02  0.1033593E+00
          2   -1    0    0  501    0  0.00000000000E+00  0.00000000000E+00  0.76062585385E+03  0.76062585385E+03  0.25500000000E-02 0.  1.
         -2   -1    0    0    0  501 -0.00000000000E+00 -0.00000000000E+00 -0.61011371281E+02  0.61011371335E+02  0.25500000000E-02 0. -1.
    5000001    1    1    2    0    0 -0.71587907520E+02 -0.64812545990E+02  0.42929505619E+03  0.47850155683E+03  0.18800000000E+03 0.  0.
   -5000001    1    1    2    0    0  0.71587907520E+02  0.64812545990E+02  0.27031942637E+03  0.34313566835E+03  0.18800000000E+03 0.  0.
<mgrwt>
<rscale>  0 0.43084487E+03</rscale>
<asrwt>0</asrwt>
<pdfrwt beam="1">  1        2 0.10866082E+00 0.43084487E+03</pdfrwt>
<pdfrwt beam="2">  1       -2 0.87159113E-02 0.43084487E+03</pdfrwt>
<totfact> 0.34495398E+03</totfact>
</mgrwt>
</event>
<event>
 4    1  0.2153371E-005  0.4732318E+03  0.7818608E-02  0.1021012E+00
          2   -1    0    0  501    0  0.00000000000E+00  0.00000000000E+00  0.76553166994E+03  0.76553166995E+03  0.25500000000E-02 0.  1.
         -2   -1    0    0    0  501 -0.00000000000E+00 -0.00000000000E+00 -0.73134914474E+02  0.73134914518E+02  0.25500000000E-02 0. -1.
    5000001    1    1    2    0    0  0.99444020627E+02 -0.88760532594E+01  0.52930468566E+03  0.57050446784E+03  0.18800000000E+03 0.  0.
   -5000001    1    1    2    0    0 -0.99444020627E+02  0.88760532594E+01  0.16309206981E+03  0.26816211663E+03  0.18800000000E+03 0.  0.
<mgrwt>
<rscale>  0 0.47323184E+03</rscale>
<asrwt>0</asrwt>
<pdfrwt beam="1">  1        2 0.10936167E+00 0.47323184E+03</pdfrwt>
<pdfrwt beam="2">  1       -2 0.10447844E-01 0.47323184E+03</pdfrwt>
<totfact> 0.25607152E+03</totfact>
</mgrwt>
</event>
<event>
 4    1  0.2153371E-005  0.1081720E+04  0.7818608E-02  0.9223194E-01
         -2   -1    0    0    0  501 -0.00000000000E+00  0.00000000000E+00  0.16499668523E+03  0.16499668525E+03  0.25500000000E-02 0. -1.
          2   -1    0    0  501    0  0.00000000000E+00 -0.00000000000E+00 -0.17729412697E+04  0.17729412697E+04  0.25500000000E-02 0.  1.
    5000001    1    1    2    0    0 -0.22589785411E+03  0.21694311333E+03 -0.89396542905E+02  0.37607166444E+03  0.18800000000E+03 0.  0.
   -5000001    1    1    2    0    0  0.22589785411E+03 -0.21694311333E+03 -0.15185480416E+04  0.15618662905E+04  0.18800000000E+03 0.  0.
<mgrwt>
<rscale>  0 0.10817198E+04</rscale>
<asrwt>0</asrwt>
<pdfrwt beam="1">  1        2 0.25327731E+00 0.10817198E+04</pdfrwt>
<pdfrwt beam="2">  1       -2 0.23570956E-01 0.10817198E+04</pdfrwt>
<totfact> 0.16657133E+02</totfact>
</mgrwt>
</event>
<event>
 4    1  0.2153371E-005  0.6960321E+03  0.7818608E-02  0.9724042E-01
         -2   -1    0    0    0  501 -0.00000000000E+00  0.00000000000E+00  0.10025919066E+03  0.10025919069E+03  0.25500000000E-02 0. -1.
          2   -1    0    0  501    0  0.00000000000E+00 -0.00000000000E+00 -0.12080207425E+04  0.12080207425E+04  0.25500000000E-02 0.  1.
    5000001    1    1    2    0    0 -0.20683046285E+03  0.19674815120E+03 -0.43087644246E+03  0.54998834900E+03  0.18800000000E+03 0.  0.
   -5000001    1    1    2    0    0  0.20683046285E+03 -0.19674815120E+03 -0.67688510936E+03  0.75829158418E+03  0.18800000000E+03 0.  0.
<mgrwt>
<rscale>  0 0.69603213E+03</rscale>
<asrwt>0</asrwt>
<pdfrwt beam="1">  1        2 0.17257438E+00 0.69603213E+03</pdfrwt>
<pdfrwt beam="2">  1       -2 0.14322742E-01 0.69603213E+03</pdfrwt>
<totfact> 0.80645049E+02</totfact>
</mgrwt>
</event>
<event>
 4    1  0.2153371E-005  0.5807588E+03  0.7818608E-02  0.9946150E-01
          2   -1    0    0  501    0  0.00000000000E+00  0.00000000000E+00  0.11598316324E+04  0.11598316324E+04  0.25500000000E-02 0. -1.
         -2   -1    0    0    0  501 -0.00000000000E+00 -0.00000000000E+00 -0.72700383865E+02  0.72700383910E+02  0.25500000000E-02 0.  1.
    5000001    1    1    2    0    0  0.19638511002E+03 -0.99050946371E+02  0.59546405806E+03  0.66204202726E+03  0.18800000000E+03 0.  0.
   -5000001    1    1    2    0    0 -0.19638511002E+03  0.99050946371E+02  0.49166719045E+03  0.57048998902E+03  0.18800000000E+03 0.  0.
<mgrwt>
<rscale>  0 0.58075883E+03</rscale>
<asrwt>0</asrwt>
<pdfrwt beam="1">  1        2 0.16569024E+00 0.58075883E+03</pdfrwt>
<pdfrwt beam="2">  1       -2 0.10385769E-01 0.58075883E+03</pdfrwt>
<totfact> 0.14649325E+03</totfact>
</mgrwt>
</event>
<event>
 4    1  0.2153371E-005  0.5108460E+03  0.7818608E-02  0.1010986E+00
         -2   -1    0    0    0  501 -0.00000000000E+00  0.00000000000E+00  0.22244974484E+02  0.22244974630E+02  0.25500000000E-02 0. -1.
          2   -1    0    0  501    0  0.00000000000E+00 -0.00000000000E+00 -0.29328380737E+04  0.29328380737E+04  0.25500000000E-02 0.  1.
    5000001    1    1    2    0    0 -0.16370200715E+03  0.42033171513E+02 -0.16663997946E+04  0.16854665259E+04  0.18800000000E+03 0.  0.
   -5000001    1    1    2    0    0  0.16370200715E+03 -0.42033171513E+02 -0.12441933046E+04  0.12696165224E+04  0.18800000000E+03 0.  0.
<mgrwt>
<rscale>  0 0.51084600E+03</rscale>
<asrwt>0</asrwt>
<pdfrwt beam="1">  1        2 0.41897662E+00 0.51084600E+03</pdfrwt>
<pdfrwt beam="2">  1       -2 0.31778554E-02 0.51084600E+03</pdfrwt>
<totfact> 0.11375728E+03</totfact>
</mgrwt>
</event>
<event>
 4    1  0.2153371E-005  0.6733106E+03  0.7818608E-02  0.9763996E-01
         -2   -1    0    0    0  501 -0.00000000000E+00  0.00000000000E+00  0.29133157358E+03  0.29133157359E+03  0.25500000000E-02 0. -1.
          2   -1    0    0  501    0  0.00000000000E+00 -0.00000000000E+00 -0.38903027376E+03  0.38903027376E+03  0.25500000000E-02 0.  1.
    5000001    1    1    2    0    0 -0.25466828325E+03 -0.10304823781E+03 -0.99553806926E+02  0.34746198970E+03  0.18800000000E+03 0.  0.
   -5000001    1    1    2    0    0  0.25466828325E+03  0.10304823781E+03  0.18551067527E+01  0.33289985766E+03  0.18800000000E+03 0.  0.
<mgrwt>
<rscale>  0 0.67331063E+03</rscale>
<asrwt>0</asrwt>
<pdfrwt beam="1">  1        2 0.55575754E-01 0.67331063E+03</pdfrwt>
<pdfrwt beam="2">  1       -2 0.41618796E-01 0.67331063E+03</pdfrwt>
<totfact> 0.49147324E+02</totfact>
</mgrwt>
</event>
<event>
 4    1  0.2153371E-005  0.5043206E+03  0.7818608E-02  0.1012657E+00
          2   -1    0    0  501    0  0.00000000000E+00  0.00000000000E+00  0.52812333865E+03  0.52812333865E+03  0.25500000000E-02 0.  1.
         -2   -1    0    0    0  501 -0.00000000000E+00 -0.00000000000E+00 -0.12039767833E+03  0.12039767836E+03  0.25500000000E-02 0. -1.
    5000001    1    1    2    0    0  0.10537375132E+03 -0.12406275306E+03  0.15013573215E+03  0.29048224082E+03  0.18800000000E+03 0.  0.
   -5000001    1    1    2    0    0 -0.10537375132E+03  0.12406275306E+03  0.25758992817E+03  0.35803877619E+03  0.18800000000E+03 0.  0.
<mgrwt>
<rscale>  0 0.50432063E+03</rscale>
<asrwt>0</asrwt>
<pdfrwt beam="1">  1        2 0.75446190E-01 0.50432063E+03</pdfrwt>
<pdfrwt beam="2">  1       -2 0.17199669E-01 0.50432063E+03</pdfrwt>
<totfact> 0.17422169E+03</totfact>
</mgrwt>
</event>
<event>
 4    1  0.2153371E-005  0.4302578E+03  0.7818608E-02  0.1033779E+00
         -2   -1    0    0    0  501 -0.00000000000E+00  0.00000000000E+00  0.18525944563E+02  0.18525944739E+02  0.25500000000E-02 0. -1.
          2   -1    0    0  501    0  0.00000000000E+00 -0.00000000000E+00 -0.24981426255E+04  0.24981426255E+04  0.25500000000E-02 0.  1.
    5000001    1    1    2    0    0  0.96799290288E+01  0.80709798856E+02 -0.85497300481E+03  0.87916472382E+03  0.18800000000E+03 0.  0.
   -5000001    1    1    2    0    0 -0.96799290288E+01 -0.80709798856E+02 -0.16246436761E+04  0.16375038464E+04  0.18800000000E+03 0.  0.
<mgrwt>
<rscale>  0 0.43025784E+03</rscale>
<asrwt>0</asrwt>
<pdfrwt beam="1">  1        2 0.35687730E+00 0.43025784E+03</pdfrwt>
<pdfrwt beam="2">  1       -2 0.26465651E-02 0.43025784E+03</pdfrwt>
<totfact> 0.25397755E+03</totfact>
</mgrwt>
</event>
<event>
 4    1  0.2153371E-005  0.5621635E+03  0.7818608E-02  0.9987171E-01
          2   -1    0    0  501    0  0.00000000000E+00  0.00000000000E+00  0.16498987703E+04  0.16498987703E+04  0.25500000000E-02 0.  1.
         -2   -1    0    0    0  501 -0.00000000000E+00 -0.00000000000E+00 -0.47885941400E+02  0.47885941468E+02  0.25500000000E-02 0. -1.
    5000001    1    1    2    0    0 -0.19472382619E+03  0.75680342769E+02  0.78816725672E+03  0.83677745389E+03  0.18800000000E+03 0.  0.
   -5000001    1    1    2    0    0  0.19472382619E+03 -0.75680342769E+02  0.81384557214E+03  0.86100725785E+03  0.18800000000E+03 0.  0.
<mgrwt>
<rscale>  0 0.56216352E+03</rscale>
<asrwt>0</asrwt>
<pdfrwt beam="1">  1        2 0.23569987E+00 0.56216352E+03</pdfrwt>
<pdfrwt beam="2">  1       -2 0.68408474E-02 0.56216352E+03</pdfrwt>
<totfact> 0.15666160E+03</totfact>
</mgrwt>
</event>
<event>
 4    1  0.2153371E-005  0.5383207E+03  0.7818608E-02  0.1004234E+00
          2   -1    0    0  501    0  0.00000000000E+00  0.00000000000E+00  0.16234892085E+03  0.16234892087E+03  0.25500000000E-02 0. -1.
         -2   -1    0    0    0  501 -0.00000000000E+00 -0.00000000000E+00 -0.44624439247E+03  0.44624439247E+03  0.25500000000E-02 0.  1.
    5000001    1    1    2    0    0 -0.18572103531E+02 -0.18580804986E+03 -0.88515602636E+02  0.27937173503E+03  0.18800000000E+03 0.  0.
   -5000001    1    1    2    0    0  0.18572103531E+02  0.18580804986E+03 -0.19537986898E+03  0.32922157831E+03  0.18800000000E+03 0.  0.
<mgrwt>
<rscale>  0 0.53832071E+03</rscale>
<asrwt>0</asrwt>
<pdfrwt beam="1">  1        2 0.23192703E-01 0.53832071E+03</pdfrwt>
<pdfrwt beam="2">  1       -2 0.63749198E-01 0.53832071E+03</pdfrwt>
<totfact> 0.54827135E+02</totfact>
</mgrwt>
</event>
<event>
 4    1  0.2153371E-005  0.4361046E+03  0.7818608E-02  0.1031949E+00
         -2   -1    0    0    0  501 -0.00000000000E+00  0.00000000000E+00  0.16610331744E+02  0.16610331940E+02  0.25500000000E-02 0. -1.
          2   -1    0    0  501    0  0.00000000000E+00 -0.00000000000E+00 -0.28624839427E+04  0.28624839427E+04  0.25500000000E-02 0.  1.
    5000001    1    1    2    0    0 -0.10196228711E+03  0.27984053229E+02 -0.12117404508E+04  0.12307876889E+04  0.18800000000E+03 0.  0.
   -5000001    1    1    2    0    0  0.10196228711E+03 -0.27984053229E+02 -0.16341331602E+04  0.16483065857E+04  0.18800000000E+03 0.  0.
<mgrwt>
<rscale>  0 0.43610461E+03</rscale>
<asrwt>0</asrwt>
<pdfrwt beam="1">  1        2 0.40892596E+00 0.43610461E+03</pdfrwt>
<pdfrwt beam="2">  1       -2 0.23729064E-02 0.43610461E+03</pdfrwt>
<totfact> 0.19380703E+03</totfact>
</mgrwt>
</event>
<event>
 4    1  0.2153371E-005  0.4279728E+03  0.7818608E-02  0.1034502E+00
         -2   -1    0    0    0  501 -0.00000000000E+00  0.00000000000E+00  0.22247420446E+02  0.22247420592E+02  0.25500000000E-02 0. -1.
          2   -1    0    0  501    0  0.00000000000E+00 -0.00000000000E+00 -0.20582243483E+04  0.20582243483E+04  0.25500000000E-02 0.  1.
    5000001    1    1    2    0    0  0.34035266278E+02 -0.85148725415E+02 -0.79856044233E+03  0.82550074794E+03  0.18800000000E+03 0.  0.
   -5000001    1    1    2    0    0 -0.34035266278E+02  0.85148725415E+02 -0.12374164855E+04  0.12549710209E+04  0.18800000000E+03 0.  0.
<mgrwt>
<rscale>  0 0.42797282E+03</rscale>
<asrwt>0</asrwt>
<pdfrwt beam="1">  1        2 0.29403193E+00 0.42797282E+03</pdfrwt>
<pdfrwt beam="2">  1       -2 0.31782042E-02 0.42797282E+03</pdfrwt>
<totfact> 0.32002776E+03</totfact>
</mgrwt>
</event>
<event>
 4    1  0.2153371E-005  0.8124368E+03  0.7818608E-02  0.9542188E-01
          2   -1    0    0  501    0  0.00000000000E+00  0.00000000000E+00  0.23056050899E+04  0.23056050899E+04  0.25500000000E-02 0.  1.
         -2   -1    0    0    0  501 -0.00000000000E+00 -0.00000000000E+00 -0.71570532365E+02  0.71570532410E+02  0.25500000000E-02 0. -1.
    5000001    1    1    2    0    0  0.14180538549E+03 -0.32683625352E+03  0.12701409440E+04  0.13324911713E+04  0.18800000000E+03 0.  0.
   -5000001    1    1    2    0    0 -0.14180538549E+03  0.32683625352E+03  0.96389361348E+03  0.10446844510E+04  0.18800000000E+03 0.  0.
<mgrwt>
<rscale>  0 0.81243679E+03</rscale>
<asrwt>0</asrwt>
<pdfrwt beam="1">  1        2 0.32937218E+00 0.81243679E+03</pdfrwt>
<pdfrwt beam="2">  1       -2 0.10224361E-01 0.81243679E+03</pdfrwt>
<totfact> 0.37732450E+02</totfact>
</mgrwt>
</event>
<event>
 4    1  0.2153371E-005  0.1014169E+04  0.7818608E-02  0.9293139E-01
          2   -1    0    0  501    0  0.00000000000E+00  0.00000000000E+00  0.26805854966E+04  0.26805854966E+04  0.25500000000E-02 0.  1.
         -2   -1    0    0    0  501 -0.00000000000E+00 -0.00000000000E+00 -0.95924900362E+02  0.95924900396E+02  0.25500000000E-02 0. -1.
    5000001    1    1    2    0    0 -0.42731362697E+03  0.19516638074E+03  0.13832969348E+04  0.14729362721E+04  0.18800000000E+03 0.  0.
   -5000001    1    1    2    0    0  0.42731362697E+03 -0.19516638074E+03  0.12013636615E+04  0.13035741249E+04  0.18800000000E+03 0.  0.
<mgrwt>
<rscale>  0 0.10141694E+04</rscale>
<asrwt>0</asrwt>
<pdfrwt beam="1">  1        2 0.38294075E+00 0.10141694E+04</pdfrwt>
<pdfrwt beam="2">  1       -2 0.13703558E-01 0.10141694E+04</pdfrwt>
<totfact> 0.14591196E+02</totfact>
</mgrwt>
</event>
<event>
 4    1  0.2153371E-005  0.6029660E+03  0.7818608E-02  0.9899272E-01
         -2   -1    0    0    0  501 -0.00000000000E+00  0.00000000000E+00  0.58400728777E+02  0.58400728833E+02  0.25500000000E-02 0.  1.
          2   -1    0    0  501    0  0.00000000000E+00 -0.00000000000E+00 -0.15563506197E+04  0.15563506197E+04  0.25500000000E-02 0. -1.
    5000001    1    1    2    0    0  0.17340746323E+03  0.15466004446E+03 -0.85468469457E+03  0.90543901219E+03  0.18800000000E+03 0.  0.
   -5000001    1    1    2    0    0 -0.17340746323E+03 -0.15466004446E+03 -0.64326519637E+03  0.70931233636E+03  0.18800000000E+03 0.  0.
<mgrwt>
<rscale>  0 0.60296604E+03</rscale>
<asrwt>0</asrwt>
<pdfrwt beam="1">  1        2 0.22233578E+00 0.60296604E+03</pdfrwt>
<pdfrwt beam="2">  1       -2 0.83429622E-02 0.60296604E+03</pdfrwt>
<totfact> 0.12749632E+03</totfact>
</mgrwt>
</event>
<event>
 4    1  0.2153371E-005  0.4760265E+03  0.7818608E-02  0.1020233E+00
         -2   -1    0    0    0  501 -0.00000000000E+00  0.00000000000E+00  0.26462761808E+02  0.26462761931E+02  0.25500000000E-02 0. -1.
          2   -1    0    0  501    0  0.00000000000E+00 -0.00000000000E+00 -0.21407557505E+04  0.21407557505E+04  0.25500000000E-02 0.  1.
    5000001    1    1    2    0    0  0.10368087553E+03  0.10067682470E+03 -0.11505342979E+04  0.11747164414E+04  0.18800000000E+03 0.  0.
   -5000001    1    1    2    0    0 -0.10368087553E+03 -0.10067682470E+03 -0.96375869070E+03  0.99250207097E+03  0.18800000000E+03 0.  0.
<mgrwt>
<rscale>  0 0.47602651E+03</rscale>
<asrwt>0</asrwt>
<pdfrwt beam="1">  1        2 0.30582214E+00 0.47602651E+03</pdfrwt>
<pdfrwt beam="2">  1       -2 0.37803959E-02 0.47602651E+03</pdfrwt>
<totfact> 0.22336583E+03</totfact>
</mgrwt>
</event>
<event>
 4    1  0.2153371E-005  0.1103304E+04  0.7818608E-02  0.9201978E-01
          2   -1    0    0  501    0  0.00000000000E+00  0.00000000000E+00  0.60729097477E+03  0.60729097477E+03  0.25500000000E-02 0.  1.
         -2   -1    0    0    0  501 -0.00000000000E+00 -0.00000000000E+00 -0.50111019163E+03  0.50111019163E+03  0.25500000000E-02 0. -1.
    5000001    1    1    2    0    0  0.27003209301E+03  0.20620396006E+03  0.44674043190E+03  0.59191081920E+03  0.18800000000E+03 0.  0.
   -5000001    1    1    2    0    0 -0.27003209301E+03 -0.20620396006E+03 -0.34055964875E+03  0.51649034720E+03  0.18800000000E+03 0.  0.
<mgrwt>
<rscale>  0 0.11033036E+04</rscale>
<asrwt>0</asrwt>
<pdfrwt beam="1">  1        2 0.86755854E-01 0.11033036E+04</pdfrwt>
<pdfrwt beam="2">  1       -2 0.71587170E-01 0.11033036E+04</pdfrwt>
<totfact> 0.94066770E+01</totfact>
</mgrwt>
</event>
<event>
 4    1  0.2153371E-005  0.6686338E+03  0.7818608E-02  0.9772429E-01
          2   -1    0    0  501    0  0.00000000000E+00  0.00000000000E+00  0.30974916849E+03  0.30974916850E+03  0.25500000000E-02 0.  1.
         -2   -1    0    0    0  501 -0.00000000000E+00 -0.00000000000E+00 -0.36083316850E+03  0.36083316851E+03  0.25500000000E-02 0. -1.
    5000001    1    1    2    0    0 -0.86900307383E+02  0.18517678158E+03 -0.21204541791E+03  0.34949873121E+03  0.18800000000E+03 0.  0.
   -5000001    1    1    2    0    0  0.86900307383E+02 -0.18517678158E+03  0.16096141790E+03  0.32108360580E+03  0.18800000000E+03 0.  0.
<mgrwt>
<rscale>  0 0.66863375E+03</rscale>
<asrwt>0</asrwt>
<pdfrwt beam="1">  1        2 0.44249881E-01 0.66863375E+03</pdfrwt>
<pdfrwt beam="2">  1       -2 0.51547595E-01 0.66863375E+03</pdfrwt>
<totfact> 0.41255788E+02</totfact>
</mgrwt>
</event>
<event>
 4    1  0.2153371E-005  0.6601419E+03  0.7818608E-02  0.9787933E-01
          2   -1    0    0  501    0  0.00000000000E+00  0.00000000000E+00  0.44691373711E+02  0.44691373784E+02  0.25500000000E-02 0.  1.
         -2   -1    0    0    0  501 -0.00000000000E+00 -0.00000000000E+00 -0.24377599326E+04  0.24377599326E+04  0.25500000000E-02 0. -1.
    5000001    1    1    2    0    0  0.25681135903E+03 -0.55251792038E+02 -0.94154133039E+03  0.99541393977E+03  0.18800000000E+03 0.  0.
   -5000001    1    1    2    0    0 -0.25681135903E+03  0.55251792038E+02 -0.14515272285E+04  0.14870373667E+04  0.18800000000E+03 0.  0.
<mgrwt>
<rscale>  0 0.66014192E+03</rscale>
<asrwt>0</asrwt>
<pdfrwt beam="1">  1        2 0.63844835E-02 0.66014192E+03</pdfrwt>
<pdfrwt beam="2">  1       -2 0.34825134E+00 0.66014192E+03</pdfrwt>
<totfact> 0.20269788E+01</totfact>
</mgrwt>
</event>
<event>
 4    1  0.2153371E-005  0.5140208E+03  0.7818608E-02  0.1010183E+00
         -2   -1    0    0    0  501 -0.00000000000E+00  0.00000000000E+00  0.25510576227E+03  0.25510576228E+03  0.25500000000E-02 0. -1.
          2   -1    0    0  501    0  0.00000000000E+00 -0.00000000000E+00 -0.25892924321E+03  0.25892924322E+03  0.25500000000E-02 0.  1.
    5000001    1    1    2    0    0 -0.10344520030E+03 -0.88503200155E+02  0.10843901753E+03  0.25619669480E+03  0.18800000000E+03 0.  0.
   -5000001    1    1    2    0    0  0.10344520030E+03  0.88503200155E+02 -0.11226249847E+03  0.25783831070E+03  0.18800000000E+03 0.  0.
<mgrwt>
<rscale>  0 0.51402079E+03</rscale>
<asrwt>0</asrwt>
<pdfrwt beam="1">  1        2 0.36989892E-01 0.51402079E+03</pdfrwt>
<pdfrwt beam="2">  1       -2 0.36443680E-01 0.51402079E+03</pdfrwt>
<totfact> 0.99796836E+02</totfact>
</mgrwt>
</event>
<event>
 4    1  0.2153371E-005  0.4335581E+03  0.7818608E-02  0.1032742E+00
         -2   -1    0    0    0  501 -0.00000000000E+00  0.00000000000E+00  0.16087757377E+02  0.16087757579E+02  0.25500000000E-02 0. -1.
          2   -1    0    0  501    0  0.00000000000E+00 -0.00000000000E+00 -0.29210510003E+04  0.29210510003E+04  0.25500000000E-02 0.  1.
    5000001    1    1    2    0    0  0.92118623252E+02 -0.88031630973E+01 -0.10761569470E+04  0.10963672337E+04  0.18800000000E+03 0.  0.
   -5000001    1    1    2    0    0 -0.92118623252E+02  0.88031630973E+01 -0.18288062959E+04  0.18407715242E+04  0.18800000000E+03 0.  0.
<mgrwt>
<rscale>  0 0.43355812E+03</rscale>
<asrwt>0</asrwt>
<pdfrwt beam="1">  1        2 0.41729266E+00 0.43355812E+03</pdfrwt>
<pdfrwt beam="2">  1       -2 0.22982529E-02 0.43355812E+03</pdfrwt>
<totfact> 0.18931364E+03</totfact>
</mgrwt>
</event>
<event>
 4    1  0.2153371E-005  0.1142424E+04  0.7818608E-02  0.9164802E-01
         -2   -1    0    0    0  501 -0.00000000000E+00  0.00000000000E+00  0.16673164891E+03  0.16673164893E+03  0.25500000000E-02 0. -1.
          2   -1    0    0  501    0  0.00000000000E+00 -0.00000000000E+00 -0.19569351143E+04  0.19569351143E+04  0.25500000000E-02 0.  1.
    5000001    1    1    2    0    0  0.42228315140E+03 -0.21025176680E+03 -0.13813067317E+04  0.14716932943E+04  0.18800000000E+03 0.  0.
   -5000001    1    1    2    0    0 -0.42228315140E+03  0.21025176680E+03 -0.40889673371E+03  0.65197346897E+03  0.18800000000E+03 0.  0.
<mgrwt>
<rscale>  0 0.11424238E+04</rscale>
<asrwt>0</asrwt>
<pdfrwt beam="1">  1        2 0.27956215E+00 0.11424238E+04</pdfrwt>
<pdfrwt beam="2">  1       -2 0.23818808E-01 0.11424238E+04</pdfrwt>
<totfact> 0.13098663E+02</totfact>
</mgrwt>
</event>
<event>
 4    1  0.2153371E-005  0.4816850E+03  0.7818608E-02  0.1018673E+00
         -2   -1    0    0    0  501 -0.00000000000E+00  0.00000000000E+00  0.12353389414E+02  0.12353389677E+02  0.25500000000E-02 0. -1.
          2   -1    0    0  501    0  0.00000000000E+00 -0.00000000000E+00 -0.46954813083E+04  0.46954813083E+04  0.25500000000E-02 0.  1.
    5000001    1    1    2    0    0  0.32138726745E+02 -0.13514570231E+03 -0.17747031073E+04  0.17900313902E+04  0.18800000000E+03 0.  0.
   -5000001    1    1    2    0    0 -0.32138726745E+02  0.13514570231E+03 -0.29084248115E+04  0.29178033078E+04  0.18800000000E+03 0.  0.
<mgrwt>
<rscale>  0 0.48168500E+03</rscale>
<asrwt>0</asrwt>
<pdfrwt beam="1">  1        2 0.67078190E+00 0.48168500E+03</pdfrwt>
<pdfrwt beam="2">  1       -2 0.17647729E-02 0.48168500E+03</pdfrwt>
<totfact> 0.19892355E+02</totfact>
</mgrwt>
</event>
<event>
 4    1  0.2153371E-005  0.4793452E+03  0.7818608E-02  0.1019315E+00
          2   -1    0    0  501    0  0.00000000000E+00  0.00000000000E+00  0.11932029123E+04  0.11932029123E+04  0.25500000000E-02 0.  1.
         -2   -1    0    0    0  501 -0.00000000000E+00 -0.00000000000E+00 -0.48141807898E+02  0.48141807965E+02  0.25500000000E-02 0. -1.
    5000001    1    1    2    0    0  0.11281265861E+03 -0.10249354222E+02  0.32323281951E+03  0.39071114754E+03  0.18800000000E+03 0.  0.
   -5000001    1    1    2    0    0 -0.11281265861E+03  0.10249354222E+02  0.82182828491E+03  0.85063357274E+03  0.18800000000E+03 0.  0.
<mgrwt>
<rscale>  0 0.47934516E+03</rscale>
<asrwt>0</asrwt>
<pdfrwt beam="1">  1        2 0.17045755E+00 0.47934516E+03</pdfrwt>
<pdfrwt beam="2">  1       -2 0.68774014E-02 0.47934516E+03</pdfrwt>
<totfact> 0.27126571E+03</totfact>
</mgrwt>
</event>
<event>
 4    1  0.2153371E-005  0.9206573E+03  0.7818608E-02  0.9400121E-01
         -2   -1    0    0    0  501 -0.00000000000E+00  0.00000000000E+00  0.23221372386E+03  0.23221372388E+03  0.25500000000E-02 0. -1.
          2   -1    0    0  501    0  0.00000000000E+00 -0.00000000000E+00 -0.91253204474E+03  0.91253204474E+03  0.25500000000E-02 0.  1.
    5000001    1    1    2    0    0 -0.14292138822E+03  0.39377666478E+03 -0.38086755681E+03  0.59656573885E+03  0.18800000000E+03 0.  0.
   -5000001    1    1    2    0    0  0.14292138822E+03 -0.39377666478E+03 -0.29945076406E+03  0.54818002977E+03  0.18800000000E+03 0.  0.
<mgrwt>
<rscale>  0 0.92065730E+03</rscale>
<asrwt>0</asrwt>
<pdfrwt beam="1">  1        2 0.13036172E+00 0.92065730E+03</pdfrwt>
<pdfrwt beam="2">  1       -2 0.33173389E-01 0.92065730E+03</pdfrwt>
<totfact> 0.27058256E+02</totfact>
</mgrwt>
</event>
<event>
 4    1  0.2153371E-005  0.6583241E+03  0.7818608E-02  0.9791284E-01
          2   -1    0    0  501    0  0.00000000000E+00  0.00000000000E+00  0.21547226749E+04  0.21547226749E+04  0.25500000000E-02 0.  1.
         -2   -1    0    0    0  501 -0.00000000000E+00 -0.00000000000E+00 -0.50283799653E+02  0.50283799717E+02  0.25500000000E-02 0. -1.
    5000001    1    1    2    0    0 -0.26900021978E+03  0.23310228495E+02  0.10855724316E+04  0.11343350428E+04  0.18800000000E+03 0.  0.
   -5000001    1    1    2    0    0  0.26900021978E+03 -0.23310228495E+02  0.10188664436E+04  0.10706714318E+04  0.18800000000E+03 0.  0.
<mgrwt>
<rscale>  0 0.65832406E+03</rscale>
<asrwt>0</asrwt>
<pdfrwt beam="1">  1        2 0.30781761E+00 0.65832406E+03</pdfrwt>
<pdfrwt beam="2">  1       -2 0.71833981E-02 0.65832406E+03</pdfrwt>
<totfact> 0.80273305E+02</totfact>
</mgrwt>
</event>
<event>
 4    1  0.2153371E-005  0.5211706E+03  0.7818608E-02  0.1008396E+00
         -2   -1    0    0    0  501 -0.00000000000E+00  0.00000000000E+00  0.25828767567E+02  0.25828767692E+02  0.25500000000E-02 0. -1.
          2   -1    0    0  501    0  0.00000000000E+00 -0.00000000000E+00 -0.26290331301E+04  0.26290331301E+04  0.25500000000E-02 0.  1.
    5000001    1    1    2    0    0 -0.17128060659E+03 -0.52021448220E+02 -0.14174742777E+04  0.14410484396E+04  0.18800000000E+03 0.  0.
   -5000001    1    1    2    0    0  0.17128060659E+03  0.52021448220E+02 -0.11857300848E+04  0.12138134582E+04  0.18800000000E+03 0.  0.
<mgrwt>
<rscale>  0 0.52117055E+03</rscale>
<asrwt>0</asrwt>
<pdfrwt beam="1">  1        2 0.37557599E+00 0.52117055E+03</pdfrwt>
<pdfrwt beam="2">  1       -2 0.36898256E-02 0.52117055E+03</pdfrwt>
<totfact> 0.13082631E+03</totfact>
</mgrwt>
</event>
<event>
 4    1  0.2153371E-005  0.9118374E+03  0.7818608E-02  0.9410904E-01
          2   -1    0    0  501    0  0.00000000000E+00  0.00000000000E+00  0.62528655818E+03  0.62528655818E+03  0.25500000000E-02 0.  1.
         -2   -1    0    0    0  501 -0.00000000000E+00 -0.00000000000E+00 -0.33242656876E+03  0.33242656877E+03  0.25500000000E-02 0. -1.
    5000001    1    1    2    0    0 -0.40686626425E+03 -0.78239940365E+02  0.17716339863E+03  0.48825455970E+03  0.18800000000E+03 0.  0.
   -5000001    1    1    2    0    0  0.40686626425E+03  0.78239940365E+02  0.11569659078E+03  0.46945856725E+03  0.18800000000E+03 0.  0.
<mgrwt>
<rscale>  0 0.91183741E+03</rscale>
<asrwt>0</asrwt>
<pdfrwt beam="1">  1        2 0.89326652E-01 0.91183741E+03</pdfrwt>
<pdfrwt beam="2">  1       -2 0.47489509E-01 0.91183741E+03</pdfrwt>
<totfact> 0.21746363E+02</totfact>
</mgrwt>
</event>
<event>
 4    1  0.2153371E-005  0.4388361E+03  0.7818608E-02  0.1031105E+00
         -2   -1    0    0    0  501 -0.00000000000E+00  0.00000000000E+00  0.16210750230E+02  0.16210750431E+02  0.25500000000E-02 0. -1.
          2   -1    0    0  501    0  0.00000000000E+00 -0.00000000000E+00 -0.29698983301E+04  0.29698983301E+04  0.25500000000E-02 0.  1.
    5000001    1    1    2    0    0  0.11222495028E+03  0.12715455817E+02 -0.15220614723E+04  0.15377812744E+04  0.18800000000E+03 0.  0.
   -5000001    1    1    2    0    0 -0.11222495028E+03 -0.12715455817E+02 -0.14316261075E+04  0.14483278061E+04  0.18800000000E+03 0.  0.
<mgrwt>
<rscale>  0 0.43883610E+03</rscale>
<asrwt>0</asrwt>
<pdfrwt beam="1">  1        2 0.42427084E+00 0.43883610E+03</pdfrwt>
<pdfrwt beam="2">  1       -2 0.23158234E-02 0.43883610E+03</pdfrwt>
<totfact> 0.17617499E+03</totfact>
</mgrwt>
</event>
<event>
 4    1  0.2153371E-005  0.8699130E+03  0.7818608E-02  0.9463993E-01
         -2   -1    0    0    0  501 -0.00000000000E+00  0.00000000000E+00  0.19846639356E+03  0.19846639357E+03  0.25500000000E-02 0. -1.
          2   -1    0    0  501    0  0.00000000000E+00 -0.00000000000E+00 -0.95324534304E+03  0.95324534305E+03  0.25500000000E-02 0.  1.
    5000001    1    1    2    0    0 -0.14744680213E+03  0.24582105287E+03 -0.73183593946E+03  0.80814379400E+03  0.18800000000E+03 0.  0.
   -5000001    1    1    2    0    0  0.14744680213E+03 -0.24582105287E+03 -0.22943010029E+02  0.34356794263E+03  0.18800000000E+03 0.  0.
<mgrwt>
<rscale>  0 0.86991302E+03</rscale>
<asrwt>0</asrwt>
<pdfrwt beam="1">  1        2 0.13617790E+00 0.86991302E+03</pdfrwt>
<pdfrwt beam="2">  1       -2 0.28352342E-01 0.86991302E+03</pdfrwt>
<totfact> 0.34233205E+02</totfact>
</mgrwt>
</event>
<event>
 4    1  0.2153371E-005  0.1181762E+04  0.7818608E-02  0.9128972E-01
          2   -1    0    0  501    0  0.00000000000E+00  0.00000000000E+00  0.31051133483E+03  0.31051133484E+03  0.25500000000E-02 0.  1.
         -2   -1    0    0    0  501 -0.00000000000E+00 -0.00000000000E+00 -0.11244042999E+04  0.11244042999E+04  0.25500000000E-02 0. -1.
    5000001    1    1    2    0    0 -0.35231096158E+03  0.17779442930E+02  0.12142242994E+03  0.41776372357E+03  0.18800000000E+03 0.  0.
   -5000001    1    1    2    0    0  0.35231096158E+03 -0.17779442930E+02 -0.93531539502E+03  0.10171519112E+04  0.18800000000E+03 0.  0.
<mgrwt>
<rscale>  0 0.11817619E+04</rscale>
<asrwt>0</asrwt>
<pdfrwt beam="1">  1        2 0.44358763E-01 0.11817619E+04</pdfrwt>
<pdfrwt beam="2">  1       -2 0.16062918E+00 0.11817619E+04</pdfrwt>
<totfact> 0.28254412E+01</totfact>
</mgrwt>
</event>
<event>
 4    1  0.2153371E-005  0.4519940E+03  0.7818608E-02  0.1027129E+00
          2   -1    0    0  501    0  0.00000000000E+00  0.00000000000E+00  0.50014648635E+03  0.50014648636E+03  0.25500000000E-02 0.  1.
         -2   -1    0    0    0  501 -0.00000000000E+00 -0.00000000000E+00 -0.10211936797E+03  0.10211936801E+03  0.25500000000E-02 0. -1.
    5000001    1    1    2    0    0 -0.97428176319E+02 -0.16193637197E+02  0.30202054323E+03  0.36920846680E+03  0.18800000000E+03 0.  0.
   -5000001    1    1    2    0    0  0.97428176319E+02  0.16193637197E+02  0.96006575154E+02  0.23305738757E+03  0.18800000000E+03 0.  0.
<mgrwt>
<rscale>  0 0.45199400E+03</rscale>
<asrwt>0</asrwt>
<pdfrwt beam="1">  1        2 0.71449496E-01 0.45199400E+03</pdfrwt>
<pdfrwt beam="2">  1       -2 0.14588482E-01 0.45199400E+03</pdfrwt>
<totfact> 0.24437970E+03</totfact>
</mgrwt>
</event>
<event>
 4    1  0.2153371E-005  0.6878587E+03  0.7818608E-02  0.9738224E-01
          2   -1    0    0  501    0  0.00000000000E+00  0.00000000000E+00  0.22594578131E+04  0.22594578131E+04  0.25500000000E-02 0.  1.
         -2   -1    0    0    0  501 -0.00000000000E+00 -0.00000000000E+00 -0.52352112440E+02  0.52352112502E+02  0.25500000000E-02 0. -1.
    5000001    1    1    2    0    0  0.34214160168E+02  0.26394415301E+03  0.73376044226E+03  0.80286082934E+03  0.18800000000E+03 0.  0.
   -5000001    1    1    2    0    0 -0.34214160168E+02 -0.26394415301E+03  0.14733452584E+04  0.15089490963E+04  0.18800000000E+03 0.  0.
<mgrwt>
<rscale>  0 0.68785868E+03</rscale>
<asrwt>0</asrwt>
<pdfrwt beam="1">  1        2 0.32277979E+00 0.68785868E+03</pdfrwt>
<pdfrwt beam="2">  1       -2 0.74788708E-02 0.68785868E+03</pdfrwt>
<totfact> 0.66514973E+02</totfact>
</mgrwt>
</event>
<event>
 4    1  0.2153371E-005  0.5682334E+03  0.7818608E-02  0.9973596E-01
         -2   -1    0    0    0  501 -0.00000000000E+00  0.00000000000E+00  0.88679720541E+02  0.88679720578E+02  0.25500000000E-02 0. -1.
          2   -1    0    0  501    0  0.00000000000E+00 -0.00000000000E+00 -0.91026775306E+03  0.91026775306E+03  0.25500000000E-02 0.  1.
    5000001    1    1    2    0    0 -0.12695817164E+03  0.16962856262E+03 -0.44955210650E+03  0.53135047103E+03  0.18800000000E+03 0.  0.
   -5000001    1    1    2    0    0  0.12695817164E+03 -0.16962856262E+03 -0.37203592602E+03  0.46759700262E+03  0.18800000000E+03 0.  0.
<mgrwt>
<rscale>  0 0.56823337E+03</rscale>
<asrwt>0</asrwt>
<pdfrwt beam="1">  1        2 0.13003824E+00 0.56823337E+03</pdfrwt>
<pdfrwt beam="2">  1       -2 0.12668532E-01 0.56823337E+03</pdfrwt>
<totfact> 0.14937319E+03</totfact>
</mgrwt>
</event>
<event>
 4    1  0.2153371E-005  0.6448678E+03  0.7818608E-02  0.9816457E-01
         -2   -1    0    0    0  501 -0.00000000000E+00  0.00000000000E+00  0.17712747214E+03  0.17712747216E+03  0.25500000000E-02 0. -1.
          2   -1    0    0  501    0  0.00000000000E+00 -0.00000000000E+00 -0.58694236305E+03  0.58694236305E+03  0.25500000000E-02 0.  1.
    5000001    1    1    2    0    0  0.23448474033E+03 -0.19976411597E+01 -0.66566529127E+02  0.30783467449E+03  0.18800000000E+03 0.  0.
   -5000001    1    1    2    0    0 -0.23448474033E+03  0.19976411597E+01 -0.34324836178E+03  0.45623516072E+03  0.18800000000E+03 0.  0.
<mgrwt>
<rscale>  0 0.64486779E+03</rscale>
<asrwt>0</asrwt>
<pdfrwt beam="1">  1        2 0.83848908E-01 0.64486779E+03</pdfrwt>
<pdfrwt beam="2">  1       -2 0.25303925E-01 0.64486779E+03</pdfrwt>
<totfact> 0.78361183E+02</totfact>
</mgrwt>
</event>
<event>
 4    1  0.2153371E-005  0.5696871E+03  0.7818608E-02  0.9970371E-01
          2   -1    0    0  501    0  0.00000000000E+00  0.00000000000E+00  0.60101081986E+04  0.60101081986E+04  0.25500000000E-02 0.  1.
         -2   -1    0    0    0  501 -0.00000000000E+00 -0.00000000000E+00 -0.13499899089E+02  0.13499899329E+02  0.25500000000E-02 0. -1.
    5000001    1    1    2    0    0 -0.18936613133E+03 -0.86888371769E+02  0.24821753508E+04  0.24979887096E+04  0.18800000000E+03 0.  0.
   -5000001    1    1    2    0    0  0.18936613133E+03  0.86888371769E+02  0.35144329486E+04  0.35256193883E+04  0.18800000000E+03 0.  0.
<mgrwt>
<rscale>  0 0.56968712E+03</rscale>
<asrwt>0</asrwt>
<pdfrwt beam="1">  1        2 0.85858710E+00 0.56968712E+03</pdfrwt>
<pdfrwt beam="2">  1       -2 0.19285565E-02 0.56968712E+03</pdfrwt>
<totfact> 0.48607170E+00</totfact>
</mgrwt>
</event>
<event>
 4    1  0.2153371E-005  0.4672700E+03  0.7818608E-02  0.1022694E+00
         -2   -1    0    0    0  501 -0.00000000000E+00  0.00000000000E+00  0.81031194954E+02  0.81031194994E+02  0.25500000000E-02 0. -1.
          2   -1    0    0  501    0  0.00000000000E+00 -0.00000000000E+00 -0.67363321304E+03  0.67363321305E+03  0.25500000000E-02 0.  1.
    5000001    1    1    2    0    0  0.11635932048E+03 -0.33989853134E+02 -0.18740179908E+03  0.29181884085E+03  0.18800000000E+03 0.  0.
   -5000001    1    1    2    0    0 -0.11635932048E+03  0.33989853134E+02 -0.40520021901E+03  0.46284556719E+03  0.18800000000E+03 0.  0.
<mgrwt>
<rscale>  0 0.46726996E+03</rscale>
<asrwt>0</asrwt>
<pdfrwt beam="1">  1        2 0.96233313E-01 0.46726996E+03</pdfrwt>
<pdfrwt beam="2">  1       -2 0.11575885E-01 0.46726996E+03</pdfrwt>
<totfact> 0.25345248E+03</totfact>
</mgrwt>
</event>
<event>
 4    1  0.2153371E-005  0.4343448E+03  0.7818608E-02  0.1032496E+00
          2   -1    0    0  501    0  0.00000000000E+00  0.00000000000E+00  0.97970022298E+03  0.97970022298E+03  0.25500000000E-02 0.  1.
         -2   -1    0    0    0  501 -0.00000000000E+00 -0.00000000000E+00 -0.48141114504E+02  0.48141114571E+02  0.25500000000E-02 0. -1.
    5000001    1    1    2    0    0 -0.30370729896E+02  0.61111765515E+02  0.66605780012E+03  0.69543800746E+03  0.18800000000E+03 0.  0.
   -5000001    1    1    2    0    0  0.30370729896E+02 -0.61111765515E+02  0.26550130835E+03  0.33240333009E+03  0.18800000000E+03 0.  0.
<mgrwt>
<rscale>  0 0.43434484E+03</rscale>
<asrwt>0</asrwt>
<pdfrwt beam="1">  1        2 0.13995716E+00 0.43434484E+03</pdfrwt>
<pdfrwt beam="2">  1       -2 0.68773029E-02 0.43434484E+03</pdfrwt>
<totfact> 0.36069512E+03</totfact>
</mgrwt>
</event>
<event>
 4    1  0.2153371E-005  0.4646714E+03  0.7818608E-02  0.1023435E+00
         -2   -1    0    0    0  501 -0.00000000000E+00  0.00000000000E+00  0.26444981577E+02  0.26444981700E+02  0.25500000000E-02 0. -1.
          2   -1    0    0  501    0  0.00000000000E+00 -0.00000000000E+00 -0.20412145775E+04  0.20412145775E+04  0.25500000000E-02 0.  1.
    5000001    1    1    2    0    0 -0.13256903770E+03  0.27679799613E+02 -0.93093743145E+03  0.95933790832E+03  0.18800000000E+03 0.  0.
   -5000001    1    1    2    0    0  0.13256903770E+03 -0.27679799613E+02 -0.10838321644E+04  0.11083216508E+04  0.18800000000E+03 0.  0.
<mgrwt>
<rscale>  0 0.46467142E+03</rscale>
<asrwt>0</asrwt>
<pdfrwt beam="1">  1        2 0.29160198E+00 0.46467142E+03</pdfrwt>
<pdfrwt beam="2">  1       -2 0.37778558E-02 0.46467142E+03</pdfrwt>
<totfact> 0.25075341E+03</totfact>
</mgrwt>
</event>
<event>
 4    1  0.2153371E-005  0.7283449E+03  0.7818608E-02  0.9669950E-01
          2   -1    0    0  501    0  0.00000000000E+00  0.00000000000E+00  0.21587823419E+03  0.21587823420E+03  0.25500000000E-02 0.  1.
         -2   -1    0    0    0  501 -0.00000000000E+00 -0.00000000000E+00 -0.61433507679E+03  0.61433507679E+03  0.25500000000E-02 0. -1.
    5000001    1    1    2    0    0 -0.10745489277E+03 -0.63536723400E+02  0.12656924132E+03  0.25874165116E+03  0.18800000000E+03 0.  0.
   -5000001    1    1    2    0    0  0.10745489277E+03  0.63536723400E+02 -0.52502608391E+03  0.57147165983E+03  0.18800000000E+03 0.  0.
<mgrwt>
<rscale>  0 0.72834490E+03</rscale>
<asrwt>0</asrwt>
<pdfrwt beam="1">  1        2 0.30839748E-01 0.72834490E+03</pdfrwt>
<pdfrwt beam="2">  1       -2 0.87762153E-01 0.72834490E+03</pdfrwt>
<totfact> 0.19494032E+02</totfact>
</mgrwt>
</event>
<event>
 4    1  0.2153371E-005  0.6061992E+03  0.7818608E-02  0.9892627E-01
          2   -1    0    0  501    0  0.00000000000E+00  0.00000000000E+00  0.15887793202E+04  0.15887793202E+04  0.25500000000E-02 0. -1.
         -2   -1    0    0    0  501 -0.00000000000E+00 -0.00000000000E+00 -0.57823877450E+02  0.57823877506E+02  0.25500000000E-02 0.  1.
    5000001    1    1    2    0    0 -0.62004184180E+02  0.18549864019E+03  0.39831709142E+03  0.48192817897E+03  0.18800000000E+03 0.  0.
   -5000001    1    1    2    0    0  0.62004184180E+02 -0.18549864019E+03  0.11326383513E+04  0.11646750187E+04  0.18800000000E+03 0.  0.
<mgrwt>
<rscale>  0 0.60619924E+03</rscale>
<asrwt>0</asrwt>
<pdfrwt beam="1">  1        2 0.22696847E+00 0.60619924E+03</pdfrwt>
<pdfrwt beam="2">  1       -2 0.82605541E-02 0.60619924E+03</pdfrwt>
<totfact> 0.12462433E+03</totfact>
</mgrwt>
</event>
<event>
 4    1  0.2153371E-005  0.5578509E+03  0.7818608E-02  0.9996929E-01
          2   -1    0    0  501    0  0.00000000000E+00  0.00000000000E+00  0.20007094445E+04  0.20007094445E+04  0.25500000000E-02 0.  1.
         -2   -1    0    0    0  501 -0.00000000000E+00 -0.00000000000E+00 -0.38885915574E+02  0.38885915657E+02  0.25500000000E-02 0. -1.
    5000001    1    1    2    0    0  0.88147036594E+02  0.18623774681E+03  0.98460474131E+03  0.10233498400E+04  0.18800000000E+03 0.  0.
   -5000001    1    1    2    0    0 -0.88147036594E+02 -0.18623774681E+03  0.97721878766E+03  0.10162455202E+04  0.18800000000E+03 0.  0.
<mgrwt>
<rscale>  0 0.55785094E+03</rscale>
<asrwt>0</asrwt>
<pdfrwt beam="1">  1        2 0.28581565E+00 0.55785094E+03</pdfrwt>
<pdfrwt beam="2">  1       -2 0.55551304E-02 0.55785094E+03</pdfrwt>
<totfact> 0.14450348E+03</totfact>
</mgrwt>
</event>
<event>
 4    1  0.2153371E-005  0.5860610E+03  0.7818608E-02  0.9934755E-01
         -2   -1    0    0    0  501 -0.00000000000E+00  0.00000000000E+00  0.65576264828E+03  0.65576264829E+03  0.25500000000E-02 0. -1.
          2   -1    0    0  501    0  0.00000000000E+00 -0.00000000000E+00 -0.13094199950E+03  0.13094199952E+03  0.25500000000E-02 0.  1.
    5000001    1    1    2    0    0  0.19621761904E+03  0.71228303880E+02  0.37430264326E+03  0.46799710902E+03  0.18800000000E+03 0.  0.
   -5000001    1    1    2    0    0 -0.19621761904E+03 -0.71228303880E+02  0.15051800553E+03  0.31870753879E+03  0.18800000000E+03 0.  0.
<mgrwt>
<rscale>  0 0.58606099E+03</rscale>
<asrwt>0</asrwt>
<pdfrwt beam="1">  1        2 0.18706000E-01 0.58606099E+03</pdfrwt>
<pdfrwt beam="2">  1       -2 0.93680380E-01 0.58606099E+03</pdfrwt>
<totfact> 0.29944526E+02</totfact>
</mgrwt>
</event>
<event>
 4    1  0.2153371E-005  0.5135968E+03  0.7818608E-02  0.1010290E+00
         -2   -1    0    0    0  501 -0.00000000000E+00  0.00000000000E+00  0.37223396326E+02  0.37223396413E+02  0.25500000000E-02 0. -1.
          2   -1    0    0  501    0  0.00000000000E+00 -0.00000000000E+00 -0.17716124016E+04  0.17716124016E+04  0.25500000000E-02 0.  1.
    5000001    1    1    2    0    0 -0.14738055703E+03  0.28239888564E+02 -0.11838307909E+04  0.12080222934E+04  0.18800000000E+03 0.  0.
   -5000001    1    1    2    0    0  0.14738055703E+03 -0.28239888564E+02 -0.55055821437E+03  0.60081350460E+03  0.18800000000E+03 0.  0.
<mgrwt>
<rscale>  0 0.51359685E+03</rscale>
<asrwt>0</asrwt>
<pdfrwt beam="1">  1        2 0.25308743E+00 0.51359685E+03</pdfrwt>
<pdfrwt beam="2">  1       -2 0.53176292E-02 0.51359685E+03</pdfrwt>
<totfact> 0.20185745E+03</totfact>
</mgrwt>
</event>
<event>
 4    1  0.2153371E-005  0.6185514E+03  0.7818608E-02  0.9867648E-01
          2   -1    0    0  501    0  0.00000000000E+00  0.00000000000E+00  0.19768577881E+04  0.19768577881E+04  0.25500000000E-02 0.  1.
         -2   -1    0    0    0  501 -0.00000000000E+00 -0.00000000000E+00 -0.48385604594E+02  0.48385604662E+02  0.25500000000E-02 0. -1.
    5000001    1    1    2    0    0  0.60321275891E+01  0.24491928205E+03  0.90890181201E+03  0.95993142732E+03  0.18800000000E+03 0.  0.
   -5000001    1    1    2    0    0 -0.60321275891E+01 -0.24491928205E+03  0.10195703715E+04  0.10653119654E+04  0.18800000000E+03 0.  0.
<mgrwt>
<rscale>  0 0.61855140E+03</rscale>
<asrwt>0</asrwt>
<pdfrwt beam="1">  1        2 0.28240815E+00 0.61855140E+03</pdfrwt>
<pdfrwt beam="2">  1       -2 0.69122319E-02 0.61855140E+03</pdfrwt>
<totfact> 0.10509731E+03</totfact>
</mgrwt>
</event>
<event>
 4    1  0.2153371E-005  0.9987820E+03  0.7818608E-02  0.9309882E-01
         -2   -1    0    0    0  501 -0.00000000000E+00  0.00000000000E+00  0.13995263364E+03  0.13995263366E+03  0.25500000000E-02 0. -1.
          2   -1    0    0  501    0  0.00000000000E+00 -0.00000000000E+00 -0.17819699761E+04  0.17819699761E+04  0.25500000000E-02 0.  1.
    5000001    1    1    2    0    0 -0.36895712647E+03  0.18203981521E+03 -0.41381130094E+03  0.61306740925E+03  0.18800000000E+03 0.  0.
   -5000001    1    1    2    0    0  0.36895712647E+03 -0.18203981521E+03 -0.12282060416E+04  0.13088552006E+04  0.18800000000E+03 0.  0.
<mgrwt>
<rscale>  0 0.99878204E+03</rscale>
<asrwt>0</asrwt>
<pdfrwt beam="1">  1        2 0.25456713E+00 0.99878204E+03</pdfrwt>
<pdfrwt beam="2">  1       -2 0.19993234E-01 0.99878204E+03</pdfrwt>
<totfact> 0.22193314E+02</totfact>
</mgrwt>
</event>
<event>
 4    1  0.2153371E-005  0.4964289E+03  0.7818608E-02  0.1014715E+00
          2   -1    0    0  501    0  0.00000000000E+00  0.00000000000E+00  0.10955979213E+03  0.10955979216E+03  0.25500000000E-02 0.  1.
         -2   -1    0    0    0  501 -0.00000000000E+00 -0.00000000000E+00 -0.56234500971E+03  0.56234500972E+03  0.25500000000E-02 0. -1.
    5000001    1    1    2    0    0  0.63895751618E+02 -0.49828220365E+02 -0.36418865225E+02  0.20793232640E+03  0.18800000000E+03 0.  0.
   -5000001    1    1    2    0    0 -0.63895751618E+02  0.49828220365E+02 -0.41636635236E+03  0.46397247547E+03  0.18800000000E+03 0.  0.
<mgrwt>
<rscale>  0 0.49642886E+03</rscale>
<asrwt>0</asrwt>
<pdfrwt beam="1">  1        2 0.15651399E-01 0.49642886E+03</pdfrwt>
<pdfrwt beam="2">  1       -2 0.80335000E-01 0.49642886E+03</pdfrwt>
<totfact> 0.52583968E+02</totfact>
</mgrwt>
</event>
<event>
 4    1  0.2153371E-005  0.5120567E+03  0.7818608E-02  0.1010679E+00
         -2   -1    0    0    0  501 -0.00000000000E+00  0.00000000000E+00  0.14267679940E+03  0.14267679943E+03  0.25500000000E-02 0. -1.
          2   -1    0    0  501    0  0.00000000000E+00 -0.00000000000E+00 -0.45943361841E+03  0.45943361842E+03  0.25500000000E-02 0.  1.
    5000001    1    1    2    0    0 -0.15539646761E+03 -0.13534179798E+02 -0.68247772305E+02  0.25363949730E+03  0.18800000000E+03 0.  0.
   -5000001    1    1    2    0    0  0.15539646761E+03  0.13534179798E+02 -0.24850904671E+03  0.34847092054E+03  0.18800000000E+03 0.  0.
<mgrwt>
<rscale>  0 0.51205671E+03</rscale>
<asrwt>0</asrwt>
<pdfrwt beam="1">  1        2 0.65633373E-01 0.51205671E+03</pdfrwt>
<pdfrwt beam="2">  1       -2 0.20382400E-01 0.51205671E+03</pdfrwt>
<totfact> 0.15226129E+03</totfact>
</mgrwt>
</event>
<event>
 4    1  0.2153371E-005  0.4983253E+03  0.7818608E-02  0.1014217E+00
         -2   -1    0    0    0  501 -0.00000000000E+00  0.00000000000E+00  0.38480476850E+02  0.38480476934E+02  0.25500000000E-02 0. -1.
          2   -1    0    0  501    0  0.00000000000E+00 -0.00000000000E+00 -0.16133379731E+04  0.16133379731E+04  0.25500000000E-02 0.  1.
    5000001    1    1    2    0    0  0.16171582729E+03  0.17155326157E+02 -0.84404199536E+03  0.87988476742E+03  0.18800000000E+03 0.  0.
   -5000001    1    1    2    0    0 -0.16171582729E+03 -0.17155326157E+02 -0.73081550092E+03  0.77193368265E+03  0.18800000000E+03 0.  0.
<mgrwt>
<rscale>  0 0.49832525E+03</rscale>
<asrwt>0</asrwt>
<pdfrwt beam="1">  1        2 0.23047681E+00 0.49832525E+03</pdfrwt>
<pdfrwt beam="2">  1       -2 0.54972120E-02 0.49832525E+03</pdfrwt>
<totfact> 0.23064612E+03</totfact>
</mgrwt>
</event>
<event>
 4    1  0.2153371E-005  0.1028723E+04  0.7818608E-02  0.9277591E-01
          2   -1    0    0  501    0  0.00000000000E+00  0.00000000000E+00  0.13453029109E+04  0.13453029109E+04  0.25500000000E-02 0.  1.
         -2   -1    0    0    0  501 -0.00000000000E+00 -0.00000000000E+00 -0.19666034222E+03  0.19666034224E+03  0.25500000000E-02 0. -1.
    5000001    1    1    2    0    0 -0.34661035984E+03  0.10423574345E+03  0.10456204141E+03  0.42104756533E+03  0.18800000000E+03 0.  0.
   -5000001    1    1    2    0    0  0.34661035984E+03 -0.10423574345E+03  0.10440805272E+04  0.11209156878E+04  0.18800000000E+03 0.  0.
<mgrwt>
<rscale>  0 0.10287230E+04</rscale>
<asrwt>0</asrwt>
<pdfrwt beam="1">  1        2 0.19218614E+00 0.10287230E+04</pdfrwt>
<pdfrwt beam="2">  1       -2 0.28094334E-01 0.10287230E+04</pdfrwt>
<totfact> 0.20414701E+02</totfact>
</mgrwt>
</event>
<event>
 4    1  0.2153371E-005  0.5139927E+03  0.7818608E-02  0.1010190E+00
         -2   -1    0    0    0  501 -0.00000000000E+00  0.00000000000E+00  0.30116820781E+02  0.30116820889E+02  0.25500000000E-02 0. -1.
          2   -1    0    0  501    0  0.00000000000E+00 -0.00000000000E+00 -0.21930310971E+04  0.21930310971E+04  0.25500000000E-02 0.  1.
    5000001    1    1    2    0    0  0.27627746752E+00 -0.97483494413E+02 -0.17112235687E+04  0.17242775908E+04  0.18800000000E+03 0.  0.
   -5000001    1    1    2    0    0 -0.27627746752E+00  0.97483494413E+02 -0.45169070759E+03  0.49887032717E+03  0.18800000000E+03 0.  0.
<mgrwt>
<rscale>  0 0.51399270E+03</rscale>
<asrwt>0</asrwt>
<pdfrwt beam="1">  1        2 0.31329006E+00 0.51399270E+03</pdfrwt>
<pdfrwt beam="2">  1       -2 0.43024044E-02 0.51399270E+03</pdfrwt>
<totfact> 0.17224711E+03</totfact>
</mgrwt>
</event>
<event>
 4    1  0.2153371E-005  0.7316681E+03  0.7818608E-02  0.9664557E-01
          2   -1    0    0  501    0  0.00000000000E+00  0.00000000000E+00  0.38832126012E+03  0.38832126013E+03  0.25500000000E-02 0.  1.
         -2   -1    0    0    0  501 -0.00000000000E+00 -0.00000000000E+00 -0.34464901929E+03  0.34464901930E+03  0.25500000000E-02 0. -1.
    5000001    1    1    2    0    0  0.74250075074E+02 -0.28260398511E+03  0.13654955273E+03  0.37332005893E+03  0.18800000000E+03 0.  0.
   -5000001    1    1    2    0    0 -0.74250075074E+02  0.28260398511E+03 -0.92877311899E+02  0.35965022051E+03  0.18800000000E+03 0.  0.
<mgrwt>
<rscale>  0 0.73166807E+03</rscale>
<asrwt>0</asrwt>
<pdfrwt beam="1">  1        2 0.55474466E-01 0.73166807E+03</pdfrwt>
<pdfrwt beam="2">  1       -2 0.49235574E-01 0.73166807E+03</pdfrwt>
<totfact> 0.35181069E+02</totfact>
</mgrwt>
</event>
<event>
 4    1  0.2153371E-005  0.4637424E+03  0.7818608E-02  0.1023701E+00
          2   -1    0    0  501    0  0.00000000000E+00  0.00000000000E+00  0.78774853839E+03  0.78774853840E+03  0.25500000000E-02 0.  1.
         -2   -1    0    0    0  501 -0.00000000000E+00 -0.00000000000E+00 -0.68250541600E+02  0.68250541648E+02  0.25500000000E-02 0. -1.
    5000001    1    1    2    0    0 -0.12717711517E+03  0.40905279032E+02  0.40393403821E+03  0.46513865427E+03  0.18800000000E+03 0.  0.
   -5000001    1    1    2    0    0  0.12717711517E+03 -0.40905279032E+02  0.31556395858E+03  0.39086042577E+03  0.18800000000E+03 0.  0.
<mgrwt>
<rscale>  0 0.46374245E+03</rscale>
<asrwt>0</asrwt>
<pdfrwt beam="1">  1        2 0.11253549E+00 0.46374245E+03</pdfrwt>
<pdfrwt beam="2">  1       -2 0.97500784E-02 0.46374245E+03</pdfrwt>
<totfact> 0.27615436E+03</totfact>
</mgrwt>
</event>
<event>
 4    1  0.2153371E-005  0.6448430E+03  0.7818608E-02  0.9816504E-01
         -2   -1    0    0    0  501 -0.00000000000E+00  0.00000000000E+00  0.61456756840E+02  0.61456756893E+02  0.25500000000E-02 0. -1.
          2   -1    0    0  501    0  0.00000000000E+00 -0.00000000000E+00 -0.16915248536E+04  0.16915248536E+04  0.25500000000E-02 0.  1.
    5000001    1    1    2    0    0  0.14752039177E+03  0.15741355781E+03 -0.12188912585E+04  0.12520308280E+04  0.18800000000E+03 0.  0.
   -5000001    1    1    2    0    0 -0.14752039177E+03 -0.15741355781E+03 -0.41117683822E+03  0.50095078247E+03  0.18800000000E+03 0.  0.
<mgrwt>
<rscale>  0 0.64484302E+03</rscale>
<asrwt>0</asrwt>
<pdfrwt beam="1">  1        2 0.24164638E+00 0.64484302E+03</pdfrwt>
<pdfrwt beam="2">  1       -2 0.87795377E-02 0.64484302E+03</pdfrwt>
<totfact> 0.99960311E+02</totfact>
</mgrwt>
</event>
<event>
 4    1  0.2153371E-005  0.4349140E+03  0.7818608E-02  0.1032319E+00
         -2   -1    0    0    0  501 -0.00000000000E+00  0.00000000000E+00  0.46459705347E+03  0.46459705348E+03  0.25500000000E-02 0. -1.
          2   -1    0    0  501    0  0.00000000000E+00 -0.00000000000E+00 -0.10178186049E+03  0.10178186052E+03  0.25500000000E-02 0.  1.
    5000001    1    1    2    0    0 -0.10380544233E+03 -0.15800315242E+02  0.22087183078E+03  0.30846974803E+03  0.18800000000E+03 0.  0.
   -5000001    1    1    2    0    0  0.10380544233E+03  0.15800315242E+02  0.14194336220E+03  0.25790916597E+03  0.18800000000E+03 0.  0.
<mgrwt>
<rscale>  0 0.43491403E+03</rscale>
<asrwt>0</asrwt>
<pdfrwt beam="1">  1        2 0.14540266E-01 0.43491403E+03</pdfrwt>
<pdfrwt beam="2">  1       -2 0.66371009E-01 0.43491403E+03</pdfrwt>
<totfact> 0.87174213E+02</totfact>
</mgrwt>
</event>
<event>
 4    1  0.2153371E-005  0.5343600E+03  0.7818608E-02  0.1005180E+00
         -2   -1    0    0    0  501 -0.00000000000E+00  0.00000000000E+00  0.18283202897E+03  0.18283202899E+03  0.25500000000E-02 0. -1.
          2   -1    0    0  501    0  0.00000000000E+00 -0.00000000000E+00 -0.39044114332E+03  0.39044114332E+03  0.25500000000E-02 0.  1.
    5000001    1    1    2    0    0 -0.11533040896E+03  0.15048249768E+03 -0.11426449483E+03  0.29042462037E+03  0.18800000000E+03 0.  0.
   -5000001    1    1    2    0    0  0.11533040896E+03 -0.15048249768E+03 -0.93344619519E+02  0.28284855194E+03  0.18800000000E+03 0.  0.
<mgrwt>
<rscale>  0 0.53435998E+03</rscale>
<asrwt>0</asrwt>
<pdfrwt beam="1">  1        2 0.55777306E-01 0.53435998E+03</pdfrwt>
<pdfrwt beam="2">  1       -2 0.26118862E-01 0.53435998E+03</pdfrwt>
<totfact> 0.11762161E+03</totfact>
</mgrwt>
</event>
<event>
 4    1  0.2153371E-005  0.4044819E+03  0.7818608E-02  0.1042239E+00
         -2   -1    0    0    0  501 -0.00000000000E+00  0.00000000000E+00  0.11519454950E+03  0.11519454953E+03  0.25500000000E-02 0. -1.
          2   -1    0    0  501    0  0.00000000000E+00 -0.00000000000E+00 -0.35506362227E+03  0.35506362228E+03  0.25500000000E-02 0.  1.
    5000001    1    1    2    0    0 -0.40143397591E+02 -0.62512431998E+02 -0.11275848534E+03  0.23146872908E+03  0.18800000000E+03 0.  0.
   -5000001    1    1    2    0    0  0.40143397591E+02  0.62512431998E+02 -0.12711058743E+03  0.23878944274E+03  0.18800000000E+03 0.  0.
<mgrwt>
<rscale>  0 0.40448186E+03</rscale>
<asrwt>0</asrwt>
<pdfrwt beam="1">  1        2 0.50723374E-01 0.40448186E+03</pdfrwt>
<pdfrwt beam="2">  1       -2 0.16456364E-01 0.40448186E+03</pdfrwt>
<totfact> 0.29122119E+03</totfact>
</mgrwt>
</event>
<event>
 4    1  0.2153371E-005  0.1349034E+04  0.7818608E-02  0.8991559E-01
         -2   -1    0    0    0  501 -0.00000000000E+00  0.00000000000E+00  0.54411533620E+03  0.54411533620E+03  0.25500000000E-02 0. -1.
          2   -1    0    0  501    0  0.00000000000E+00 -0.00000000000E+00 -0.83617087491E+03  0.83617087492E+03  0.25500000000E-02 0.  1.
    5000001    1    1    2    0    0 -0.10244902882E+03  0.49821613368E+03  0.26440633612E+03  0.60329912145E+03  0.18800000000E+03 0.  0.
   -5000001    1    1    2    0    0  0.10244902882E+03 -0.49821613368E+03 -0.55646187484E+03  0.77698708967E+03  0.18800000000E+03 0.  0.
<mgrwt>
<rscale>  0 0.13490343E+04</rscale>
<asrwt>0</asrwt>
<pdfrwt beam="1">  1        2 0.11945298E+00 0.13490343E+04</pdfrwt>
<pdfrwt beam="2">  1       -2 0.77730763E-01 0.13490343E+04</pdfrwt>
<totfact> 0.51762928E+01</totfact>
</mgrwt>
</event>
<event>
 4    1  0.2153371E-005  0.6319509E+03  0.7818608E-02  0.9841249E-01
          2   -1    0    0  501    0  0.00000000000E+00  0.00000000000E+00  0.26679954922E+03  0.26679954923E+03  0.25500000000E-02 0. -1.
         -2   -1    0    0    0  501 -0.00000000000E+00 -0.00000000000E+00 -0.37421528582E+03  0.37421528583E+03  0.25500000000E-02 0.  1.
    5000001    1    1    2    0    0 -0.95045907621E+02  0.11254428771E+03 -0.26354824033E+03  0.35567065697E+03  0.18800000000E+03 0.  0.
   -5000001    1    1    2    0    0  0.95045907621E+02 -0.11254428771E+03  0.15613250372E+03  0.28534417809E+03  0.18800000000E+03 0.  0.
<mgrwt>
<rscale>  0 0.63195085E+03</rscale>
<asrwt>0</asrwt>
<pdfrwt beam="1">  1        2 0.38114221E-01 0.63195085E+03</pdfrwt>
<pdfrwt beam="2">  1       -2 0.53459326E-01 0.63195085E+03</pdfrwt>
<totfact> 0.45208379E+02</totfact>
</mgrwt>
</event>
<event>
 4    1  0.2153371E-005  0.6601038E+03  0.7818608E-02  0.9788003E-01
         -2   -1    0    0    0  501 -0.00000000000E+00  0.00000000000E+00  0.64081681420E+02  0.64081681471E+02  0.25500000000E-02 0. -1.
          2   -1    0    0  501    0  0.00000000000E+00 -0.00000000000E+00 -0.16999281841E+04  0.16999281841E+04  0.25500000000E-02 0.  1.
    5000001    1    1    2    0    0 -0.26650968145E+03  0.12846864569E+01 -0.68268169640E+03  0.75658929369E+03  0.18800000000E+03 0.  0.
   -5000001    1    1    2    0    0  0.26650968145E+03 -0.12846864569E+01 -0.95316480631E+03  0.10074205719E+04  0.18800000000E+03 0.  0.
<mgrwt>
<rscale>  0 0.66010380E+03</rscale>
<asrwt>0</asrwt>
<pdfrwt beam="1">  1        2 0.24284685E+00 0.66010380E+03</pdfrwt>
<pdfrwt beam="2">  1       -2 0.91545270E-02 0.66010380E+03</pdfrwt>
<totfact> 0.92465274E+02</totfact>
</mgrwt>
</event>
<event>
 4    1  0.2153371E-005  0.5704764E+03  0.7818608E-02  0.9968625E-01
         -2   -1    0    0    0  501 -0.00000000000E+00  0.00000000000E+00  0.26078763335E+02  0.26078763460E+02  0.25500000000E-02 0. -1.
          2   -1    0    0  501    0  0.00000000000E+00 -0.00000000000E+00 -0.31198114820E+04  0.31198114820E+04  0.25500000000E-02 0.  1.
    5000001    1    1    2    0    0 -0.24388378430E+02 -0.21160435502E+03 -0.14067471898E+04  0.14351490697E+04  0.18800000000E+03 0.  0.
   -5000001    1    1    2    0    0  0.24388378430E+02  0.21160435502E+03 -0.16869855288E+04  0.17107411758E+04  0.18800000000E+03 0.  0.
<mgrwt>
<rscale>  0 0.57047638E+03</rscale>
<asrwt>0</asrwt>
<pdfrwt beam="1">  1        2 0.44568712E+00 0.57047638E+03</pdfrwt>
<pdfrwt beam="2">  1       -2 0.37255396E-02 0.57047638E+03</pdfrwt>
<totfact> 0.70224551E+02</totfact>
</mgrwt>
</event>
<event>
 4    1  0.2153371E-005  0.5251449E+03  0.7818608E-02  0.1007416E+00
          2   -1    0    0  501    0  0.00000000000E+00  0.00000000000E+00  0.23242048438E+04  0.23242048438E+04  0.25500000000E-02 0.  1.
         -2   -1    0    0    0  501 -0.00000000000E+00 -0.00000000000E+00 -0.29663605069E+02  0.29663605179E+02  0.25500000000E-02 0. -1.
    5000001    1    1    2    0    0 -0.10575489323E+03 -0.97382103254E+02  0.16570137424E+04  0.16738297147E+04  0.18800000000E+03 0.  0.
   -5000001    1    1    2    0    0  0.10575489323E+03  0.97382103254E+02  0.63752749635E+03  0.68003873425E+03  0.18800000000E+03 0.  0.
<mgrwt>
<rscale>  0 0.52514491E+03</rscale>
<asrwt>0</asrwt>
<pdfrwt beam="1">  1        2 0.33202917E+00 0.52514491E+03</pdfrwt>
<pdfrwt beam="2">  1       -2 0.42376590E-02 0.52514491E+03</pdfrwt>
<totfact> 0.15137840E+03</totfact>
</mgrwt>
</event>
<event>
 4    1  0.2153371E-005  0.5500871E+03  0.7818608E-02  0.1001474E+00
          2   -1    0    0  501    0  0.00000000000E+00  0.00000000000E+00  0.52155509651E+03  0.52155509651E+03  0.25500000000E-02 0.  1.
         -2   -1    0    0    0  501 -0.00000000000E+00 -0.00000000000E+00 -0.14504498550E+03  0.14504498552E+03  0.25500000000E-02 0. -1.
    5000001    1    1    2    0    0 -0.18923111576E+03  0.45336474184E+02  0.12838215663E+03  0.29948253573E+03  0.18800000000E+03 0.  0.
   -5000001    1    1    2    0    0  0.18923111576E+03 -0.45336474184E+02  0.24812795437E+03  0.36711754630E+03  0.18800000000E+03 0.  0.
<mgrwt>
<rscale>  0 0.55008709E+03</rscale>
<asrwt>0</asrwt>
<pdfrwt beam="1">  1        2 0.74507870E-01 0.55008709E+03</pdfrwt>
<pdfrwt beam="2">  1       -2 0.20720712E-01 0.55008709E+03</pdfrwt>
<totfact> 0.12819374E+03</totfact>
</mgrwt>
</event>
<event>
 4    1  0.2153371E-005  0.7786895E+03  0.7818608E-02  0.9591386E-01
         -2   -1    0    0    0  501 -0.00000000000E+00  0.00000000000E+00  0.12356962154E+03  0.12356962156E+03  0.25500000000E-02 0. -1.
          2   -1    0    0  501    0  0.00000000000E+00 -0.00000000000E+00 -0.12267523792E+04  0.12267523792E+04  0.25500000000E-02 0.  1.
    5000001    1    1    2    0    0 -0.31669871804E+03 -0.11336472650E+03 -0.64807456287E+03  0.75398559553E+03  0.18800000000E+03 0.  0.
   -5000001    1    1    2    0    0  0.31669871804E+03  0.11336472650E+03 -0.45510819475E+03  0.59633640519E+03  0.18800000000E+03 0.  0.
<mgrwt>
<rscale>  0 0.77868948E+03</rscale>
<asrwt>0</asrwt>
<pdfrwt beam="1">  1        2 0.17525033E+00 0.77868948E+03</pdfrwt>
<pdfrwt beam="2">  1       -2 0.17652804E-01 0.77868948E+03</pdfrwt>
<totfact> 0.54978710E+02</totfact>
</mgrwt>
</event>
<event>
 4    1  0.2153371E-005  0.6085356E+03  0.7818608E-02  0.9887854E-01
          2   -1    0    0  501    0  0.00000000000E+00  0.00000000000E+00  0.44211765299E+03  0.44211765300E+03  0.25500000000E-02 0. -1.
         -2   -1    0    0    0  501 -0.00000000000E+00 -0.00000000000E+00 -0.20939877961E+03  0.20939877962E+03  0.25500000000E-02 0.  1.
    5000001    1    1    2    0    0 -0.23266505554E+03  0.97185887044E+01  0.57646166394E+02  0.30478608816E+03  0.18800000000E+03 0.  0.
   -5000001    1    1    2    0    0  0.23266505554E+03 -0.97185887044E+01  0.17507270699E+03  0.34673034446E+03  0.18800000000E+03 0.  0.
<mgrwt>
<rscale>  0 0.60853561E+03</rscale>
<asrwt>0</asrwt>
<pdfrwt beam="1">  1        2 0.63159664E-01 0.60853561E+03</pdfrwt>
<pdfrwt beam="2">  1       -2 0.29914112E-01 0.60853561E+03</pdfrwt>
<totfact> 0.79917603E+02</totfact>
</mgrwt>
</event>
<event>
 4    1  0.2153371E-005  0.6073821E+03  0.7818608E-02  0.9890208E-01
         -2   -1    0    0    0  501 -0.00000000000E+00  0.00000000000E+00  0.21622642078E+03  0.21622642079E+03  0.25500000000E-02 0. -1.
          2   -1    0    0  501    0  0.00000000000E+00 -0.00000000000E+00 -0.42653552334E+03  0.42653552335E+03  0.25500000000E-02 0.  1.
    5000001    1    1    2    0    0  0.22840688218E+03 -0.67471506410E+02 -0.91679347535E+02  0.31697194003E+03  0.18800000000E+03 0.  0.
   -5000001    1    1    2    0    0 -0.22840688218E+03  0.67471506410E+02 -0.11862975503E+03  0.32579000411E+03  0.18800000000E+03 0.  0.
<mgrwt>
<rscale>  0 0.60738209E+03</rscale>
<asrwt>0</asrwt>
<pdfrwt beam="1">  1        2 0.60933646E-01 0.60738209E+03</pdfrwt>
<pdfrwt beam="2">  1       -2 0.30889489E-01 0.60738209E+03</pdfrwt>
<totfact> 0.78394463E+02</totfact>
</mgrwt>
</event>
<event>
 4    1  0.2153371E-005  0.5694339E+03  0.7818608E-02  0.9970932E-01
          2   -1    0    0  501    0  0.00000000000E+00  0.00000000000E+00  0.76006810776E+03  0.76006810777E+03  0.25500000000E-02 0.  1.
         -2   -1    0    0    0  501 -0.00000000000E+00 -0.00000000000E+00 -0.10665326096E+03  0.10665326099E+03  0.25500000000E-02 0. -1.
    5000001    1    1    2    0    0 -0.14745745346E+03 -0.81166137529E+01  0.56206460009E+03  0.61079472385E+03  0.18800000000E+03 0.  0.
   -5000001    1    1    2    0    0  0.14745745346E+03  0.81166137529E+01  0.91350246710E+02  0.25592664491E+03  0.18800000000E+03 0.  0.
<mgrwt>
<rscale>  0 0.56943390E+03</rscale>
<asrwt>0</asrwt>
<pdfrwt beam="1">  1        2 0.10858116E+00 0.56943390E+03</pdfrwt>
<pdfrwt beam="2">  1       -2 0.15236180E-01 0.56943390E+03</pdfrwt>
<totfact> 0.13866285E+03</totfact>
</mgrwt>
</event>
<event>
 4    1  0.2153371E-005  0.4035915E+03  0.7818608E-02  0.1042543E+00
          2   -1    0    0  501    0  0.00000000000E+00  0.00000000000E+00  0.41572235851E+03  0.41572235851E+03  0.25500000000E-02 0.  1.
         -2   -1    0    0    0  501 -0.00000000000E+00 -0.00000000000E+00 -0.97953657987E+02  0.97953658020E+02  0.25500000000E-02 0. -1.
    5000001    1    1    2    0    0  0.34409054800E+02  0.56831015293E+02  0.11937172707E+03  0.23239482906E+03  0.18800000000E+03 0.  0.
   -5000001    1    1    2    0    0 -0.34409054800E+02 -0.56831015293E+02  0.19839697345E+03  0.28128118747E+03  0.18800000000E+03 0.  0.
<mgrwt>
<rscale>  0 0.40359151E+03</rscale>
<asrwt>0</asrwt>
<pdfrwt beam="1">  1        2 0.59388907E-01 0.40359151E+03</pdfrwt>
<pdfrwt beam="2">  1       -2 0.13993380E-01 0.40359151E+03</pdfrwt>
<totfact> 0.32119375E+03</totfact>
</mgrwt>
</event>
<event>
 4    1  0.2153371E-005  0.6313742E+03  0.7818608E-02  0.9842371E-01
         -2   -1    0    0    0  501 -0.00000000000E+00  0.00000000000E+00  0.17411681801E+03  0.17411681803E+03  0.25500000000E-02 0. -1.
          2   -1    0    0  501    0  0.00000000000E+00 -0.00000000000E+00 -0.57236476948E+03  0.57236476948E+03  0.25500000000E-02 0.  1.
    5000001    1    1    2    0    0  0.48181015684E+02 -0.88178680303E+02  0.76173234316E+02  0.22636972315E+03  0.18800000000E+03 0.  0.
   -5000001    1    1    2    0    0 -0.48181015684E+02  0.88178680303E+02 -0.47442118578E+03  0.52011186436E+03  0.18800000000E+03 0.  0.
<mgrwt>
<rscale>  0 0.63137416E+03</rscale>
<asrwt>0</asrwt>
<pdfrwt beam="1">  1        2 0.81766395E-01 0.63137416E+03</pdfrwt>
<pdfrwt beam="2">  1       -2 0.24873831E-01 0.63137416E+03</pdfrwt>
<totfact> 0.83249955E+02</totfact>
</mgrwt>
</event>
<event>
 4    1  0.2153371E-005  0.4012880E+03  0.7818608E-02  0.1043335E+00
         -2   -1    0    0    0  501 -0.00000000000E+00  0.00000000000E+00  0.33219977601E+03  0.33219977602E+03  0.25500000000E-02 0. -1.
          2   -1    0    0  501    0  0.00000000000E+00 -0.00000000000E+00 -0.12118615455E+03  0.12118615458E+03  0.25500000000E-02 0.  1.
    5000001    1    1    2    0    0  0.17952121359E+02 -0.54136688679E+02  0.59460945893E+02  0.20526242669E+03  0.18800000000E+03 0.  0.
   -5000001    1    1    2    0    0 -0.17952121359E+02  0.54136688679E+02  0.15155267556E+03  0.24812350391E+03  0.18800000000E+03 0.  0.
<mgrwt>
<rscale>  0 0.40128799E+03</rscale>
<asrwt>0</asrwt>
<pdfrwt beam="1">  1        2 0.17312308E-01 0.40128799E+03</pdfrwt>
<pdfrwt beam="2">  1       -2 0.47457112E-01 0.40128799E+03</pdfrwt>
<totfact> 0.14125031E+03</totfact>
</mgrwt>
</event>
<event>
 4    1  0.2153371E-005  0.6048001E+03  0.7818608E-02  0.9895497E-01
         -2   -1    0    0    0  501 -0.00000000000E+00  0.00000000000E+00  0.49035443074E+02  0.49035443140E+02  0.25500000000E-02 0. -1.
          2   -1    0    0  501    0  0.00000000000E+00 -0.00000000000E+00 -0.18648917534E+04  0.18648917534E+04  0.25500000000E-02 0.  1.
    5000001    1    1    2    0    0 -0.31642670955E+02  0.23471882700E+03 -0.89919998587E+03  0.94868266610E+03  0.18800000000E+03 0.  0.
   -5000001    1    1    2    0    0  0.31642670955E+02 -0.23471882700E+03 -0.91665632441E+03  0.96524453039E+03  0.18800000000E+03 0.  0.
<mgrwt>
<rscale>  0 0.60480011E+03</rscale>
<asrwt>0</asrwt>
<pdfrwt beam="1">  1        2 0.26641306E+00 0.60480011E+03</pdfrwt>
<pdfrwt beam="2">  1       -2 0.70050645E-02 0.60480011E+03</pdfrwt>
<totfact> 0.11723941E+03</totfact>
</mgrwt>
</event>
<event>
 4    1  0.2153371E-005  0.4314353E+03  0.7818608E-02  0.1033408E+00
         -2   -1    0    0    0  501 -0.00000000000E+00  0.00000000000E+00  0.64322564079E+02  0.64322564130E+02  0.25500000000E-02 0. -1.
          2   -1    0    0  501    0  0.00000000000E+00 -0.00000000000E+00 -0.72344918777E+03  0.72344918778E+03  0.25500000000E-02 0.  1.
    5000001    1    1    2    0    0 -0.85874739695E+02 -0.54738637724E+02 -0.38182829341E+03  0.43761585326E+03  0.18800000000E+03 0.  0.
   -5000001    1    1    2    0    0  0.85874739695E+02  0.54738637724E+02 -0.27729833028E+03  0.35015589864E+03  0.18800000000E+03 0.  0.
<mgrwt>
<rscale>  0 0.43143531E+03</rscale>
<asrwt>0</asrwt>
<pdfrwt beam="1">  1        2 0.10334988E+00 0.43143531E+03</pdfrwt>
<pdfrwt beam="2">  1       -2 0.91889381E-02 0.43143531E+03</pdfrwt>
<totfact> 0.33725048E+03</totfact>
</mgrwt>
</event>
<event>
 4    1  0.2153371E-005  0.5062297E+03  0.7818608E-02  0.1012166E+00
          2   -1    0    0  501    0  0.00000000000E+00  0.00000000000E+00  0.96194006322E+03  0.96194006323E+03  0.25500000000E-02 0.  1.
         -2   -1    0    0    0  501 -0.00000000000E+00 -0.00000000000E+00 -0.66602003038E+02  0.66602003087E+02  0.25500000000E-02 0. -1.
    5000001    1    1    2    0    0 -0.53351791017E+02  0.12221264948E+03  0.66018851133E+03  0.69926762815E+03  0.18800000000E+03 0.  0.
   -5000001    1    1    2    0    0  0.53351791017E+02 -0.12221264948E+03  0.23514954886E+03  0.32927443816E+03  0.18800000000E+03 0.  0.
<mgrwt>
<rscale>  0 0.50622973E+03</rscale>
<asrwt>0</asrwt>
<pdfrwt beam="1">  1        2 0.13742001E+00 0.50622973E+03</pdfrwt>
<pdfrwt beam="2">  1       -2 0.95145719E-02 0.50622973E+03</pdfrwt>
<totfact> 0.22112246E+03</totfact>
</mgrwt>
</event>
<event>
 4    1  0.2153371E-005  0.9905275E+03  0.7818608E-02  0.9318995E-01
          2   -1    0    0  501    0  0.00000000000E+00  0.00000000000E+00  0.41294816420E+03  0.41294816421E+03  0.25500000000E-02 0.  1.
         -2   -1    0    0    0  501 -0.00000000000E+00 -0.00000000000E+00 -0.59398785822E+03  0.59398785823E+03  0.25500000000E-02 0. -1.
    5000001    1    1    2    0    0  0.45182185108E+03 -0.76077089099E+02 -0.87074452585E+02  0.50284855463E+03  0.18800000000E+03 0.  0.
   -5000001    1    1    2    0    0 -0.45182185108E+03  0.76077089099E+02 -0.93965241434E+02  0.50408746781E+03  0.18800000000E+03 0.  0.
<mgrwt>
<rscale>  0 0.99052753E+03</rscale>
<asrwt>0</asrwt>
<pdfrwt beam="1">  1        2 0.58992595E-01 0.99052753E+03</pdfrwt>
<pdfrwt beam="2">  1       -2 0.84855408E-01 0.99052753E+03</pdfrwt>
<totfact> 0.10090642E+02</totfact>
</mgrwt>
</event>
<event>
 4    1  0.2153371E-005  0.8253622E+03  0.7818608E-02  0.9524015E-01
          2   -1    0    0  501    0  0.00000000000E+00  0.00000000000E+00  0.60188393096E+03  0.60188393097E+03  0.25500000000E-02 0.  1.
         -2   -1    0    0    0  501 -0.00000000000E+00 -0.00000000000E+00 -0.28295440395E+03  0.28295440396E+03  0.25500000000E-02 0. -1.
    5000001    1    1    2    0    0 -0.35851829694E+03  0.36539700909E+02  0.23595904711E+03  0.46999062851E+03  0.18800000000E+03 0.  0.
   -5000001    1    1    2    0    0  0.35851829694E+03 -0.36539700909E+02  0.82970479913E+02  0.41484770641E+03  0.18800000000E+03 0.  0.
<mgrwt>
<rscale>  0 0.82536225E+03</rscale>
<asrwt>0</asrwt>
<pdfrwt beam="1">  1        2 0.85983417E-01 0.82536225E+03</pdfrwt>
<pdfrwt beam="2">  1       -2 0.40422059E-01 0.82536225E+03</pdfrwt>
<totfact> 0.31449269E+02</totfact>
</mgrwt>
</event>
<event>
 4    1  0.2153371E-005  0.7462685E+03  0.7818608E-02  0.9641223E-01
          2   -1    0    0  501    0  0.00000000000E+00  0.00000000000E+00  0.15892667735E+04  0.15892667735E+04  0.25500000000E-02 0.  1.
         -2   -1    0    0    0  501 -0.00000000000E+00 -0.00000000000E+00 -0.87605908378E+02  0.87605908415E+02  0.25500000000E-02 0. -1.
    5000001    1    1    2    0    0 -0.26776338496E+02  0.19186536852E+03  0.13296519386E+04  0.13567783790E+04  0.18800000000E+03 0.  0.
   -5000001    1    1    2    0    0  0.26776338496E+02 -0.19186536852E+03  0.17200892650E+03  0.32009430288E+03  0.18800000000E+03 0.  0.
<mgrwt>
<rscale>  0 0.74626848E+03</rscale>
<asrwt>0</asrwt>
<pdfrwt beam="1">  1        2 0.22703810E+00 0.74626848E+03</pdfrwt>
<pdfrwt beam="2">  1       -2 0.12515130E-01 0.74626848E+03</pdfrwt>
<totfact> 0.62940029E+02</totfact>
</mgrwt>
</event>
<event>
 4    1  0.2153371E-005  0.7513598E+03  0.7818608E-02  0.9633220E-01
         -2   -1    0    0    0  501 -0.00000000000E+00  0.00000000000E+00  0.29098183875E+03  0.29098183876E+03  0.25500000000E-02 0. -1.
          2   -1    0    0  501    0  0.00000000000E+00 -0.00000000000E+00 -0.48503155844E+03  0.48503155844E+03  0.25500000000E-02 0.  1.
    5000001    1    1    2    0    0 -0.13317272042E+03  0.29160756632E+03 -0.40253741966E+02  0.37381052679E+03  0.18800000000E+03 0.  0.
   -5000001    1    1    2    0    0  0.13317272042E+03 -0.29160756632E+03 -0.15379597772E+03  0.40220287041E+03  0.18800000000E+03 0.  0.
<mgrwt>
<rscale>  0 0.75135977E+03</rscale>
<asrwt>0</asrwt>
<pdfrwt beam="1">  1        2 0.69290222E-01 0.75135977E+03</pdfrwt>
<pdfrwt beam="2">  1       -2 0.41568834E-01 0.75135977E+03</pdfrwt>
<totfact> 0.38358325E+02</totfact>
</mgrwt>
</event>
<event>
 4    1  0.2153371E-005  0.5139667E+03  0.7818608E-02  0.1010196E+00
          2   -1    0    0  501    0  0.00000000000E+00  0.00000000000E+00  0.45687303511E+03  0.45687303512E+03  0.25500000000E-02 0.  1.
         -2   -1    0    0    0  501 -0.00000000000E+00 -0.00000000000E+00 -0.14454876468E+03  0.14454876470E+03  0.25500000000E-02 0. -1.
    5000001    1    1    2    0    0  0.89155110639E+02 -0.15018536587E+03  0.17238285157E+03  0.30913447784E+03  0.18800000000E+03 0.  0.
   -5000001    1    1    2    0    0 -0.89155110639E+02  0.15018536587E+03  0.13994141887E+03  0.29228732198E+03  0.18800000000E+03 0.  0.
<mgrwt>
<rscale>  0 0.51396666E+03</rscale>
<asrwt>0</asrwt>
<pdfrwt beam="1">  1        2 0.65267576E-01 0.51396666E+03</pdfrwt>
<pdfrwt beam="2">  1       -2 0.20649824E-01 0.51396666E+03</pdfrwt>
<totfact> 0.14977859E+03</totfact>
</mgrwt>
</event>
<event>
 4    1  0.2153371E-005  0.7496619E+03  0.7818608E-02  0.9635881E-01
         -2   -1    0    0    0  501 -0.00000000000E+00  0.00000000000E+00  0.61024622032E+02  0.61024622085E+02  0.25500000000E-02 0. -1.
          2   -1    0    0  501    0  0.00000000000E+00 -0.00000000000E+00 -0.23023202761E+04  0.23023202761E+04  0.25500000000E-02 0.  1.
    5000001    1    1    2    0    0 -0.25484387793E+03 -0.19167439585E+03 -0.93494834423E+03  0.10055629680E+04  0.18800000000E+03 0.  0.
   -5000001    1    1    2    0    0  0.25484387793E+03  0.19167439585E+03 -0.13063473098E+04  0.13577819302E+04  0.18800000000E+03 0.  0.
<mgrwt>
<rscale>  0 0.74966186E+03</rscale>
<asrwt>0</asrwt>
<pdfrwt beam="1">  1        2 0.32890284E+00 0.74966186E+03</pdfrwt>
<pdfrwt beam="2">  1       -2 0.87178046E-02 0.74966186E+03</pdfrwt>
<totfact> 0.49278667E+02</totfact>
</mgrwt>
</event>
<event>
 4    1  0.2153371E-005  0.4506077E+03  0.7818608E-02  0.1027541E+00
          2   -1    0    0  501    0  0.00000000000E+00  0.00000000000E+00  0.27327090843E+04  0.27327090843E+04  0.25500000000E-02 0.  1.
         -2   -1    0    0    0  501 -0.00000000000E+00 -0.00000000000E+00 -0.18575641955E+02  0.18575642130E+02  0.25500000000E-02 0. -1.
    5000001    1    1    2    0    0 -0.25007344679E+02  0.91200134015E+02  0.18483778602E+04  0.18603192054E+04  0.18800000000E+03 0.  0.
   -5000001    1    1    2    0    0  0.25007344679E+02 -0.91200134015E+02  0.86575558212E+03  0.89096552105E+03  0.18800000000E+03 0.  0.
<mgrwt>
<rscale>  0 0.45060770E+03</rscale>
<asrwt>0</asrwt>
<pdfrwt beam="1">  1        2 0.39038681E+00 0.45060770E+03</pdfrwt>
<pdfrwt beam="2">  1       -2 0.26536645E-02 0.45060770E+03</pdfrwt>
<totfact> 0.19144445E+03</totfact>
</mgrwt>
</event>
<event>
 4    1  0.2153371E-005  0.5965895E+03  0.7818608E-02  0.9912507E-01
          2   -1    0    0  501    0  0.00000000000E+00  0.00000000000E+00  0.57094711151E+03  0.57094711151E+03  0.25500000000E-02 0.  1.
         -2   -1    0    0    0  501 -0.00000000000E+00 -0.00000000000E+00 -0.15584591083E+03  0.15584591085E+03  0.25500000000E-02 0. -1.
    5000001    1    1    2    0    0 -0.18831950971E+03 -0.12923047985E+03  0.16082616107E+03  0.33671027419E+03  0.18800000000E+03 0.  0.
   -5000001    1    1    2    0    0  0.18831950971E+03  0.12923047985E+03  0.25427503961E+03  0.39008274818E+03  0.18800000000E+03 0.  0.
<mgrwt>
<rscale>  0 0.59658955E+03</rscale>
<asrwt>0</asrwt>
<pdfrwt beam="1">  1        2 0.81563873E-01 0.59658955E+03</pdfrwt>
<pdfrwt beam="2">  1       -2 0.22263702E-01 0.59658955E+03</pdfrwt>
<totfact> 0.10176991E+03</totfact>
</mgrwt>
</event>
<event>
 4    1  0.2153371E-005  0.6250803E+03  0.7818608E-02  0.9854697E-01
          2   -1    0    0  501    0  0.00000000000E+00  0.00000000000E+00  0.76348753189E+03  0.76348753189E+03  0.25500000000E-02 0.  1.
         -2   -1    0    0    0  501 -0.00000000000E+00 -0.00000000000E+00 -0.12794096546E+03  0.12794096549E+03  0.25500000000E-02 0. -1.
    5000001    1    1    2    0    0 -0.20406917116E+03 -0.14299059602E+03  0.29536963588E+03  0.42974150250E+03  0.18800000000E+03 0.  0.
   -5000001    1    1    2    0    0  0.20406917116E+03  0.14299059602E+03  0.34017693055E+03  0.46168699489E+03  0.18800000000E+03 0.  0.
<mgrwt>
<rscale>  0 0.62508026E+03</rscale>
<asrwt>0</asrwt>
<pdfrwt beam="1">  1        2 0.10906965E+00 0.62508026E+03</pdfrwt>
<pdfrwt beam="2">  1       -2 0.18277281E-01 0.62508026E+03</pdfrwt>
<totfact> 0.10105119E+03</totfact>
</mgrwt>
</event>
<event>
 4    1  0.2153371E-005  0.4235855E+03  0.7818608E-02  0.1035906E+00
         -2   -1    0    0    0  501 -0.00000000000E+00  0.00000000000E+00  0.14942090338E+02  0.14942090555E+02  0.25500000000E-02 0. -1.
          2   -1    0    0  501    0  0.00000000000E+00 -0.00000000000E+00 -0.30020007737E+04  0.30020007737E+04  0.25500000000E-02 0.  1.
    5000001    1    1    2    0    0  0.45215352754E+02 -0.79459027044E+02 -0.17354813809E+04  0.17480268271E+04  0.18800000000E+03 0.  0.
   -5000001    1    1    2    0    0 -0.45215352754E+02  0.79459027044E+02 -0.12515773025E+04  0.12689160371E+04  0.18800000000E+03 0.  0.
<mgrwt>
<rscale>  0 0.42358549E+03</rscale>
<asrwt>0</asrwt>
<pdfrwt beam="1">  1        2 0.42885687E+00 0.42358549E+03</pdfrwt>
<pdfrwt beam="2">  1       -2 0.21345863E-02 0.42358549E+03</pdfrwt>
<totfact> 0.19149217E+03</totfact>
</mgrwt>
</event>
<event>
 4    1  0.2153371E-005  0.5551471E+03  0.7818608E-02  0.1000310E+00
          2   -1    0    0  501    0  0.00000000000E+00  0.00000000000E+00  0.12382011962E+04  0.12382011962E+04  0.25500000000E-02 0.  1.
         -2   -1    0    0    0  501 -0.00000000000E+00 -0.00000000000E+00 -0.62225007269E+02  0.62225007321E+02  0.25500000000E-02 0. -1.
    5000001    1    1    2    0    0 -0.20112217694E+03  0.28493375968E+02  0.53879158266E+03  0.60572466689E+03  0.18800000000E+03 0.  0.
   -5000001    1    1    2    0    0  0.20112217694E+03 -0.28493375968E+02  0.63718460625E+03  0.69470153661E+03  0.18800000000E+03 0.  0.
<mgrwt>
<rscale>  0 0.55514711E+03</rscale>
<asrwt>0</asrwt>
<pdfrwt beam="1">  1        2 0.17688589E+00 0.55514711E+03</pdfrwt>
<pdfrwt beam="2">  1       -2 0.88892865E-02 0.55514711E+03</pdfrwt>
<totfact> 0.17031648E+03</totfact>
</mgrwt>
</event>
<event>
 4    1  0.2153371E-005  0.5392716E+03  0.7818608E-02  0.1004008E+00
          2   -1    0    0  501    0  0.00000000000E+00  0.00000000000E+00  0.50363607011E+03  0.50363607012E+03  0.25500000000E-02 0.  1.
         -2   -1    0    0    0  501 -0.00000000000E+00 -0.00000000000E+00 -0.14435713989E+03  0.14435713991E+03  0.25500000000E-02 0. -1.
    5000001    1    1    2    0    0  0.47903978553E+02 -0.18532235898E+03  0.21188859728E+03  0.34187709130E+03  0.18800000000E+03 0.  0.
   -5000001    1    1    2    0    0 -0.47903978553E+02  0.18532235898E+03  0.14739033295E+03  0.30611611873E+03  0.18800000000E+03 0.  0.
<mgrwt>
<rscale>  0 0.53927159E+03</rscale>
<asrwt>0</asrwt>
<pdfrwt beam="1">  1        2 0.71948010E-01 0.53927159E+03</pdfrwt>
<pdfrwt beam="2">  1       -2 0.20622449E-01 0.53927159E+03</pdfrwt>
<totfact> 0.13451603E+03</totfact>
</mgrwt>
</event>
<event>
 4    1  0.2153371E-005  0.5882722E+03  0.7818608E-02  0.9930041E-01
         -2   -1    0    0    0  501 -0.00000000000E+00  0.00000000000E+00  0.45317813351E+02  0.45317813423E+02  0.25500000000E-02 0. -1.
          2   -1    0    0  501    0  0.00000000000E+00 -0.00000000000E+00 -0.19090954880E+04  0.19090954880E+04  0.25500000000E-02 0.  1.
    5000001    1    1    2    0    0  0.40658951676E+02  0.18660500877E+03 -0.13346607351E+04  0.13613000615E+04  0.18800000000E+03 0.  0.
   -5000001    1    1    2    0    0 -0.40658951676E+02 -0.18660500877E+03 -0.52911693957E+03  0.59311323994E+03  0.18800000000E+03 0.  0.
<mgrwt>
<rscale>  0 0.58827216E+03</rscale>
<asrwt>0</asrwt>
<pdfrwt beam="1">  1        2 0.27272788E+00 0.58827216E+03</pdfrwt>
<pdfrwt beam="2">  1       -2 0.64739745E-02 0.58827216E+03</pdfrwt>
<totfact> 0.12623284E+03</totfact>
</mgrwt>
</event>
<event>
 4    1  0.2153371E-005  0.6574146E+03  0.7818608E-02  0.9792965E-01
          2   -1    0    0  501    0  0.00000000000E+00  0.00000000000E+00  0.10767057608E+04  0.10767057608E+04  0.25500000000E-02 0.  1.
         -2   -1    0    0    0  501 -0.00000000000E+00 -0.00000000000E+00 -0.10035099102E+03  0.10035099105E+03  0.25500000000E-02 0. -1.
    5000001    1    1    2    0    0 -0.29311217586E+02  0.26777827822E+03  0.50937238989E+03  0.60610938397E+03  0.18800000000E+03 0.  0.
   -5000001    1    1    2    0    0  0.29311217586E+02 -0.26777827822E+03  0.46698237988E+03  0.57094736787E+03  0.18800000000E+03 0.  0.
<mgrwt>
<rscale>  0 0.65741460E+03</rscale>
<asrwt>0</asrwt>
<pdfrwt beam="1">  1        2 0.15381511E+00 0.65741460E+03</pdfrwt>
<pdfrwt beam="2">  1       -2 0.14335856E-01 0.65741460E+03</pdfrwt>
<totfact> 0.95931772E+02</totfact>
</mgrwt>
</event>
