<event>
 6    2  0.1372363E+002  0.1099984E+03  0.7546771E-02  0.1260573E+00
         21   -1    0    0  501  502  0.00000000000E+00  0.00000000000E+00  0.36287379709E+02  0.36287379709E+02  0.00000000000E+00 0. -1.
          2   -1    0    0  502    0 -0.00000000000E+00 -0.00000000000E+00 -0.24007710394E+03  0.24007710394E+03  0.00000000000E+00 0. -1.
         24    2    1    2    0    0  0.32043141016E+01 -0.74735481521E+02 -0.14007902944E+03  0.17810608728E+03  0.80647281478E+02 0.  0.
        -11    1    3    3    0    0 -0.13556818633E+02  0.12705704322E+02 -0.40316963778E+02  0.44392339677E+02  0.00000000000E+00 0.  1.
         12    1    3    3    0    0  0.16761132735E+02 -0.87441185844E+02 -0.99762065658E+02  0.13371374760E+03  0.00000000000E+00 0. -1.
          1    1    1    2  501    0 -0.32043141016E+01  0.74735481521E+02 -0.63710694800E+02  0.98258396379E+02  0.00000000000E+00 0. -1.
<mgrwt>
<rscale>  1 0.10999838E+03</rscale>
<asrwt>0</asrwt>
<pdfrwt beam="1">  1       21 0.55826738E-02 0.10999838E+03</pdfrwt>
<pdfrwt beam="2">  1        2 0.36934939E-01 0.10999838E+03</pdfrwt>
<totfact> 0.37135937E+05</totfact>
</mgrwt>
</event>
<event>
 6    2  0.1372363E+002  0.8868226E+02  0.7546771E-02  0.1306075E+00
         21   -1    0    0  501  502  0.00000000000E+00  0.00000000000E+00  0.37438273429E+01  0.37438273429E+01  0.00000000000E+00 0. -1.
          2   -1    0    0  502    0 -0.00000000000E+00 -0.00000000000E+00 -0.11419463620E+04  0.11419463620E+04  0.00000000000E+00 0. -1.
         24    2    1    2    0    0  0.19886245476E+02 -0.30580863457E+02 -0.93873299701E+03  0.94291260572E+03  0.80832483501E+02 0.  0.
        -13    1    3    3    0    0 -0.65198478819E+01  0.24514366492E+02 -0.18906331242E+03  0.19075743415E+03  0.00000000000E+00 0.  1.
         14    1    3    3    0    0  0.26406093358E+02 -0.55095229950E+02 -0.74966968459E+03  0.75215517158E+03  0.00000000000E+00 0. -1.
          1    1    1    2  501    0 -0.19886245476E+02  0.30580863457E+02 -0.19946953762E+03  0.20277758359E+03  0.00000000000E+00 0. -1.
<mgrwt>
<rscale>  1 0.88682255E+02</rscale>
<asrwt>0</asrwt>
<pdfrwt beam="1">  1       21 0.57597359E-03 0.88682255E+02</pdfrwt>
<pdfrwt beam="2">  1        2 0.17568401E+00 0.88682255E+02</pdfrwt>
<totfact> 0.23213154E+06</totfact>
</mgrwt>
</event>
<event>
 6    2  0.1372363E+002  0.1040986E+03  0.7546771E-02  0.1271906E+00
          2   -1    0    0  502    0 -0.00000000000E+00  0.00000000000E+00  0.12127904384E+04  0.12127904384E+04  0.00000000000E+00 0. -1.
         21   -1    0    0  501  502  0.00000000000E+00 -0.00000000000E+00 -0.17167043490E+02  0.17167043490E+02  0.00000000000E+00 0. -1.
         24    2    1    2    0    0  0.24848677854E+02  0.62129417527E+02  0.11346948271E+04  0.11394599035E+04  0.79743336871E+02 0.  0.
        -11    1    3    3    0    0 -0.10113677080E+02 -0.90480426647E+01  0.48169657580E+02  0.50044674557E+02  0.00000000000E+00 0.  1.
         12    1    3    3    0    0  0.34962354935E+02  0.71177460192E+02  0.10865251695E+04  0.10894152289E+04  0.00000000000E+00 0. -1.
          1    1    1    2  501    0 -0.24848677854E+02 -0.62129417527E+02  0.60928567785E+02  0.90497578342E+02  0.00000000000E+00 0. -1.
<mgrwt>
<rscale>  1 0.10409861E+03</rscale>
<asrwt>0</asrwt>
<pdfrwt beam="1">  1       21 0.26410846E-02 0.10409861E+03</pdfrwt>
<pdfrwt beam="2">  1        2 0.18658308E+00 0.10409861E+03</pdfrwt>
<totfact> 0.19410448E+05</totfact>
</mgrwt>
</event>
<event>
 6    2  0.1372363E+002  0.9135985E+02  0.7546771E-02  0.1299592E+00
         21   -1    0    0  501  502  0.00000000000E+00  0.00000000000E+00  0.27302162729E+01  0.27302162729E+01  0.00000000000E+00 0. -1.
          2   -1    0    0  502    0 -0.00000000000E+00 -0.00000000000E+00 -0.18444852324E+04  0.18444852324E+04  0.00000000000E+00 0. -1.
         24    2    1    2    0    0 -0.53905186842E+00  0.40782469149E+02 -0.15412298175E+04  0.15439352228E+04  0.81750361658E+02 0.  0.
        -13    1    3    3    0    0  0.18178956130E+02 -0.28195590287E+01 -0.86632363943E+02  0.88564049374E+02  0.00000000000E+00 0.  1.
         14    1    3    3    0    0 -0.18718007998E+02  0.43602028178E+02 -0.14545974535E+04  0.14553711734E+04  0.00000000000E+00 0. -1.
          1    1    1    2  501    0  0.53905186842E+00 -0.40782469149E+02 -0.30052519863E+03  0.30328022583E+03  0.00000000000E+00 0. -1.
<mgrwt>
<rscale>  1 0.91359849E+02</rscale>
<asrwt>0</asrwt>
<pdfrwt beam="1">  1       21 0.42003264E-03 0.91359849E+02</pdfrwt>
<pdfrwt beam="2">  1        2 0.28376738E+00 0.91359849E+02</pdfrwt>
<totfact> 0.16369449E+06</totfact>
</mgrwt>
</event>
<event>
 6    2  0.1372363E+002  0.8453989E+02  0.7546771E-02  0.1316640E+00
         -3   -1    0    0    0  501 -0.00000000000E+00  0.00000000000E+00  0.29588204547E+01  0.29588204547E+01  0.00000000000E+00 0.  1.
         21   -1    0    0  501  502  0.00000000000E+00 -0.00000000000E+00 -0.10655444098E+04  0.10655444098E+04  0.00000000000E+00 0.  1.
         24    2    1    2    0    0  0.20607372026E+02  0.12756208694E+02 -0.69564414935E+03  0.70076228199E+03  0.80991411261E+02 0.  0.
        -13    1    3    3    0    0  0.39119802843E+02  0.26626186505E-02 -0.16242876935E+03  0.16707322974E+03  0.00000000000E+00 0.  1.
         14    1    3    3    0    0 -0.18512430817E+02  0.12753546075E+02 -0.53321538000E+03  0.53368905226E+03  0.00000000000E+00 0. -1.
         -4    1    1    2    0  502 -0.20607372026E+02 -0.12756208694E+02 -0.36694144002E+03  0.36774094829E+03  0.00000000000E+00 0.  1.
<mgrwt>
<rscale>  1 0.84539892E+02</rscale>
<asrwt>0</asrwt>
<pdfrwt beam="1">  1       21 0.16392995E+00 0.84539892E+02</pdfrwt>
<pdfrwt beam="2">  1       -3 0.45520304E-03 0.84539892E+02</pdfrwt>
<totfact> 0.96842031E+04</totfact>
</mgrwt>
</event>
<event>
 6    2  0.1372363E+002  0.8599454E+02  0.7546771E-02  0.1312852E+00
         -1   -1    0    0    0  501 -0.00000000000E+00  0.00000000000E+00  0.73352832799E+03  0.73352832799E+03  0.00000000000E+00 0.  1.
         21   -1    0    0  501  502  0.00000000000E+00 -0.00000000000E+00 -0.49229857083E+01  0.49229857083E+01  0.00000000000E+00 0.  1.
         24    2    1    2    0    0  0.30043394715E+02  0.10916531177E+02  0.58822272731E+03  0.59447543098E+03  0.79832855973E+02 0.  0.
        -11    1    3    3    0    0  0.34345380885E+02  0.41943231211E+02  0.40156470237E+03  0.40520741605E+03  0.00000000000E+00 0.  1.
         12    1    3    3    0    0 -0.43019861692E+01 -0.31026700034E+02  0.18665802494E+03  0.18926801493E+03  0.00000000000E+00 0. -1.
         -2    1    1    2    0  502 -0.30043394715E+02 -0.10916531177E+02  0.14038261497E+03  0.14397588272E+03  0.00000000000E+00 0.  1.
<mgrwt>
<rscale>  1 0.85994541E+02</rscale>
<asrwt>0</asrwt>
<pdfrwt beam="1">  1       21 0.75738300E-03 0.85994541E+02</pdfrwt>
<pdfrwt beam="2">  1       -1 0.11285043E+00 0.85994541E+02</pdfrwt>
<totfact> 0.39292277E+05</totfact>
</mgrwt>
</event>
<event>
 6    2  0.1372363E+002  0.9920815E+02  0.7546771E-02  0.1281970E+00
          2   -1    0    0  502    0 -0.00000000000E+00  0.00000000000E+00  0.26116070976E+03  0.26116070976E+03  0.00000000000E+00 0. -1.
         21   -1    0    0  501  502  0.00000000000E+00 -0.00000000000E+00 -0.36202717933E+02  0.36202717933E+02  0.00000000000E+00 0. -1.
         24    2    1    2    0    0  0.16992055180E+02 -0.66383494579E+02  0.20208417597E+03  0.22512278994E+03  0.71740909393E+02 0.  0.
        -13    1    3    3    0    0  0.43619309528E+02 -0.37910232158E+02  0.95400813571E+02  0.11153988119E+03  0.00000000000E+00 0.  1.
         14    1    3    3    0    0 -0.26627254348E+02 -0.28473262421E+02  0.10668336240E+03  0.11358290875E+03  0.00000000000E+00 0. -1.
          1    1    1    2  501    0 -0.16992055180E+02  0.66383494579E+02  0.22873815862E+02  0.72240637760E+02  0.00000000000E+00 0. -1.
<mgrwt>
<rscale>  1 0.99208147E+02</rscale>
<asrwt>0</asrwt>
<pdfrwt beam="1">  1       21 0.55696491E-02 0.99208147E+02</pdfrwt>
<pdfrwt beam="2">  1        2 0.40178570E-01 0.99208147E+02</pdfrwt>
<totfact> 0.33854236E+05</totfact>
</mgrwt>
</event>
<event>
 6    2  0.1372363E+002  0.8123944E+02  0.7546771E-02  0.1325570E+00
          2   -1    0    0  502    0 -0.00000000000E+00  0.00000000000E+00  0.22639695823E+03  0.22639695823E+03  0.00000000000E+00 0. -1.
         21   -1    0    0  501  502  0.00000000000E+00 -0.00000000000E+00 -0.44135236115E+02  0.44135236115E+02  0.00000000000E+00 0.  1.
         24    2    1    2    0    0 -0.23331414942E+02 -0.11462831952E+02  0.21435406268E+03  0.22923243936E+03  0.76968146830E+02 0.  0.
        -11    1    3    3    0    0 -0.26983851415E+02 -0.38341238637E+02  0.85079385081E+02  0.97142578632E+02  0.00000000000E+00 0.  1.
         12    1    3    3    0    0  0.36524364732E+01  0.26878406685E+02  0.12927467760E+03  0.13208986072E+03  0.00000000000E+00 0. -1.
          1    1    1    2  501    0  0.23331414942E+02  0.11462831952E+02 -0.32092340563E+02  0.41299754991E+02  0.00000000000E+00 0. -1.
<mgrwt>
<rscale>  1 0.81239443E+02</rscale>
<asrwt>0</asrwt>
<pdfrwt beam="1">  1       21 0.67900365E-02 0.81239443E+02</pdfrwt>
<pdfrwt beam="2">  1        2 0.34830301E-01 0.81239443E+02</pdfrwt>
<totfact> 0.27782759E+05</totfact>
</mgrwt>
</event>
<event>
 6    2  0.1372363E+002  0.8514007E+02  0.7546771E-02  0.1315067E+00
         21   -1    0    0  501  502  0.00000000000E+00  0.00000000000E+00  0.97549528008E+02  0.97549528008E+02  0.00000000000E+00 0. -1.
         -3   -1    0    0    0  501 -0.00000000000E+00 -0.00000000000E+00 -0.29971833167E+02  0.29971833167E+02  0.00000000000E+00 0.  1.
         24    2    1    2    0    0 -0.20797950079E+02  0.46604329391E+01  0.44357122259E+02  0.96002012296E+02  0.82429107160E+02 0.  0.
        -11    1    3    3    0    0  0.23821898075E+02 -0.91615011001E+00 -0.96559982780E+01  0.25720817671E+02  0.00000000000E+00 0.  1.
         12    1    3    3    0    0 -0.44619848154E+02  0.55765830491E+01  0.54013120537E+02  0.70281194625E+02  0.00000000000E+00 0. -1.
         -4    1    1    2    0  502  0.20797950079E+02 -0.46604329391E+01  0.23220572582E+02  0.31519348878E+02  0.00000000000E+00 0.  1.
<mgrwt>
<rscale>  1 0.85140073E+02</rscale>
<asrwt>0</asrwt>
<pdfrwt beam="1">  1       21 0.15007620E-01 0.85140073E+02</pdfrwt>
<pdfrwt beam="2">  1       -3 0.46110513E-02 0.85140073E+02</pdfrwt>
<totfact> 0.44373149E+05</totfact>
</mgrwt>
</event>
<event>
 6    2  0.1372363E+002  0.8081495E+02  0.7546771E-02  0.1326755E+00
         -3   -1    0    0    0  501 -0.00000000000E+00  0.00000000000E+00  0.30906924145E+02  0.30906924145E+02  0.00000000000E+00 0.  1.
         21   -1    0    0  501  502  0.00000000000E+00 -0.00000000000E+00 -0.37576182243E+03  0.37576182243E+03  0.00000000000E+00 0.  1.
         24    2    1    2    0    0  0.41409932574E+01  0.28578715611E+02 -0.23700350326E+02  0.84218541914E+02  0.75479569324E+02 0.  0.
        -13    1    3    3    0    0  0.20751084090E+02  0.44614615681E+02  0.25365475715E+01  0.49269721908E+02  0.00000000000E+00 0.  1.
         14    1    3    3    0    0 -0.16610090833E+02 -0.16035900070E+02 -0.26236897898E+02  0.34948820006E+02  0.00000000000E+00 0. -1.
         -4    1    1    2    0  502 -0.41409932574E+01 -0.28578715611E+02 -0.32115454796E+03  0.32245020466E+03  0.00000000000E+00 0.  1.
<mgrwt>
<rscale>  1 0.80814950E+02</rscale>
<asrwt>0</asrwt>
<pdfrwt beam="1">  1       21 0.57809513E-01 0.80814950E+02</pdfrwt>
<pdfrwt beam="2">  1       -3 0.47549113E-02 0.80814950E+02</pdfrwt>
<totfact> 0.31921498E+04</totfact>
</mgrwt>
</event>
<event>
 6    2  0.1372363E+002  0.8346142E+02  0.7546771E-02  0.1319506E+00
         21   -1    0    0  501  502  0.00000000000E+00  0.00000000000E+00  0.43195335771E+01  0.43195335771E+01  0.00000000000E+00 0. -1.
          2   -1    0    0  502    0 -0.00000000000E+00 -0.00000000000E+00 -0.12668509214E+04  0.12668509214E+04  0.00000000000E+00 0. -1.
         24    2    1    2    0    0  0.24032088248E+02  0.57730533751E+01 -0.12124806337E+04  0.12153497832E+04  0.79717871063E+02 0.  0.
        -13    1    3    3    0    0  0.48149009036E+01 -0.30572698916E+02 -0.84676838113E+03  0.84733379755E+03  0.00000000000E+00 0.  1.
         14    1    3    3    0    0  0.19217187344E+02  0.36345752291E+02 -0.36571225260E+03  0.36801598566E+03  0.00000000000E+00 0. -1.
          1    1    1    2  501    0 -0.24032088248E+02 -0.57730533751E+01 -0.50050754053E+02  0.55820671728E+02  0.00000000000E+00 0. -1.
<mgrwt>
<rscale>  1 0.83461418E+02</rscale>
<asrwt>0</asrwt>
<pdfrwt beam="1">  1       21 0.66454390E-03 0.83461418E+02</pdfrwt>
<pdfrwt beam="2">  1        2 0.19490006E+00 0.83461418E+02</pdfrwt>
<totfact> 0.15854580E+06</totfact>
</mgrwt>
</event>
<event>
 6    2  0.1372363E+002  0.9201897E+02  0.7546771E-02  0.1298035E+00
          2   -1    0    0  502    0 -0.00000000000E+00  0.00000000000E+00  0.16751136681E+04  0.16751136681E+04  0.00000000000E+00 0. -1.
         21   -1    0    0  501  502  0.00000000000E+00 -0.00000000000E+00 -0.30137833803E+01  0.30137833803E+01  0.00000000000E+00 0.  1.
         24    2    1    2    0    0 -0.36980344639E+02  0.86725352143E+01  0.14402648136E+04  0.14432013802E+04  0.83813673223E+02 0.  0.
        -13    1    3    3    0    0 -0.30450689345E+02  0.98100256341E+01  0.17384067478E+03  0.17675989730E+03  0.00000000000E+00 0.  1.
         14    1    3    3    0    0 -0.65296552944E+01 -0.11374904198E+01  0.12664241388E+04  0.12664414829E+04  0.00000000000E+00 0. -1.
          1    1    1    2  501    0  0.36980344639E+02 -0.86725352143E+01  0.23183507113E+03  0.23492607127E+03  0.00000000000E+00 0. -1.
<mgrwt>
<rscale>  1 0.92018969E+02</rscale>
<asrwt>0</asrwt>
<pdfrwt beam="1">  1       21 0.46366032E-03 0.92018969E+02</pdfrwt>
<pdfrwt beam="2">  1        2 0.25770905E+00 0.92018969E+02</pdfrwt>
<totfact> 0.17128589E+06</totfact>
</mgrwt>
</event>
<event>
 6    2  0.1372363E+002  0.1060348E+03  0.7546771E-02  0.1268094E+00
         21   -1    0    0  501  502  0.00000000000E+00  0.00000000000E+00  0.64742582229E+03  0.64742582229E+03  0.00000000000E+00 0.  1.
         -1   -1    0    0    0  501 -0.00000000000E+00 -0.00000000000E+00 -0.31906171035E+02  0.31906171035E+02  0.00000000000E+00 0.  1.
         24    2    1    2    0    0 -0.59792141695E+02  0.38773368497E+02  0.65326558122E+02  0.12454292166E+03  0.78516914262E+02 0.  0.
        -11    1    3    3    0    0 -0.41070400567E+02  0.51095551603E+02  0.11928692680E+02  0.66632026124E+02  0.00000000000E+00 0.  1.
         12    1    3    3    0    0 -0.18721741128E+02 -0.12322183107E+02  0.53397865443E+02  0.57910895531E+02  0.00000000000E+00 0. -1.
         -2    1    1    2    0  502  0.59792141695E+02 -0.38773368497E+02  0.55019309313E+03  0.55478907167E+03  0.00000000000E+00 0.  1.
<mgrwt>
<rscale>  1 0.10603481E+03</rscale>
<asrwt>0</asrwt>
<pdfrwt beam="1">  1       21 0.99603963E-01 0.10603481E+03</pdfrwt>
<pdfrwt beam="2">  1       -1 0.49086422E-02 0.10603481E+03</pdfrwt>
<totfact> 0.13345053E+04</totfact>
</mgrwt>
</event>
<event>
 6    2  0.1372363E+002  0.8471332E+02  0.7546771E-02  0.1316184E+00
          4   -1    0    0  502    0 -0.00000000000E+00  0.00000000000E+00  0.31770292916E+02  0.31770292916E+02  0.00000000000E+00 0. -1.
         21   -1    0    0  501  502  0.00000000000E+00 -0.00000000000E+00 -0.16681334928E+03  0.16681334928E+03  0.00000000000E+00 0. -1.
         24    2    1    2    0    0  0.17586860552E+02  0.33310150886E+02 -0.34954169877E+02  0.91641372656E+02  0.75878082306E+02 0.  0.
        -13    1    3    3    0    0 -0.58817204062E+01 -0.22960723909E+02 -0.11095765404E+02  0.26170699021E+02  0.00000000000E+00 0.  1.
         14    1    3    3    0    0  0.23468580958E+02  0.56270874794E+02 -0.23858404472E+02  0.65470673635E+02  0.00000000000E+00 0. -1.
          3    1    1    2  501    0 -0.17586860552E+02 -0.33310150886E+02 -0.10008888649E+03  0.10694226954E+03  0.00000000000E+00 0. -1.
<mgrwt>
<rscale>  1 0.84713324E+02</rscale>
<asrwt>0</asrwt>
<pdfrwt beam="1">  1       21 0.25663592E-01 0.84713324E+02</pdfrwt>
<pdfrwt beam="2">  1        4 0.48877374E-02 0.84713324E+02</pdfrwt>
<totfact> 0.13403594E+05</totfact>
</mgrwt>
</event>
<event>
 6    2  0.1372363E+002  0.8658078E+02  0.7546771E-02  0.1311350E+00
         -3   -1    0    0    0  501 -0.00000000000E+00  0.00000000000E+00  0.12224769561E+02  0.12224769561E+02  0.00000000000E+00 0.  1.
         21   -1    0    0  501  502  0.00000000000E+00 -0.00000000000E+00 -0.28710570345E+03  0.28710570345E+03  0.00000000000E+00 0.  1.
         24    2    1    2    0    0  0.12929890468E+02  0.24756302874E+02 -0.16978130931E+03  0.19058311586E+03  0.81952269414E+02 0.  0.
        -11    1    3    3    0    0 -0.12011797918E+02  0.26709486255E+01  0.45332453514E+01  0.13113640578E+02  0.00000000000E+00 0.  1.
         12    1    3    3    0    0  0.24941688386E+02  0.22085354249E+02 -0.17431455466E+03  0.17746947528E+03  0.00000000000E+00 0. -1.
         -4    1    1    2    0  502 -0.12929890468E+02 -0.24756302874E+02 -0.10509962458E+03  0.10874735715E+03  0.00000000000E+00 0.  1.
<mgrwt>
<rscale>  1 0.86580778E+02</rscale>
<asrwt>0</asrwt>
<pdfrwt beam="1">  1       21 0.44170105E-01 0.86580778E+02</pdfrwt>
<pdfrwt beam="2">  1       -3 0.18807339E-02 0.86580778E+02</pdfrwt>
<totfact> 0.23031154E+05</totfact>
</mgrwt>
</event>
<event>
 6    2  0.1372363E+002  0.8361814E+02  0.7546771E-02  0.1319086E+00
         21   -1    0    0  501  502  0.00000000000E+00  0.00000000000E+00  0.32537946516E+01  0.32537946516E+01  0.00000000000E+00 0.  1.
          2   -1    0    0  502    0 -0.00000000000E+00 -0.00000000000E+00 -0.87737772447E+03  0.87737772447E+03  0.00000000000E+00 0. -1.
         24    2    1    2    0    0  0.22508339542E+02  0.29451661710E+01 -0.72135664359E+03  0.72618689120E+03  0.80477912153E+02 0.  0.
        -13    1    3    3    0    0  0.14982272562E+02  0.18743145767E+01 -0.21408298576E+02  0.26197266922E+02  0.00000000000E+00 0.  1.
         14    1    3    3    0    0  0.75260669804E+01  0.10708515943E+01 -0.69994834502E+03  0.69998962428E+03  0.00000000000E+00 0. -1.
          1    1    1    2  501    0 -0.22508339542E+02 -0.29451661710E+01 -0.15276728623E+03  0.15444462793E+03  0.00000000000E+00 0. -1.
<mgrwt>
<rscale>  1 0.83618142E+02</rscale>
<asrwt>0</asrwt>
<pdfrwt beam="1">  1       21 0.50058326E-03 0.83618142E+02</pdfrwt>
<pdfrwt beam="2">  1        2 0.13498133E+00 0.83618142E+02</pdfrwt>
<totfact> 0.40833352E+06</totfact>
</mgrwt>
</event>
<event>
 6    2  0.1372363E+002  0.8936627E+02  0.7546771E-02  0.1304394E+00
          2   -1    0    0  502    0 -0.00000000000E+00  0.00000000000E+00  0.39163458384E+02  0.39163458384E+02  0.00000000000E+00 0. -1.
         21   -1    0    0  501  502  0.00000000000E+00 -0.00000000000E+00 -0.12640670060E+03  0.12640670060E+03  0.00000000000E+00 0.  1.
         24    2    1    2    0    0 -0.30863387956E+02 -0.20413386901E+02 -0.92004009544E+02  0.12826171508E+03  0.81345403701E+02 0.  0.
        -11    1    3    3    0    0  0.18193198984E+02  0.19077100757E+02 -0.28629950928E+02  0.38917892449E+02  0.00000000000E+00 0.  1.
         12    1    3    3    0    0 -0.49056586940E+02 -0.39490487658E+02 -0.63374058616E+02  0.89343822636E+02  0.00000000000E+00 0. -1.
          1    1    1    2  501    0  0.30863387956E+02  0.20413386901E+02  0.47607673252E+01  0.37308443902E+02  0.00000000000E+00 0. -1.
<mgrwt>
<rscale>  1 0.89366268E+02</rscale>
<asrwt>0</asrwt>
<pdfrwt beam="1">  1       21 0.19447185E-01 0.89366268E+02</pdfrwt>
<pdfrwt beam="2">  1        2 0.60251475E-02 0.89366268E+02</pdfrwt>
<totfact> 0.33963969E+05</totfact>
</mgrwt>
</event>
<event>
 6    2  0.1372363E+002  0.1007790E+03  0.7546771E-02  0.1278666E+00
          4   -1    0    0  502    0 -0.00000000000E+00  0.00000000000E+00  0.78884326428E+02  0.78884326428E+02  0.00000000000E+00 0. -1.
         21   -1    0    0  501  502  0.00000000000E+00 -0.00000000000E+00 -0.85028879193E+02  0.85028879193E+02  0.00000000000E+00 0.  1.
         24    2    1    2    0    0 -0.54047063548E+02  0.29977369564E+02  0.58799964837E+01  0.10095037890E+03  0.79603246650E+02 0.  0.
        -11    1    3    3    0    0 -0.66940511183E+02  0.39037205136E+02 -0.10524927824E+02  0.78203002039E+02  0.00000000000E+00 0.  1.
         12    1    3    3    0    0  0.12893447635E+02 -0.90598355715E+01  0.16404924307E+02  0.22747376861E+02  0.00000000000E+00 0. -1.
          3    1    1    2  501    0  0.54047063548E+02 -0.29977369564E+02 -0.12024549249E+02  0.62962826721E+02  0.00000000000E+00 0. -1.
<mgrwt>
<rscale>  1 0.10077899E+03</rscale>
<asrwt>0</asrwt>
<pdfrwt beam="1">  1       21 0.13081366E-01 0.10077899E+03</pdfrwt>
<pdfrwt beam="2">  1        4 0.12136050E-01 0.10077899E+03</pdfrwt>
<totfact> 0.10562495E+05</totfact>
</mgrwt>
</event>
<event>
 6    2  0.1372363E+002  0.1538372E+03  0.7546771E-02  0.1195836E+00
         21   -1    0    0  501  502  0.00000000000E+00  0.00000000000E+00  0.52161009004E+02  0.52161009004E+02  0.00000000000E+00 0.  1.
         -1   -1    0    0    0  501 -0.00000000000E+00 -0.00000000000E+00 -0.10838711981E+04  0.10838711981E+04  0.00000000000E+00 0.  1.
         24    2    1    2    0    0 -0.10621070525E+03 -0.78570361128E+02 -0.98340437311E+03  0.99536427399E+03  0.78815362249E+02 0.  0.
        -13    1    3    3    0    0 -0.60222379673E+02 -0.72980780263E+02 -0.44378246865E+03  0.45375743385E+03  0.00000000000E+00 0.  1.
         14    1    3    3    0    0 -0.45988325576E+02 -0.55895808659E+01 -0.53962190446E+03  0.54160684013E+03  0.00000000000E+00 0. -1.
         -2    1    1    2    0  502  0.10621070525E+03  0.78570361128E+02 -0.48305816034E+02  0.14066793316E+03  0.00000000000E+00 0.  1.
<mgrwt>
<rscale>  1 0.15383718E+03</rscale>
<asrwt>0</asrwt>
<pdfrwt beam="1">  1       21 0.80247712E-02 0.15383718E+03</pdfrwt>
<pdfrwt beam="2">  1       -1 0.16674940E+00 0.15383718E+03</pdfrwt>
<totfact> 0.32482522E+03</totfact>
</mgrwt>
</event>
<event>
 6    2  0.1372363E+002  0.8514811E+02  0.7546771E-02  0.1315046E+00
          2   -1    0    0  502    0 -0.00000000000E+00  0.00000000000E+00  0.11402984929E+04  0.11402984929E+04  0.00000000000E+00 0. -1.
         21   -1    0    0  501  502  0.00000000000E+00 -0.00000000000E+00 -0.89606453488E+01  0.89606453488E+01  0.00000000000E+00 0. -1.
         24    2    1    2    0    0  0.19562970592E+02  0.47117030199E+01  0.11249202172E+04  0.11281381548E+04  0.82736275111E+02 0.  0.
        -11    1    3    3    0    0  0.15429570154E+02 -0.32617078571E+02  0.27088881319E+03  0.27328134689E+03  0.00000000000E+00 0.  1.
         12    1    3    3    0    0  0.41334004385E+01  0.37328781591E+02  0.85403140400E+03  0.85485680786E+03  0.00000000000E+00 0. -1.
          1    1    1    2  501    0 -0.19562970592E+02 -0.47117030199E+01  0.64176303500E+01  0.21120983477E+02  0.00000000000E+00 0. -1.
<mgrwt>
<rscale>  1 0.85148113E+02</rscale>
<asrwt>0</asrwt>
<pdfrwt beam="1">  1       21 0.13785617E-02 0.85148113E+02</pdfrwt>
<pdfrwt beam="2">  1        2 0.17543042E+00 0.85148113E+02</pdfrwt>
<totfact> 0.59612918E+05</totfact>
</mgrwt>
</event>
<event>
 6    2  0.1372363E+002  0.8576918E+02  0.7546771E-02  0.1313433E+00
          2   -1    0    0  502    0 -0.00000000000E+00  0.00000000000E+00  0.11868800298E+03  0.11868800298E+03  0.00000000000E+00 0. -1.
         21   -1    0    0  501  502  0.00000000000E+00 -0.00000000000E+00 -0.56130083292E+02  0.56130083292E+02  0.00000000000E+00 0. -1.
         24    2    1    2    0    0 -0.53265235645E+01 -0.35299494292E+02  0.93998280679E+02  0.12724790181E+03  0.77986701383E+02 0.  0.
        -11    1    3    3    0    0  0.28482762881E+02 -0.32079674503E+02  0.23308100299E+02  0.48822544353E+02  0.00000000000E+00 0.  1.
         12    1    3    3    0    0 -0.33809286445E+02 -0.32198197888E+01  0.70690180380E+02  0.78425357452E+02  0.00000000000E+00 0. -1.
          1    1    1    2  501    0  0.53265235645E+01  0.35299494292E+02 -0.31440360994E+02  0.47570184464E+02  0.00000000000E+00 0. -1.
<mgrwt>
<rscale>  1 0.85769177E+02</rscale>
<asrwt>0</asrwt>
<pdfrwt beam="1">  1       21 0.86353974E-02 0.85769177E+02</pdfrwt>
<pdfrwt beam="2">  1        2 0.18259693E-01 0.85769177E+02</pdfrwt>
<totfact> 0.37403574E+05</totfact>
</mgrwt>
</event>
<event>
 6    2  0.1372363E+002  0.8810868E+02  0.7546771E-02  0.1307498E+00
         21   -1    0    0  501  502  0.00000000000E+00  0.00000000000E+00  0.29118230746E+03  0.29118230746E+03  0.00000000000E+00 0. -1.
         -3   -1    0    0    0  501 -0.00000000000E+00 -0.00000000000E+00 -0.11124747320E+02  0.11124747320E+02  0.00000000000E+00 0.  1.
         24    2    1    2    0    0  0.24442958356E+02 -0.11825712206E+00  0.23619307669E+03  0.25209186678E+03  0.84650266514E+02 0.  0.
        -13    1    3    3    0    0  0.26997606930E+02  0.26876890133E+02  0.44886032899E+02  0.58872692758E+02  0.00000000000E+00 0.  1.
         14    1    3    3    0    0 -0.25546485743E+01 -0.26995147255E+02  0.19130704379E+03  0.19321917402E+03  0.00000000000E+00 0. -1.
         -4    1    1    2    0  502 -0.24442958356E+02  0.11825712206E+00  0.43864483449E+02  0.50215188003E+02  0.00000000000E+00 0.  1.
<mgrwt>
<rscale>  1 0.88108682E+02</rscale>
<asrwt>0</asrwt>
<pdfrwt beam="1">  1       21 0.44797272E-01 0.88108682E+02</pdfrwt>
<pdfrwt beam="2">  1       -3 0.17114998E-02 0.88108682E+02</pdfrwt>
<totfact> 0.25863241E+05</totfact>
</mgrwt>
</event>
<event>
 6    2  0.1372363E+002  0.8432299E+02  0.7546771E-02  0.1317213E+00
         21   -1    0    0  501  502  0.00000000000E+00  0.00000000000E+00  0.94521302351E+01  0.94521302351E+01  0.00000000000E+00 0. -1.
          2   -1    0    0  502    0 -0.00000000000E+00 -0.00000000000E+00 -0.75734771939E+03  0.75734771939E+03  0.00000000000E+00 0. -1.
         24    2    1    2    0    0  0.13965521007E+02 -0.35572280875E+02 -0.70213651209E+03  0.70718176447E+03  0.75166105698E+02 0.  0.
        -11    1    3    3    0    0 -0.95184823878E+01 -0.24605493072E+02 -0.74910868958E+02  0.79420841624E+02  0.00000000000E+00 0.  1.
         12    1    3    3    0    0  0.23484003395E+02 -0.10966787803E+02 -0.62722564313E+03  0.62776092285E+03  0.00000000000E+00 0. -1.
          1    1    1    2  501    0 -0.13965521007E+02  0.35572280875E+02 -0.45759077062E+02  0.59618085152E+02  0.00000000000E+00 0. -1.
<mgrwt>
<rscale>  1 0.84322988E+02</rscale>
<asrwt>0</asrwt>
<pdfrwt beam="1">  1       21 0.14541738E-02 0.84322988E+02</pdfrwt>
<pdfrwt beam="2">  1        2 0.11651504E+00 0.84322988E+02</pdfrwt>
<totfact> 0.93409625E+05</totfact>
</mgrwt>
</event>
<event>
 6    2  0.1372363E+002  0.8631645E+02  0.7546771E-02  0.1312025E+00
         21   -1    0    0  501  502  0.00000000000E+00  0.00000000000E+00  0.29989940763E+01  0.29989940763E+01  0.00000000000E+00 0.  1.
          2   -1    0    0  502    0 -0.00000000000E+00 -0.00000000000E+00 -0.12256992671E+04  0.12256992671E+04  0.00000000000E+00 0. -1.
         24    2    1    2    0    0 -0.51240250238E+01 -0.31712617018E+02 -0.76044310324E+03  0.76532623275E+03  0.80116063064E+02 0.  0.
        -13    1    3    3    0    0  0.10630803842E+02 -0.38634580954E+02 -0.17100537570E+03  0.17563736321E+03  0.00000000000E+00 0.  1.
         14    1    3    3    0    0 -0.15754828866E+02  0.69219639353E+01 -0.58943772754E+03  0.58968886955E+03  0.00000000000E+00 0. -1.
          1    1    1    2  501    0  0.51240250238E+01  0.31712617018E+02 -0.46225716981E+03  0.46337202845E+03  0.00000000000E+00 0. -1.
<mgrwt>
<rscale>  1 0.86316448E+02</rscale>
<asrwt>0</asrwt>
<pdfrwt beam="1">  1       21 0.46138477E-03 0.86316448E+02</pdfrwt>
<pdfrwt beam="2">  1        2 0.18856868E+00 0.86316448E+02</pdfrwt>
<totfact> 0.29282813E+06</totfact>
</mgrwt>
</event>
<event>
 6    2  0.1372363E+002  0.1002647E+03  0.7546771E-02  0.1279740E+00
         21   -1    0    0  501  502  0.00000000000E+00  0.00000000000E+00  0.79121699286E+03  0.79121699286E+03  0.00000000000E+00 0. -1.
          4   -1    0    0  502    0 -0.00000000000E+00 -0.00000000000E+00 -0.84101105091E+01  0.84101105091E+01  0.00000000000E+00 0. -1.
         24    2    1    2    0    0 -0.94754217351E+01  0.57817917024E+02  0.40066490270E+03  0.41301982491E+03  0.81365326564E+02 0.  0.
        -11    1    3    3    0    0  0.10024111642E+02 -0.59333110934E+01  0.22227132351E+03  0.22257634252E+03  0.00000000000E+00 0.  1.
         12    1    3    3    0    0 -0.19499533377E+02  0.63751228118E+02  0.17839357918E+03  0.19044348238E+03  0.00000000000E+00 0. -1.
          3    1    1    2  501    0  0.94754217351E+01 -0.57817917024E+02  0.38214197965E+03  0.38660727846E+03  0.00000000000E+00 0. -1.
<mgrwt>
<rscale>  1 0.10026471E+03</rscale>
<asrwt>0</asrwt>
<pdfrwt beam="1">  1       21 0.12172563E+00 0.10026471E+03</pdfrwt>
<pdfrwt beam="2">  1        4 0.12938638E-02 0.10026471E+03</pdfrwt>
<totfact> 0.40528119E+04</totfact>
</mgrwt>
</event>
<event>
 6    2  0.1372363E+002  0.8365229E+02  0.7546771E-02  0.1318995E+00
         21   -1    0    0  501  502  0.00000000000E+00  0.00000000000E+00  0.98344826739E+01  0.98344826739E+01  0.00000000000E+00 0.  1.
          2   -1    0    0  502    0 -0.00000000000E+00 -0.00000000000E+00 -0.31359475500E+03  0.31359475500E+03  0.00000000000E+00 0. -1.
         24    2    1    2    0    0 -0.22735490904E+02 -0.13115354475E+02 -0.20952106145E+03  0.22560314741E+03  0.79427890949E+02 0.  0.
        -13    1    3    3    0    0 -0.19034267233E+02  0.11594406241E+02 -0.98367441626E+01  0.24361755292E+02  0.00000000000E+00 0.  1.
         14    1    3    3    0    0 -0.37012236712E+01 -0.24709760716E+02 -0.19968431728E+03  0.20124139211E+03  0.00000000000E+00 0. -1.
          1    1    1    2  501    0  0.22735490904E+02  0.13115354475E+02 -0.94239210876E+02  0.97826090263E+02  0.00000000000E+00 0. -1.
<mgrwt>
<rscale>  1 0.83652286E+02</rscale>
<asrwt>0</asrwt>
<pdfrwt beam="1">  1       21 0.15129975E-02 0.83652286E+02</pdfrwt>
<pdfrwt beam="2">  1        2 0.48245340E-01 0.83652286E+02</pdfrwt>
<totfact> 0.22866052E+06</totfact>
</mgrwt>
</event>
<event>
 6    2  0.1372363E+002  0.9242848E+02  0.7546771E-02  0.1297075E+00
         21   -1    0    0  501  502  0.00000000000E+00  0.00000000000E+00  0.10911403982E+01  0.10911403982E+01  0.00000000000E+00 0.  1.
          2   -1    0    0  502    0 -0.00000000000E+00 -0.00000000000E+00 -0.41708470258E+04  0.41708470258E+04  0.00000000000E+00 0. -1.
         24    2    1    2    0    0 -0.16778738099E+02  0.38779752405E+02 -0.27435024302E+04  0.27450589444E+04  0.82204794444E+02 0.  0.
        -11    1    3    3    0    0 -0.65633262703E+01  0.62226882985E+02 -0.15170512021E+04  0.15183410724E+04  0.00000000000E+00 0.  1.
         12    1    3    3    0    0 -0.10215411829E+02 -0.23447130581E+02 -0.12264512281E+04  0.12267178720E+04  0.00000000000E+00 0. -1.
          1    1    1    2  501    0  0.16778738099E+02 -0.38779752405E+02 -0.14262534553E+04  0.14268792219E+04  0.00000000000E+00 0. -1.
<mgrwt>
<rscale>  1 0.92428478E+02</rscale>
<asrwt>0</asrwt>
<pdfrwt beam="1">  1       21 0.16787036E-03 0.92428478E+02</pdfrwt>
<pdfrwt beam="2">  1        2 0.64165881E+00 0.92428478E+02</pdfrwt>
<totfact> 0.27194912E+05</totfact>
</mgrwt>
</event>
<event>
 6    2  0.1372363E+002  0.8455245E+02  0.7546771E-02  0.1316607E+00
          2   -1    0    0  502    0 -0.00000000000E+00  0.00000000000E+00  0.72219411739E+03  0.72219411739E+03  0.00000000000E+00 0. -1.
         21   -1    0    0  501  502  0.00000000000E+00 -0.00000000000E+00 -0.42255664856E+01  0.42255664856E+01  0.00000000000E+00 0. -1.
         24    2    1    2    0    0 -0.23736350722E+02  0.46829243185E+01  0.60575952057E+03  0.61163200765E+03  0.81017108618E+02 0.  0.
        -11    1    3    3    0    0 -0.13069859390E+02  0.37701139369E+02  0.17565685198E+03  0.18013197046E+03  0.00000000000E+00 0.  1.
         12    1    3    3    0    0 -0.10666491332E+02 -0.33018215051E+02  0.43010266860E+03  0.43150003719E+03  0.00000000000E+00 0. -1.
          1    1    1    2  501    0  0.23736350722E+02 -0.46829243185E+01  0.11220903033E+03  0.11478767623E+03  0.00000000000E+00 0. -1.
<mgrwt>
<rscale>  1 0.84552445E+02</rscale>
<asrwt>0</asrwt>
<pdfrwt beam="1">  1       21 0.65008772E-03 0.84552445E+02</pdfrwt>
<pdfrwt beam="2">  1        2 0.11110669E+00 0.84552445E+02</pdfrwt>
<totfact> 0.34686402E+06</totfact>
</mgrwt>
</event>
<event>
 6    2  0.1372363E+002  0.8479233E+02  0.7546771E-02  0.1315977E+00
         21   -1    0    0  501  502  0.00000000000E+00  0.00000000000E+00  0.58380603480E+01  0.58380603480E+01  0.00000000000E+00 0.  1.
          2   -1    0    0  502    0 -0.00000000000E+00 -0.00000000000E+00 -0.49886084408E+03  0.49886084408E+03  0.00000000000E+00 0. -1.
         24    2    1    2    0    0  0.21052599254E+02  0.95279070523E+01 -0.38228372082E+03  0.39157449060E+03  0.81582752715E+02 0.  0.
        -11    1    3    3    0    0 -0.14079236623E+02  0.74532008467E+01 -0.12846504592E+02  0.20464793842E+02  0.00000000000E+00 0.  1.
         12    1    3    3    0    0  0.35131835877E+02  0.20747062055E+01 -0.36943721623E+03  0.37110969676E+03  0.00000000000E+00 0. -1.
          1    1    1    2  501    0 -0.21052599254E+02 -0.95279070523E+01 -0.11073906292E+03  0.11312441383E+03  0.00000000000E+00 0. -1.
<mgrwt>
<rscale>  1 0.84792326E+02</rscale>
<asrwt>0</asrwt>
<pdfrwt beam="1">  1       21 0.89816324E-03 0.84792326E+02</pdfrwt>
<pdfrwt beam="2">  1        2 0.76747813E-01 0.84792326E+02</pdfrwt>
<totfact> 0.31825473E+06</totfact>
</mgrwt>
</event>
<event>
 6    2  0.1372363E+002  0.8449017E+02  0.7546771E-02  0.1316771E+00
         21   -1    0    0  501  502  0.00000000000E+00  0.00000000000E+00  0.29297534286E+01  0.29297534286E+01  0.00000000000E+00 0.  1.
          2   -1    0    0  502    0 -0.00000000000E+00 -0.00000000000E+00 -0.10780409086E+04  0.10780409086E+04  0.00000000000E+00 0. -1.
         24    2    1    2    0    0 -0.92653571047E+01 -0.25335974986E+02 -0.75065774920E+03  0.75539767310E+03  0.80067656556E+02 0.  0.
        -11    1    3    3    0    0  0.23543468225E+02 -0.69183936964E+01 -0.79848208933E+02  0.83533798771E+02  0.00000000000E+00 0.  1.
         12    1    3    3    0    0 -0.32808825330E+02 -0.18417581289E+02 -0.67080954027E+03  0.67186387433E+03  0.00000000000E+00 0. -1.
          1    1    1    2  501    0  0.92653571047E+01  0.25335974986E+02 -0.32445340596E+03  0.32557298891E+03  0.00000000000E+00 0. -1.
<mgrwt>
<rscale>  1 0.84490166E+02</rscale>
<asrwt>0</asrwt>
<pdfrwt beam="1">  1       21 0.45073033E-03 0.84490166E+02</pdfrwt>
<pdfrwt beam="2">  1        2 0.16585280E+00 0.84490166E+02</pdfrwt>
<totfact> 0.36505198E+06</totfact>
</mgrwt>
</event>
<event>
 6    2  0.1372363E+002  0.1046655E+03  0.7546771E-02  0.1270780E+00
          2   -1    0    0  502    0 -0.00000000000E+00  0.00000000000E+00  0.97901601116E+03  0.97901601116E+03  0.00000000000E+00 0. -1.
         21   -1    0    0  501  502  0.00000000000E+00 -0.00000000000E+00 -0.11969783887E+02  0.11969783887E+02  0.00000000000E+00 0. -1.
         24    2    1    2    0    0  0.60808877632E+01 -0.68592682247E+02  0.83983865229E+03  0.84633552583E+03  0.78822123375E+02 0.  0.
        -13    1    3    3    0    0  0.63512495340E+01  0.14876677576E+02  0.63712646659E+02  0.65733973337E+02  0.00000000000E+00 0.  1.
         14    1    3    3    0    0 -0.27036177079E+00 -0.83469359823E+02  0.77612600564E+03  0.78060155249E+03  0.00000000000E+00 0. -1.
          1    1    1    2  501    0 -0.60808877632E+01  0.68592682247E+02  0.12720757498E+03  0.14465026922E+03  0.00000000000E+00 0. -1.
<mgrwt>
<rscale>  1 0.10466547E+03</rscale>
<asrwt>0</asrwt>
<pdfrwt beam="1">  1       21 0.18415060E-02 0.10466547E+03</pdfrwt>
<pdfrwt beam="2">  1        2 0.15061778E+00 0.10466547E+03</pdfrwt>
<totfact> 0.47121898E+05</totfact>
</mgrwt>
</event>
<event>
 6    2  0.1372363E+002  0.8096441E+02  0.7546771E-02  0.1326337E+00
          2   -1    0    0  502    0 -0.00000000000E+00  0.00000000000E+00  0.96707099403E+03  0.96707099403E+03  0.00000000000E+00 0. -1.
         21   -1    0    0  501  502  0.00000000000E+00 -0.00000000000E+00 -0.12673483619E+02  0.12673483619E+02  0.00000000000E+00 0. -1.
         24    2    1    2    0    0 -0.22750035633E+02  0.91198704532E+01  0.95164221499E+03  0.95508017528E+03  0.77165404878E+02 0.  0.
        -13    1    3    3    0    0  0.18260950078E+02 -0.15215136478E+01  0.68087350786E+02  0.70510032184E+02  0.00000000000E+00 0.  1.
         14    1    3    3    0    0 -0.41010985711E+02  0.10641384101E+02  0.88355486421E+03  0.88457014310E+03  0.00000000000E+00 0. -1.
          1    1    1    2  501    0  0.22750035633E+02 -0.91198704532E+01  0.27552954230E+01  0.24664302367E+02  0.00000000000E+00 0. -1.
<mgrwt>
<rscale>  1 0.80964411E+02</rscale>
<asrwt>0</asrwt>
<pdfrwt beam="1">  1       21 0.19497675E-02 0.80964411E+02</pdfrwt>
<pdfrwt beam="2">  1        2 0.14878009E+00 0.80964411E+02</pdfrwt>
<totfact> 0.43066249E+05</totfact>
</mgrwt>
</event>
<event>
 6    2  0.1372363E+002  0.1023782E+03  0.7546771E-02  0.1275373E+00
          2   -1    0    0  502    0 -0.00000000000E+00  0.00000000000E+00  0.26468115889E+04  0.26468115889E+04  0.00000000000E+00 0. -1.
         21   -1    0    0  501  502  0.00000000000E+00 -0.00000000000E+00 -0.71327709270E+01  0.71327709270E+01  0.00000000000E+00 0. -1.
         24    2    1    2    0    0 -0.58800307711E+02  0.31229366501E+02  0.24631630444E+04  0.24652897340E+04  0.77772359149E+02 0.  0.
        -11    1    3    3    0    0  0.14988355369E+02 -0.95358740605E+01  0.50682234239E+03  0.50713358244E+03  0.00000000000E+00 0.  1.
         12    1    3    3    0    0 -0.73788663081E+02  0.40765240561E+02  0.19563407020E+04  0.19581561516E+04  0.00000000000E+00 0. -1.
          1    1    1    2  501    0  0.58800307711E+02 -0.31229366501E+02  0.17651577360E+03  0.18865462584E+03  0.00000000000E+00 0. -1.
<mgrwt>
<rscale>  1 0.10237817E+03</rscale>
<asrwt>0</asrwt>
<pdfrwt beam="1">  1       21 0.10973515E-02 0.10237817E+03</pdfrwt>
<pdfrwt beam="2">  1        2 0.40720100E+00 0.10237817E+03</pdfrwt>
<totfact> 0.14341126E+05</totfact>
</mgrwt>
</event>
<event>
 6    2  0.1372363E+002  0.8380434E+02  0.7546771E-02  0.1318589E+00
         -1   -1    0    0    0  501 -0.00000000000E+00  0.00000000000E+00  0.21823683345E+03  0.21823683345E+03  0.00000000000E+00 0.  1.
         21   -1    0    0  501  502  0.00000000000E+00 -0.00000000000E+00 -0.16169917749E+02  0.16169917749E+02  0.00000000000E+00 0. -1.
         24    2    1    2    0    0 -0.73729540524E+01  0.19693248676E+02  0.19496214193E+03  0.21221075369E+03  0.81123256244E+02 0.  0.
        -11    1    3    3    0    0  0.10503537567E+02 -0.28300274570E+02  0.98142380409E+02  0.10267987473E+03  0.00000000000E+00 0.  1.
         12    1    3    3    0    0 -0.17876491619E+02  0.47993523247E+02  0.96819761517E+02  0.10953087896E+03  0.00000000000E+00 0. -1.
         -2    1    1    2    0  502  0.73729540524E+01 -0.19693248676E+02  0.71047737751E+01  0.22195997506E+02  0.00000000000E+00 0.  1.
<mgrwt>
<rscale>  1 0.83804339E+02</rscale>
<asrwt>0</asrwt>
<pdfrwt beam="1">  1       21 0.24876798E-02 0.83804339E+02</pdfrwt>
<pdfrwt beam="2">  1       -1 0.33574895E-01 0.83804339E+02</pdfrwt>
<totfact> 0.61313825E+05</totfact>
</mgrwt>
</event>
<event>
 6    2  0.1372363E+002  0.9104507E+02  0.7546771E-02  0.1300340E+00
         21   -1    0    0  501  502  0.00000000000E+00  0.00000000000E+00  0.17420826516E+03  0.17420826516E+03  0.00000000000E+00 0. -1.
          2   -1    0    0  502    0 -0.00000000000E+00 -0.00000000000E+00 -0.46478651230E+02  0.46478651230E+02  0.00000000000E+00 0. -1.
         24    2    1    2    0    0 -0.37834336883E+02 -0.18946877845E+02  0.53538264527E+01  0.91202343610E+02  0.80615028343E+02 0.  0.
        -13    1    3    3    0    0  0.15732331507E+02  0.16776481166E+02 -0.98918201421E+01  0.25036067596E+02  0.00000000000E+00 0.  1.
         14    1    3    3    0    0 -0.53566668390E+02 -0.35723359011E+02  0.15245646595E+02  0.66166276014E+02  0.00000000000E+00 0. -1.
          1    1    1    2  501    0  0.37834336883E+02  0.18946877845E+02  0.12237578747E+03  0.12948457278E+03  0.00000000000E+00 0. -1.
<mgrwt>
<rscale>  1 0.91045066E+02</rscale>
<asrwt>0</asrwt>
<pdfrwt beam="1">  1       21 0.26801271E-01 0.91045066E+02</pdfrwt>
<pdfrwt beam="2">  1        2 0.71505618E-02 0.91045066E+02</pdfrwt>
<totfact> 0.15115967E+05</totfact>
</mgrwt>
</event>
<event>
 6    2  0.1372363E+002  0.9924247E+02  0.7546771E-02  0.1281897E+00
          2   -1    0    0  502    0 -0.00000000000E+00  0.00000000000E+00  0.92053418460E+02  0.92053418460E+02  0.00000000000E+00 0. -1.
         21   -1    0    0  501  502  0.00000000000E+00 -0.00000000000E+00 -0.20110764749E+03  0.20110764749E+03  0.00000000000E+00 0. -1.
         24    2    1    2    0    0 -0.46670506058E+02  0.29012087856E+02  0.59611056550E+02  0.11576936395E+03  0.82639156516E+02 0.  0.
        -13    1    3    3    0    0 -0.15265724346E+02 -0.18105362004E+02 -0.10281550783E+02  0.25817760546E+02  0.00000000000E+00 0.  1.
         14    1    3    3    0    0 -0.31404781712E+02  0.47117449860E+02  0.69892607334E+02  0.89951603407E+02  0.00000000000E+00 0. -1.
          1    1    1    2  501    0  0.46670506058E+02 -0.29012087856E+02 -0.16866528558E+03  0.17739170200E+03  0.00000000000E+00 0. -1.
<mgrwt>
<rscale>  1 0.99242469E+02</rscale>
<asrwt>0</asrwt>
<pdfrwt beam="1">  1       21 0.30939637E-01 0.99242469E+02</pdfrwt>
<pdfrwt beam="2">  1        2 0.14162065E-01 0.99242469E+02</pdfrwt>
<totfact> 0.50417440E+04</totfact>
</mgrwt>
</event>
<event>
 6    2  0.1372363E+002  0.8377249E+02  0.7546771E-02  0.1318674E+00
         21   -1    0    0  501  502  0.00000000000E+00  0.00000000000E+00  0.40544034690E+03  0.40544034690E+03  0.00000000000E+00 0.  1.
         -3   -1    0    0    0  501 -0.00000000000E+00 -0.00000000000E+00 -0.10159650710E+02  0.10159650710E+02  0.00000000000E+00 0.  1.
         24    2    1    2    0    0 -0.17006689041E+02 -0.10817481602E+02  0.17102098159E+03  0.19043635718E+03  0.81311651137E+02 0.  0.
        -13    1    3    3    0    0 -0.78545557892E+00 -0.36725557208E+02  0.34022159905E+02  0.50068861154E+02  0.00000000000E+00 0.  1.
         14    1    3    3    0    0 -0.16221233462E+02  0.25908075606E+02  0.13699882169E+03  0.14036749602E+03  0.00000000000E+00 0. -1.
         -4    1    1    2    0  502  0.17006689041E+02  0.10817481602E+02  0.22425971460E+03  0.22516364043E+03  0.00000000000E+00 0.  1.
<mgrwt>
<rscale>  1 0.83772489E+02</rscale>
<asrwt>0</asrwt>
<pdfrwt beam="1">  1       21 0.62375426E-01 0.83772489E+02</pdfrwt>
<pdfrwt beam="2">  1       -3 0.15630235E-02 0.83772489E+02</pdfrwt>
<totfact> 0.14891481E+05</totfact>
</mgrwt>
</event>
<event>
 6    2  0.1372363E+002  0.8273251E+02  0.7546771E-02  0.1321471E+00
          2   -1    0    0  502    0 -0.00000000000E+00  0.00000000000E+00  0.34190968150E+03  0.34190968150E+03  0.00000000000E+00 0. -1.
         21   -1    0    0  501  502  0.00000000000E+00 -0.00000000000E+00 -0.14857839313E+02  0.14857839313E+02  0.00000000000E+00 0. -1.
         24    2    1    2    0    0 -0.10201974323E+02 -0.22039228690E+02  0.32133944442E+03  0.33181878599E+03  0.79087674830E+02 0.  0.
        -13    1    3    3    0    0 -0.21577886162E+01  0.29897541610E+02  0.12804742290E+03  0.13150916910E+03  0.00000000000E+00 0.  1.
         14    1    3    3    0    0 -0.80441857063E+01 -0.51936770299E+02  0.19329202153E+03  0.20030961689E+03  0.00000000000E+00 0. -1.
          1    1    1    2  501    0  0.10201974323E+02  0.22039228690E+02  0.57123977664E+01  0.24948734829E+02  0.00000000000E+00 0. -1.
<mgrwt>
<rscale>  1 0.82732510E+02</rscale>
<asrwt>0</asrwt>
<pdfrwt beam="1">  1       21 0.22858217E-02 0.82732510E+02</pdfrwt>
<pdfrwt beam="2">  1        2 0.52601483E-01 0.82732510E+02</pdfrwt>
<totfact> 0.10818327E+06</totfact>
</mgrwt>
</event>
<event>
 6    2  0.1372363E+002  0.8805250E+02  0.7546771E-02  0.1307638E+00
         21   -1    0    0  501  502  0.00000000000E+00  0.00000000000E+00  0.48333937110E+01  0.48333937110E+01  0.00000000000E+00 0.  1.
          2   -1    0    0  502    0 -0.00000000000E+00 -0.00000000000E+00 -0.82876082491E+03  0.82876082491E+03  0.00000000000E+00 0. -1.
         24    2    1    2    0    0  0.33450633260E+02 -0.82004675810E+01 -0.67598851093E+03  0.68169913423E+03  0.81037338039E+02 0.  0.
        -11    1    3    3    0    0  0.45220625700E+02  0.21852475669E+02 -0.28591724446E+03  0.29029486107E+03  0.00000000000E+00 0.  1.
         12    1    3    3    0    0 -0.11769992440E+02 -0.30052943250E+02 -0.39007126647E+03  0.39140427316E+03  0.00000000000E+00 0. -1.
          1    1    1    2  501    0 -0.33450633260E+02  0.82004675810E+01 -0.14793892027E+03  0.15189508440E+03  0.00000000000E+00 0. -1.
<mgrwt>
<rscale>  1 0.88052500E+02</rscale>
<asrwt>0</asrwt>
<pdfrwt beam="1">  1       21 0.74360011E-03 0.88052500E+02</pdfrwt>
<pdfrwt beam="2">  1        2 0.12750148E+00 0.88052500E+02</pdfrwt>
<totfact> 0.23990524E+06</totfact>
</mgrwt>
</event>
<event>
 6    2  0.1372363E+002  0.8039147E+02  0.7546771E-02  0.1327944E+00
          2   -1    0    0  502    0 -0.00000000000E+00  0.00000000000E+00  0.52601800020E+02  0.52601800020E+02  0.00000000000E+00 0. -1.
         21   -1    0    0  501  502  0.00000000000E+00 -0.00000000000E+00 -0.94003664437E+02  0.94003664437E+02  0.00000000000E+00 0.  1.
         24    2    1    2    0    0 -0.20058896985E+02 -0.91717444060E+01  0.18739912781E+02  0.82546791288E+02  0.77306585600E+02 0.  0.
        -11    1    3    3    0    0 -0.47992469123E+02 -0.17702795051E+02  0.13027034883E+02  0.52786074708E+02  0.00000000000E+00 0.  1.
         12    1    3    3    0    0  0.27933572138E+02  0.85310506449E+01  0.57128778982E+01  0.29760716580E+02  0.00000000000E+00 0. -1.
          1    1    1    2  501    0  0.20058896985E+02  0.91717444060E+01 -0.60141777198E+02  0.64058673170E+02  0.00000000000E+00 0. -1.
<mgrwt>
<rscale>  1 0.80391470E+02</rscale>
<asrwt>0</asrwt>
<pdfrwt beam="1">  1       21 0.14462102E-01 0.80391470E+02</pdfrwt>
<pdfrwt beam="2">  1        2 0.80925847E-02 0.80391470E+02</pdfrwt>
<totfact> 0.39603628E+05</totfact>
</mgrwt>
</event>
<event>
 6    2  0.1372363E+002  0.8356752E+02  0.7546771E-02  0.1319222E+00
          4   -1    0    0  502    0 -0.00000000000E+00  0.00000000000E+00  0.91960811892E+02  0.91960811892E+02  0.00000000000E+00 0. -1.
         21   -1    0    0  501  502  0.00000000000E+00 -0.00000000000E+00 -0.35435474598E+02  0.35435474598E+02  0.00000000000E+00 0. -1.
         24    2    1    2    0    0 -0.23280199584E+02  0.18490508212E+02  0.34558416803E+02  0.90431273540E+02  0.78100348754E+02 0.  0.
        -11    1    3    3    0    0  0.25514130609E+02  0.17176556984E+01 -0.41795061125E+01  0.25911184326E+02  0.00000000000E+00 0.  1.
         12    1    3    3    0    0 -0.48794330193E+02  0.16772852514E+02  0.38737922915E+02  0.64520089214E+02  0.00000000000E+00 0. -1.
          3    1    1    2  501    0  0.23280199584E+02 -0.18490508212E+02  0.21966920491E+02  0.36965012951E+02  0.00000000000E+00 0. -1.
<mgrwt>
<rscale>  1 0.83567524E+02</rscale>
<asrwt>0</asrwt>
<pdfrwt beam="1">  1       21 0.54516115E-02 0.83567524E+02</pdfrwt>
<pdfrwt beam="2">  1        4 0.14147817E-01 0.83567524E+02</pdfrwt>
<totfact> 0.35290509E+05</totfact>
</mgrwt>
</event>
<event>
 6    2  0.1372363E+002  0.8851129E+02  0.7546771E-02  0.1306497E+00
         21   -1    0    0  501  502  0.00000000000E+00  0.00000000000E+00  0.45785954644E+01  0.45785954644E+01  0.00000000000E+00 0. -1.
          2   -1    0    0  502    0 -0.00000000000E+00 -0.00000000000E+00 -0.99259177398E+03  0.99259177398E+03  0.00000000000E+00 0. -1.
         24    2    1    2    0    0 -0.27037714882E+02  0.28199137766E+02 -0.81548419481E+03  0.82027356445E+03  0.79423039244E+02 0.  0.
        -11    1    3    3    0    0  0.18148254637E+02 -0.46503793709E+01 -0.46395223902E+03  0.46433034067E+03  0.00000000000E+00 0.  1.
         12    1    3    3    0    0 -0.45185969520E+02  0.32849517136E+02 -0.35153195579E+03  0.35594322378E+03  0.00000000000E+00 0. -1.
          1    1    1    2  501    0  0.27037714882E+02 -0.28199137766E+02 -0.17252898370E+03  0.17689680499E+03  0.00000000000E+00 0. -1.
<mgrwt>
<rscale>  1 0.88511291E+02</rscale>
<asrwt>0</asrwt>
<pdfrwt beam="1">  1       21 0.70439844E-03 0.88511291E+02</pdfrwt>
<pdfrwt beam="2">  1        2 0.15270661E+00 0.88511291E+02</pdfrwt>
<totfact> 0.20693766E+06</totfact>
</mgrwt>
</event>
<event>
 6    2  0.1372363E+002  0.8714056E+02  0.7546771E-02  0.1309928E+00
         21   -1    0    0  501  502  0.00000000000E+00  0.00000000000E+00  0.15970495384E+02  0.15970495384E+02  0.00000000000E+00 0.  1.
          2   -1    0    0  502    0 -0.00000000000E+00 -0.00000000000E+00 -0.28006634051E+03  0.28006634051E+03  0.00000000000E+00 0. -1.
         24    2    1    2    0    0 -0.26204541116E+02 -0.17354988242E+02 -0.11852201768E+03  0.14710862222E+03  0.81274869817E+02 0.  0.
        -11    1    3    3    0    0 -0.67181030468E+01 -0.28970835217E+02 -0.35858239063E+01  0.29954971788E+02  0.00000000000E+00 0.  1.
         12    1    3    3    0    0 -0.19486438069E+02  0.11615846976E+02 -0.11493619378E+03  0.11715365043E+03  0.00000000000E+00 0. -1.
          1    1    1    2  501    0  0.26204541116E+02  0.17354988242E+02 -0.14557382744E+03  0.14892821367E+03  0.00000000000E+00 0. -1.
<mgrwt>
<rscale>  1 0.87140565E+02</rscale>
<asrwt>0</asrwt>
<pdfrwt beam="1">  1       21 0.24569993E-02 0.87140565E+02</pdfrwt>
<pdfrwt beam="2">  1        2 0.43087130E-01 0.87140565E+02</pdfrwt>
<totfact> 0.11927056E+06</totfact>
</mgrwt>
</event>
<event>
 6    2  0.1372363E+002  0.8476713E+02  0.7546771E-02  0.1316043E+00
          2   -1    0    0  502    0 -0.00000000000E+00  0.00000000000E+00  0.90088913362E+03  0.90088913362E+03  0.00000000000E+00 0. -1.
         21   -1    0    0  501  502  0.00000000000E+00 -0.00000000000E+00 -0.32573727295E+01  0.32573727295E+01  0.00000000000E+00 0.  1.
         24    2    1    2    0    0  0.23461822033E+02 -0.20298350225E+01  0.69417497343E+03  0.69933136608E+03  0.81430267786E+02 0.  0.
        -11    1    3    3    0    0  0.22165635438E+02 -0.36959851279E+02  0.24201150423E+03  0.24581886458E+03  0.00000000000E+00 0.  1.
         12    1    3    3    0    0  0.12961865948E+01  0.34930016256E+02  0.45216346920E+03  0.45351250150E+03  0.00000000000E+00 0. -1.
          1    1    1    2  501    0 -0.23461822033E+02  0.20298350225E+01  0.20345678745E+03  0.20481514027E+03  0.00000000000E+00 0. -1.
<mgrwt>
<rscale>  1 0.84767127E+02</rscale>
<asrwt>0</asrwt>
<pdfrwt beam="1">  1       21 0.50113498E-03 0.84767127E+02</pdfrwt>
<pdfrwt beam="2">  1        2 0.13859813E+00 0.84767127E+02</pdfrwt>
<totfact> 0.39481169E+06</totfact>
</mgrwt>
</event>
<event>
 6    2  0.1372363E+002  0.8595270E+02  0.7546771E-02  0.1312960E+00
         21   -1    0    0  501  502  0.00000000000E+00  0.00000000000E+00  0.21986799767E+01  0.21986799767E+01  0.00000000000E+00 0. -1.
          2   -1    0    0  502    0 -0.00000000000E+00 -0.00000000000E+00 -0.23346119442E+04  0.23346119442E+04  0.00000000000E+00 0. -1.
         24    2    1    2    0    0  0.21339424717E+02 -0.23129807435E+02 -0.21489205629E+04  0.21506388474E+04  0.79984418077E+02 0.  0.
        -11    1    3    3    0    0 -0.24879718179E+02  0.91032478860E+01 -0.44591044646E+03  0.44669676041E+03  0.00000000000E+00 0.  1.
         12    1    3    3    0    0  0.46219142896E+02 -0.32233055321E+02 -0.17030101165E+04  0.17039420870E+04  0.00000000000E+00 0. -1.
          1    1    1    2  501    0 -0.21339424717E+02  0.23129807435E+02 -0.18349270128E+03  0.18617177676E+03  0.00000000000E+00 0. -1.
<mgrwt>
<rscale>  1 0.85952697E+02</rscale>
<asrwt>0</asrwt>
<pdfrwt beam="1">  1       21 0.33825926E-03 0.85952697E+02</pdfrwt>
<pdfrwt beam="2">  1        2 0.35917021E+00 0.85952697E+02</pdfrwt>
<totfact> 0.12820394E+06</totfact>
</mgrwt>
</event>
<event>
 6    2  0.1693303E+002  0.1345652E+03  0.7546771E-02  0.1220835E+00
         -1   -1    0    0    0  501 -0.00000000000E+00  0.00000000000E+00  0.28616699409E+03  0.28616699409E+03  0.00000000000E+00 0.  1.
         21   -1    0    0  501  502  0.00000000000E+00 -0.00000000000E+00 -0.99989124523E+02  0.99989124523E+02  0.00000000000E+00 0.  1.
         24    2    1    2    0    0 -0.23335967826E+02  0.10837736395E+03  0.23038548811E+03  0.26680565172E+03  0.76272945689E+02 0.  0.
        -13    1    3    3    0    0 -0.25118949207E+02  0.11812980847E+03  0.22538242446E+03  0.25570070495E+03  0.00000000000E+00 0.  1.
         14    1    3    3    0    0  0.17829813804E+01 -0.97524445205E+01  0.50030636562E+01  0.11104946766E+02  0.00000000000E+00 0. -1.
         -2    1    1    2    0  502  0.23335967826E+02 -0.10837736395E+03 -0.44207618547E+02  0.11935046690E+03  0.00000000000E+00 0.  1.
<mgrwt>
<rscale>  1 0.13456516E+03</rscale>
<asrwt>0</asrwt>
<pdfrwt beam="1">  1       21 0.15382942E-01 0.13456516E+03</pdfrwt>
<pdfrwt beam="2">  1       -1 0.44025691E-01 0.13456516E+03</pdfrwt>
<totfact> 0.17944716E+04</totfact>
</mgrwt>
</event>
<event>
 6    2  0.1372363E+002  0.8354713E+02  0.7546771E-02  0.1319276E+00
         -1   -1    0    0    0  501 -0.00000000000E+00  0.00000000000E+00  0.20410799448E+03  0.20410799448E+03  0.00000000000E+00 0.  1.
         21   -1    0    0  501  502  0.00000000000E+00 -0.00000000000E+00 -0.14518336021E+02  0.14518336021E+02  0.00000000000E+00 0. -1.
         24    2    1    2    0    0 -0.12720890078E+02 -0.19399050175E+02  0.16421223997E+03  0.18424381225E+03  0.80261936215E+02 0.  0.
        -13    1    3    3    0    0 -0.30046254336E+01  0.15525849821E+02  0.13944703262E+03  0.14034085183E+03  0.00000000000E+00 0.  1.
         14    1    3    3    0    0 -0.97162646444E+01 -0.34924899996E+02  0.24765207348E+02  0.43902960417E+02  0.00000000000E+00 0. -1.
         -2    1    1    2    0  502  0.12720890078E+02  0.19399050175E+02  0.25377418493E+02  0.34382518253E+02  0.00000000000E+00 0.  1.
<mgrwt>
<rscale>  1 0.83547128E+02</rscale>
<asrwt>0</asrwt>
<pdfrwt beam="1">  1       21 0.22335903E-02 0.83547128E+02</pdfrwt>
<pdfrwt beam="2">  1       -1 0.31401228E-01 0.83547128E+02</pdfrwt>
<totfact> 0.81525136E+05</totfact>
</mgrwt>
</event>
<event>
 6    2  0.1372363E+002  0.8440821E+02  0.7546771E-02  0.1316987E+00
          2   -1    0    0  502    0 -0.00000000000E+00  0.00000000000E+00  0.13589015473E+03  0.13589015473E+03  0.00000000000E+00 0. -1.
         21   -1    0    0  501  502  0.00000000000E+00 -0.00000000000E+00 -0.23237897218E+02  0.23237897218E+02  0.00000000000E+00 0.  1.
         24    2    1    2    0    0 -0.17233975827E+02 -0.22001076673E+02  0.86282167611E+02  0.12070359439E+03  0.79647272098E+02 0.  0.
        -11    1    3    3    0    0 -0.29890207979E+02 -0.46818321717E+02  0.48357451894E+02  0.73646608443E+02  0.00000000000E+00 0.  1.
         12    1    3    3    0    0  0.12656232152E+02  0.24817245044E+02  0.37924715717E+02  0.47056985944E+02  0.00000000000E+00 0. -1.
          1    1    1    2  501    0  0.17233975827E+02  0.22001076673E+02  0.26370089902E+02  0.38424457563E+02  0.00000000000E+00 0. -1.
<mgrwt>
<rscale>  1 0.84408206E+02</rscale>
<asrwt>0</asrwt>
<pdfrwt beam="1">  1       21 0.35750612E-02 0.84408206E+02</pdfrwt>
<pdfrwt beam="2">  1        2 0.20906177E-01 0.84408206E+02</pdfrwt>
<totfact> 0.14022298E+06</totfact>
</mgrwt>
</event>
<event>
 6    2  0.1372363E+002  0.8469288E+02  0.7546771E-02  0.1316238E+00
         21   -1    0    0  501  502  0.00000000000E+00  0.00000000000E+00  0.32263711417E+01  0.32263711417E+01  0.00000000000E+00 0.  1.
          2   -1    0    0  502    0 -0.00000000000E+00 -0.00000000000E+00 -0.18474680914E+04  0.18474680914E+04  0.00000000000E+00 0. -1.
         24    2    1    2    0    0  0.18438543763E+02  0.19174074289E+02 -0.17664709775E+04  0.17685000987E+04  0.80406838529E+02 0.  0.
        -11    1    3    3    0    0  0.42869404497E+02  0.34254469739E+02 -0.12881396648E+04  0.12893079347E+04  0.00000000000E+00 0.  1.
         12    1    3    3    0    0 -0.24430860734E+02 -0.15080395450E+02 -0.47833131269E+03  0.47919216394E+03  0.00000000000E+00 0. -1.
          1    1    1    2  501    0 -0.18438543763E+02 -0.19174074289E+02 -0.77770742817E+02  0.82194363915E+02  0.00000000000E+00 0. -1.
<mgrwt>
<rscale>  1 0.84692885E+02</rscale>
<asrwt>0</asrwt>
<pdfrwt beam="1">  1       21 0.49636388E-03 0.84692885E+02</pdfrwt>
<pdfrwt beam="2">  1        2 0.28422638E+00 0.84692885E+02</pdfrwt>
<totfact> 0.12581048E+06</totfact>
</mgrwt>
</event>
<event>
 6    2  0.1372363E+002  0.8817394E+02  0.7546771E-02  0.1307335E+00
         21   -1    0    0  501  502  0.00000000000E+00  0.00000000000E+00  0.21033772736E+02  0.21033772736E+02  0.00000000000E+00 0.  1.
          2   -1    0    0  502    0 -0.00000000000E+00 -0.00000000000E+00 -0.18978597473E+03  0.18978597473E+03  0.00000000000E+00 0. -1.
         24    2    1    2    0    0  0.37802484675E+02  0.53897856144E+01 -0.11693879655E+03  0.14645588633E+03  0.79476832256E+02 0.  0.
        -13    1    3    3    0    0  0.69382261713E+01 -0.34544464173E+02 -0.65594990843E+02  0.74459128461E+02  0.00000000000E+00 0.  1.
         14    1    3    3    0    0  0.30864258504E+02  0.39934249788E+02 -0.51343805706E+02  0.71996757868E+02  0.00000000000E+00 0. -1.
          1    1    1    2  501    0 -0.37802484675E+02 -0.53897856144E+01 -0.51813405443E+02  0.64363861135E+02  0.00000000000E+00 0. -1.
<mgrwt>
<rscale>  1 0.88173945E+02</rscale>
<asrwt>0</asrwt>
<pdfrwt beam="1">  1       21 0.32359649E-02 0.88173945E+02</pdfrwt>
<pdfrwt beam="2">  1        2 0.29197843E-01 0.88173945E+02</pdfrwt>
<totfact> 0.11527337E+06</totfact>
</mgrwt>
</event>
<event>
 6    2  0.1372363E+002  0.8386307E+02  0.7546771E-02  0.1318433E+00
         21   -1    0    0  501  502  0.00000000000E+00  0.00000000000E+00  0.18556322210E+01  0.18556322210E+01  0.00000000000E+00 0.  1.
          2   -1    0    0  502    0 -0.00000000000E+00 -0.00000000000E+00 -0.18910605100E+04  0.18910605100E+04  0.00000000000E+00 0. -1.
         24    2    1    2    0    0 -0.24028328804E+02  0.87669987751E+01 -0.10582664756E+04  0.10615841694E+04  0.79867355322E+02 0.  0.
        -13    1    3    3    0    0 -0.14415009204E+02  0.40690031087E+02 -0.36981798425E+03  0.37232890378E+03  0.00000000000E+00 0.  1.
         14    1    3    3    0    0 -0.96133196003E+01 -0.31923032312E+02 -0.68844849138E+03  0.68925526562E+03  0.00000000000E+00 0. -1.
          1    1    1    2  501    0  0.24028328804E+02 -0.87669987751E+01 -0.83093840218E+03  0.83133197284E+03  0.00000000000E+00 0. -1.
<mgrwt>
<rscale>  1 0.83863075E+02</rscale>
<asrwt>0</asrwt>
<pdfrwt beam="1">  1       21 0.28548253E-03 0.83863075E+02</pdfrwt>
<pdfrwt beam="2">  1        2 0.29093172E+00 0.83863075E+02</pdfrwt>
<totfact> 0.27702700E+06</totfact>
</mgrwt>
</event>
<event>
 6    2  0.1372363E+002  0.8397063E+02  0.7546771E-02  0.1318147E+00
          2   -1    0    0  502    0 -0.00000000000E+00  0.00000000000E+00  0.57550188570E+02  0.57550188570E+02  0.00000000000E+00 0. -1.
         21   -1    0    0  501  502  0.00000000000E+00 -0.00000000000E+00 -0.61748356971E+02  0.61748356971E+02  0.00000000000E+00 0. -1.
         24    2    1    2    0    0  0.71579367767E+01 -0.23759730304E+02  0.18143341442E+02  0.85908368765E+02  0.80220359898E+02 0.  0.
        -11    1    3    3    0    0  0.27800096136E+02  0.16642706513E+02 -0.82297627356E+01  0.33429837271E+02  0.00000000000E+00 0.  1.
         12    1    3    3    0    0 -0.20642159360E+02 -0.40402436818E+02  0.26373104178E+02  0.52478531494E+02  0.00000000000E+00 0. -1.
          1    1    1    2  501    0 -0.71579367767E+01  0.23759730304E+02 -0.22341509843E+02  0.33390176776E+02  0.00000000000E+00 0. -1.
<mgrwt>
<rscale>  1 0.83970632E+02</rscale>
<asrwt>0</asrwt>
<pdfrwt beam="1">  1       21 0.94997472E-02 0.83970632E+02</pdfrwt>
<pdfrwt beam="2">  1        2 0.88538752E-02 0.83970632E+02</pdfrwt>
<totfact> 0.74241492E+05</totfact>
</mgrwt>
</event>
<event>
 6    2  0.1372363E+002  0.8609789E+02  0.7546771E-02  0.1312586E+00
         21   -1    0    0  501  502  0.00000000000E+00  0.00000000000E+00  0.39663847334E+02  0.39663847334E+02  0.00000000000E+00 0.  1.
         -1   -1    0    0    0  501 -0.00000000000E+00 -0.00000000000E+00 -0.15022369366E+03  0.15022369366E+03  0.00000000000E+00 0.  1.
         24    2    1    2    0    0  0.25886620112E+02 -0.72353093300E+00 -0.13109308146E+03  0.15683826956E+03  0.82110938332E+02 0.  0.
        -13    1    3    3    0    0  0.42878092608E+02 -0.26501616857E+02 -0.10477203083E+03  0.11626712763E+03  0.00000000000E+00 0.  1.
         14    1    3    3    0    0 -0.16991472496E+02  0.25778085924E+02 -0.26321050622E+02  0.40571141928E+02  0.00000000000E+00 0. -1.
         -2    1    1    2    0  502 -0.25886620112E+02  0.72353093300E+00  0.20533235129E+02  0.33049271440E+02  0.00000000000E+00 0.  1.
<mgrwt>
<rscale>  1 0.86097891E+02</rscale>
<asrwt>0</asrwt>
<pdfrwt beam="1">  1       21 0.61021303E-02 0.86097891E+02</pdfrwt>
<pdfrwt beam="2">  1       -1 0.23111338E-01 0.86097891E+02</pdfrwt>
<totfact> 0.26021058E+05</totfact>
</mgrwt>
</event>
<event>
 6    2  0.1372363E+002  0.8310806E+02  0.7546771E-02  0.1320456E+00
         -3   -1    0    0    0  501 -0.00000000000E+00  0.00000000000E+00  0.48806357847E+03  0.48806357847E+03  0.00000000000E+00 0.  1.
         21   -1    0    0  501  502  0.00000000000E+00 -0.00000000000E+00 -0.88923595539E+01  0.88923595539E+01  0.00000000000E+00 0.  1.
         24    2    1    2    0    0  0.47913151232E+00  0.23310600481E+02  0.45794624386E+03  0.46542637685E+03  0.79770523003E+02 0.  0.
        -13    1    3    3    0    0 -0.13990699991E+02 -0.62186477108E+01  0.38619759281E+03  0.38650095984E+03  0.00000000000E+00 0.  1.
         14    1    3    3    0    0  0.14469831503E+02  0.29529248192E+02  0.71748651046E+02  0.78925417005E+02  0.00000000000E+00 0. -1.
         -4    1    1    2    0  502 -0.47913151232E+00 -0.23310600481E+02  0.21224975060E+02  0.31529561178E+02  0.00000000000E+00 0.  1.
<mgrwt>
<rscale>  1 0.83108062E+02</rscale>
<asrwt>0</asrwt>
<pdfrwt beam="1">  1       21 0.13680557E-02 0.83108062E+02</pdfrwt>
<pdfrwt beam="2">  1       -3 0.75086684E-01 0.83108062E+02</pdfrwt>
<totfact> 0.17177000E+05</totfact>
</mgrwt>
</event>
<event>
 6    2  0.1372363E+002  0.8137240E+02  0.7546771E-02  0.1325201E+00
         21   -1    0    0  501  502  0.00000000000E+00  0.00000000000E+00  0.13045038526E+01  0.13045038526E+01  0.00000000000E+00 0. -1.
          2   -1    0    0  502    0 -0.00000000000E+00 -0.00000000000E+00 -0.30704811225E+04  0.30704811225E+04  0.00000000000E+00 0. -1.
         24    2    1    2    0    0  0.31670249960E+02 -0.13011673026E+02 -0.26368683728E+04  0.26381236291E+04  0.73818418953E+02 0.  0.
        -11    1    3    3    0    0  0.11077267623E+02  0.89355098869E+01 -0.93477649083E+02  0.94554852192E+02  0.00000000000E+00 0.  1.
         12    1    3    3    0    0  0.20592982337E+02 -0.21947182913E+02 -0.25433907237E+04  0.25435687770E+04  0.00000000000E+00 0. -1.
          1    1    1    2  501    0 -0.31670249960E+02  0.13011673026E+02 -0.43230824584E+03  0.43366199717E+03  0.00000000000E+00 0. -1.
<mgrwt>
<rscale>  1 0.81372399E+02</rscale>
<asrwt>0</asrwt>
<pdfrwt beam="1">  1       21 0.20069563E-03 0.81372399E+02</pdfrwt>
<pdfrwt beam="2">  1        2 0.47237530E+00 0.81372399E+02</pdfrwt>
<totfact> 0.11237018E+06</totfact>
</mgrwt>
</event>
<event>
 6    2  0.1372363E+002  0.8308887E+02  0.7546771E-02  0.1320507E+00
         -3   -1    0    0    0  501 -0.00000000000E+00  0.00000000000E+00  0.12669913698E+03  0.12669913698E+03  0.00000000000E+00 0.  1.
         21   -1    0    0  501  502  0.00000000000E+00 -0.00000000000E+00 -0.28365302205E+02  0.28365302205E+02  0.00000000000E+00 0. -1.
         24    2    1    2    0    0  0.32504216853E+01 -0.36443225252E+02  0.63865075535E+02  0.10479745925E+03  0.74599501907E+02 0.  0.
        -13    1    3    3    0    0  0.24973827957E+02 -0.23039623749E+02  0.70640792077E+02  0.78387740436E+02  0.00000000000E+00 0.  1.
         14    1    3    3    0    0 -0.21723406272E+02 -0.13403601503E+02 -0.67757165418E+01  0.26409718817E+02  0.00000000000E+00 0. -1.
         -4    1    1    2    0  502 -0.32504216853E+01  0.36443225252E+02  0.34468759237E+02  0.50266979930E+02  0.00000000000E+00 0.  1.
<mgrwt>
<rscale>  1 0.83088866E+02</rscale>
<asrwt>0</asrwt>
<pdfrwt beam="1">  1       21 0.43638927E-02 0.83088866E+02</pdfrwt>
<pdfrwt beam="2">  1       -3 0.19492175E-01 0.83088866E+02</pdfrwt>
<totfact> 0.34614868E+05</totfact>
</mgrwt>
</event>
<event>
 6    2  0.1372363E+002  0.8800419E+02  0.7546771E-02  0.1307758E+00
         21   -1    0    0  501  502  0.00000000000E+00  0.00000000000E+00  0.46347887717E+02  0.46347887717E+02  0.00000000000E+00 0. -1.
          2   -1    0    0  502    0 -0.00000000000E+00 -0.00000000000E+00 -0.10485840790E+03  0.10485840790E+03  0.00000000000E+00 0. -1.
         24    2    1    2    0    0 -0.23211324879E+02 -0.30386980213E+02 -0.68688412767E+02  0.11163706935E+03  0.79262873002E+02 0.  0.
        -13    1    3    3    0    0 -0.10117928243E+01 -0.18050124907E+02  0.15430201389E+02  0.23768084668E+02  0.00000000000E+00 0.  1.
         14    1    3    3    0    0 -0.22199532055E+02 -0.12336855307E+02 -0.84118614156E+02  0.87868984687E+02  0.00000000000E+00 0. -1.
          1    1    1    2  501    0  0.23211324879E+02  0.30386980213E+02  0.10177892589E+02  0.39569226258E+02  0.00000000000E+00 0. -1.
<mgrwt>
<rscale>  1 0.88004189E+02</rscale>
<asrwt>0</asrwt>
<pdfrwt beam="1">  1       21 0.71304443E-02 0.88004189E+02</pdfrwt>
<pdfrwt beam="2">  1        2 0.16132063E-01 0.88004189E+02</pdfrwt>
<totfact> 0.59817604E+05</totfact>
</mgrwt>
</event>
<event>
 6    2  0.1873913E+002  0.8310114E+02  0.7546771E-02  0.1320474E+00
         21   -1    0    0  501  502  0.00000000000E+00  0.00000000000E+00  0.46102000704E+01  0.46102000704E+01  0.00000000000E+00 0.  1.
         -1   -1    0    0    0  501 -0.00000000000E+00 -0.00000000000E+00 -0.17341337247E+04  0.17341337247E+04  0.00000000000E+00 0.  1.
         24    2    1    2    0    0 -0.17523268986E+02 -0.11852327085E+02 -0.17020098956E+04  0.17040374067E+04  0.80363276465E+02 0.  0.
        -11    1    3    3    0    0 -0.41651872429E+02 -0.21421540949E+02 -0.14361077587E+04  0.14368713427E+04  0.00000000000E+00 0.  1.
         12    1    3    3    0    0  0.24128603443E+02  0.95692138645E+01 -0.26590213688E+03  0.26716606401E+03  0.00000000000E+00 0. -1.
         -2    1    1    2    0  502  0.17523268986E+02  0.11852327085E+02 -0.27513629116E+02  0.34706518125E+02  0.00000000000E+00 0.  1.
<mgrwt>
<rscale>  1 0.83101136E+02</rscale>
<asrwt>0</asrwt>
<pdfrwt beam="1">  1       21 0.70926182E-03 0.83101136E+02</pdfrwt>
<pdfrwt beam="2">  1       -1 0.26678970E+00 0.83101136E+02</pdfrwt>
<totfact> 0.37989451E+04</totfact>
</mgrwt>
</event>
<event>
 6    2  0.1372363E+002  0.8120243E+02  0.7546771E-02  0.1325673E+00
         21   -1    0    0  501  502  0.00000000000E+00  0.00000000000E+00  0.17765743509E+02  0.17765743509E+02  0.00000000000E+00 0.  1.
         -1   -1    0    0    0  501 -0.00000000000E+00 -0.00000000000E+00 -0.23436402094E+03  0.23436402094E+03  0.00000000000E+00 0.  1.
         24    2    1    2    0    0  0.13285912573E+01 -0.21975771051E+02 -0.80782037387E+02  0.11454069974E+03  0.78160953578E+02 0.  0.
        -11    1    3    3    0    0 -0.11756238652E+02 -0.44693791520E+02 -0.74356589652E+02  0.87547967265E+02  0.00000000000E+00 0.  1.
         12    1    3    3    0    0  0.13084829909E+02  0.22718020469E+02 -0.64254477349E+01  0.26992732473E+02  0.00000000000E+00 0. -1.
         -2    1    1    2    0  502 -0.13285912573E+01  0.21975771051E+02 -0.13581624004E+03  0.13758906471E+03  0.00000000000E+00 0.  1.
<mgrwt>
<rscale>  1 0.81202428E+02</rscale>
<asrwt>0</asrwt>
<pdfrwt beam="1">  1       21 0.27331916E-02 0.81202428E+02</pdfrwt>
<pdfrwt beam="2">  1       -1 0.36056000E-01 0.81202428E+02</pdfrwt>
<totfact> 0.46530681E+05</totfact>
</mgrwt>
</event>
<event>
 6    2  0.1372363E+002  0.9179368E+02  0.7546771E-02  0.1298565E+00
         -3   -1    0    0    0  501 -0.00000000000E+00  0.00000000000E+00  0.44404160384E+02  0.44404160384E+02  0.00000000000E+00 0.  1.
         21   -1    0    0  501  502  0.00000000000E+00 -0.00000000000E+00 -0.82261428032E+02  0.82261428032E+02  0.00000000000E+00 0. -1.
         24    2    1    2    0    0  0.26203020172E+02  0.10756423134E+02 -0.34829681608E+02  0.98179360481E+02  0.87314266869E+02 0.  0.
        -13    1    3    3    0    0 -0.23266182337E+02  0.12661107986E+02  0.12855489264E+02  0.29442868410E+02  0.00000000000E+00 0.  1.
         14    1    3    3    0    0  0.49469202509E+02 -0.19046848515E+01 -0.47685170872E+02  0.68736492072E+02  0.00000000000E+00 0. -1.
         -4    1    1    2    0  502 -0.26203020172E+02 -0.10756423134E+02 -0.30275860397E+01  0.28486227935E+02  0.00000000000E+00 0.  1.
<mgrwt>
<rscale>  1 0.91793682E+02</rscale>
<asrwt>0</asrwt>
<pdfrwt beam="1">  1       21 0.12655604E-01 0.91793682E+02</pdfrwt>
<pdfrwt beam="2">  1       -3 0.68314094E-02 0.91793682E+02</pdfrwt>
<totfact> 0.32716534E+05</totfact>
</mgrwt>
</event>
<event>
 6    2  0.1372363E+002  0.8935059E+02  0.7546771E-02  0.1304432E+00
         21   -1    0    0  501  502  0.00000000000E+00  0.00000000000E+00  0.34397814006E+02  0.34397814006E+02  0.00000000000E+00 0.  1.
         -1   -1    0    0    0  501 -0.00000000000E+00 -0.00000000000E+00 -0.10572298770E+03  0.10572298770E+03  0.00000000000E+00 0.  1.
         24    2    1    2    0    0  0.27325848228E+02  0.12693776909E+02 -0.44680829873E+02  0.99899476376E+02  0.84117149669E+02 0.  0.
        -11    1    3    3    0    0  0.50252589430E+02  0.31091948785E+02 -0.36218848351E+02  0.69309717930E+02  0.00000000000E+00 0.  1.
         12    1    3    3    0    0 -0.22926741202E+02 -0.18398171875E+02 -0.84619815222E+01  0.30589758446E+02  0.00000000000E+00 0. -1.
         -2    1    1    2    0  502 -0.27325848228E+02 -0.12693776909E+02 -0.26644343821E+02  0.40221325329E+02  0.00000000000E+00 0.  1.
<mgrwt>
<rscale>  1 0.89350595E+02</rscale>
<asrwt>0</asrwt>
<pdfrwt beam="1">  1       21 0.52919714E-02 0.89350595E+02</pdfrwt>
<pdfrwt beam="2">  1       -1 0.16265075E-01 0.89350595E+02</pdfrwt>
<totfact> 0.57816174E+05</totfact>
</mgrwt>
</event>
<event>
 6    2  0.1372363E+002  0.1112360E+03  0.7546771E-02  0.1258298E+00
          2   -1    0    0  502    0 -0.00000000000E+00  0.00000000000E+00  0.88496123986E+02  0.88496123986E+02  0.00000000000E+00 0. -1.
         21   -1    0    0  501  502  0.00000000000E+00 -0.00000000000E+00 -0.15091409176E+03  0.15091409176E+03  0.00000000000E+00 0. -1.
         24    2    1    2    0    0  0.47654079596E+02  0.55256687482E+02  0.35979501546E+02  0.11691011459E+03  0.83959737668E+02 0.  0.
        -11    1    3    3    0    0  0.30155814982E+02  0.51539952883E+01 -0.22472685359E+02  0.37959958270E+02  0.00000000000E+00 0.  1.
         12    1    3    3    0    0  0.17498264614E+02  0.50102692194E+02  0.58452186905E+02  0.78950156324E+02  0.00000000000E+00 0. -1.
          1    1    1    2  501    0 -0.47654079596E+02 -0.55256687482E+02 -0.98397469321E+02  0.12250010115E+03  0.00000000000E+00 0. -1.
<mgrwt>
<rscale>  1 0.11123601E+03</rscale>
<asrwt>0</asrwt>
<pdfrwt beam="1">  1       21 0.23217552E-01 0.11123601E+03</pdfrwt>
<pdfrwt beam="2">  1        2 0.13614788E-01 0.11123601E+03</pdfrwt>
<totfact> 0.91293869E+04</totfact>
</mgrwt>
</event>
<event>
 6    2  0.1372363E+002  0.8586032E+02  0.7546771E-02  0.1313198E+00
         21   -1    0    0  501  502  0.00000000000E+00  0.00000000000E+00  0.37654501968E+01  0.37654501968E+01  0.00000000000E+00 0. -1.
          2   -1    0    0  502    0 -0.00000000000E+00 -0.00000000000E+00 -0.15904627405E+04  0.15904627405E+04  0.00000000000E+00 0. -1.
         24    2    1    2    0    0 -0.72103831374E+01  0.20232892560E+02 -0.15444444291E+04  0.15468292050E+04  0.83130230742E+02 0.  0.
        -11    1    3    3    0    0 -0.17259480985E+02  0.16113441639E+02 -0.11778446417E+03  0.12012790136E+03  0.00000000000E+00 0.  1.
         12    1    3    3    0    0  0.10049097847E+02  0.41194509211E+01 -0.14266599650E+04  0.14267013037E+04  0.00000000000E+00 0. -1.
          1    1    1    2  501    0  0.72103831374E+01 -0.20232892560E+02 -0.42252861211E+02  0.47398985716E+02  0.00000000000E+00 0. -1.
<mgrwt>
<rscale>  1 0.85860322E+02</rscale>
<asrwt>0</asrwt>
<pdfrwt beam="1">  1       21 0.57930040E-03 0.85860322E+02</pdfrwt>
<pdfrwt beam="2">  1        2 0.24468642E+00 0.85860322E+02</pdfrwt>
<totfact> 0.13367257E+06</totfact>
</mgrwt>
</event>
<event>
 6    2  0.1372363E+002  0.9748449E+02  0.7546771E-02  0.1285676E+00
         -3   -1    0    0    0  501 -0.00000000000E+00  0.00000000000E+00  0.11697540624E+03  0.11697540624E+03  0.00000000000E+00 0.  1.
         21   -1    0    0  501  502  0.00000000000E+00 -0.00000000000E+00 -0.50408207779E+02  0.50408207779E+02  0.00000000000E+00 0.  1.
         24    2    1    2    0    0 -0.16611658228E+02 -0.39206734530E+02  0.12077402304E+02  0.98229777488E+02  0.87693274071E+02 0.  0.
        -11    1    3    3    0    0 -0.49801328603E+02 -0.36935688652E+02 -0.21668913709E+01  0.62041218919E+02  0.00000000000E+00 0.  1.
         12    1    3    3    0    0  0.33189670375E+02 -0.22710458783E+01  0.14244293675E+02  0.36188558569E+02  0.00000000000E+00 0. -1.
         -4    1    1    2    0  502  0.16611658228E+02  0.39206734530E+02  0.54489796155E+02  0.69153836528E+02  0.00000000000E+00 0.  1.
<mgrwt>
<rscale>  1 0.97484489E+02</rscale>
<asrwt>0</asrwt>
<pdfrwt beam="1">  1       21 0.77551089E-02 0.97484489E+02</pdfrwt>
<pdfrwt beam="2">  1       -3 0.17996216E-01 0.97484489E+02</pdfrwt>
<totfact> 0.15534297E+05</totfact>
</mgrwt>
</event>
<event>
 6    2  0.1372363E+002  0.1358711E+03  0.7546771E-02  0.1218995E+00
          2   -1    0    0  502    0 -0.00000000000E+00  0.00000000000E+00  0.28370214167E+03  0.28370214167E+03  0.00000000000E+00 0. -1.
         21   -1    0    0  501  502  0.00000000000E+00 -0.00000000000E+00 -0.68626543683E+02  0.68626543683E+02  0.00000000000E+00 0. -1.
         24    2    1    2    0    0  0.10241182900E+02  0.10812869396E+03  0.20127513714E+03  0.24284284607E+03  0.81634984970E+02 0.  0.
        -13    1    3    3    0    0 -0.29674004293E+02  0.75573033608E+02  0.96652260931E+02  0.12622792671E+03  0.00000000000E+00 0.  1.
         14    1    3    3    0    0  0.39915187193E+02  0.32555660352E+02  0.10462287621E+03  0.11661491935E+03  0.00000000000E+00 0. -1.
          1    1    1    2  501    0 -0.10241182900E+02 -0.10812869396E+03  0.13800460848E+02  0.10948583929E+03  0.00000000000E+00 0. -1.
<mgrwt>
<rscale>  1 0.13587114E+03</rscale>
<asrwt>0</asrwt>
<pdfrwt beam="1">  1       21 0.10557930E-01 0.13587114E+03</pdfrwt>
<pdfrwt beam="2">  1        2 0.43646483E-01 0.13587114E+03</pdfrwt>
<totfact> 0.10522084E+05</totfact>
</mgrwt>
</event>
<event>
 6    2  0.1372363E+002  0.1099589E+03  0.7546771E-02  0.1260646E+00
          4   -1    0    0  502    0 -0.00000000000E+00  0.00000000000E+00  0.15488736125E+02  0.15488736125E+02  0.00000000000E+00 0. -1.
         21   -1    0    0  501  502  0.00000000000E+00 -0.00000000000E+00 -0.58185350940E+03  0.58185350940E+03  0.00000000000E+00 0. -1.
         24    2    1    2    0    0 -0.15162517808E+02  0.75436393351E+02 -0.27991300767E+03  0.30073616769E+03  0.78551889269E+02 0.  0.
        -13    1    3    3    0    0  0.17197933790E+01 -0.15475540724E+02 -0.63802359684E+02  0.65674889808E+02  0.00000000000E+00 0.  1.
         14    1    3    3    0    0 -0.16882311187E+02  0.90911934075E+02 -0.21611064799E+03  0.23506127789E+03  0.00000000000E+00 0. -1.
          3    1    1    2  501    0  0.15162517808E+02 -0.75436393351E+02 -0.28645176560E+03  0.29660607783E+03  0.00000000000E+00 0. -1.
<mgrwt>
<rscale>  1 0.10995886E+03</rscale>
<asrwt>0</asrwt>
<pdfrwt beam="1">  1       21 0.89515940E-01 0.10995886E+03</pdfrwt>
<pdfrwt beam="2">  1        4 0.23828821E-02 0.10995886E+03</pdfrwt>
<totfact> 0.33148008E+04</totfact>
</mgrwt>
</event>
<event>
 6    2  0.1372363E+002  0.9819972E+02  0.7546771E-02  0.1284128E+00
         21   -1    0    0  501  502  0.00000000000E+00  0.00000000000E+00  0.38097336940E+01  0.38097336940E+01  0.00000000000E+00 0. -1.
          2   -1    0    0  502    0 -0.00000000000E+00 -0.00000000000E+00 -0.15733944833E+04  0.15733944833E+04  0.00000000000E+00 0. -1.
         24    2    1    2    0    0  0.71415267908E+01  0.54842480690E+02 -0.10997597652E+04  0.11041352843E+04  0.81144844721E+02 0.  0.
        -13    1    3    3    0    0 -0.12370215172E+02 -0.12135190032E+02 -0.73828552437E+02  0.75834953784E+02  0.00000000000E+00 0.  1.
         14    1    3    3    0    0  0.19511741963E+02  0.66977670722E+02 -0.10259312127E+04  0.10283003305E+04  0.00000000000E+00 0. -1.
          1    1    1    2  501    0 -0.71415267908E+01 -0.54842480690E+02 -0.46982498441E+03  0.47306893268E+03  0.00000000000E+00 0. -1.
<mgrwt>
<rscale>  1 0.98199720E+02</rscale>
<asrwt>0</asrwt>
<pdfrwt beam="1">  1       21 0.58611255E-03 0.98199720E+02</pdfrwt>
<pdfrwt beam="2">  1        2 0.24206082E+00 0.98199720E+02</pdfrwt>
<totfact> 0.13512591E+06</totfact>
</mgrwt>
</event>
<event>
 6    2  0.1751583E+002  0.9123067E+02  0.7546771E-02  0.1299899E+00
         -1   -1    0    0    0  501 -0.00000000000E+00  0.00000000000E+00  0.13694193186E+04  0.13694193186E+04  0.00000000000E+00 0.  1.
         21   -1    0    0  501  502  0.00000000000E+00 -0.00000000000E+00 -0.32304020805E+01  0.32304020805E+01  0.00000000000E+00 0. -1.
         24    2    1    2    0    0 -0.15184207790E+02 -0.34437285540E+02  0.79392236353E+03  0.79914689203E+03  0.83105649170E+02 0.  0.
        -11    1    3    3    0    0 -0.70302216248E+01 -0.60336706501E+02  0.63728728751E+03  0.64017577975E+03  0.00000000000E+00 0.  1.
         12    1    3    3    0    0 -0.81539861650E+01  0.25899420962E+02  0.15663507602E+03  0.15897111227E+03  0.00000000000E+00 0. -1.
         -2    1    1    2    0  502  0.15184207790E+02  0.34437285540E+02  0.57226655294E+03  0.57350282861E+03  0.00000000000E+00 0.  1.
<mgrwt>
<rscale>  1 0.91230673E+02</rscale>
<asrwt>0</asrwt>
<pdfrwt beam="1">  1       21 0.49698603E-03 0.91230673E+02</pdfrwt>
<pdfrwt beam="2">  1       -1 0.21067943E+00 0.91230673E+02</pdfrwt>
<totfact> 0.14677286E+05</totfact>
</mgrwt>
</event>
<event>
 6    2  0.1372363E+002  0.9271180E+02  0.7546771E-02  0.1296414E+00
         21   -1    0    0  501  502  0.00000000000E+00  0.00000000000E+00  0.12318294642E+03  0.12318294642E+03  0.00000000000E+00 0. -1.
          2   -1    0    0  502    0 -0.00000000000E+00 -0.00000000000E+00 -0.60594887227E+02  0.60594887227E+02  0.00000000000E+00 0. -1.
         24    2    1    2    0    0 -0.22929290210E+02 -0.39346739513E+02 -0.14896956645E+02  0.93900996033E+02  0.80756173008E+02 0.  0.
        -13    1    3    3    0    0 -0.26330950795E+02  0.15146897028E+02  0.12457843312E+02  0.32832077597E+02  0.00000000000E+00 0.  1.
         14    1    3    3    0    0  0.34016605850E+01 -0.54493636541E+02 -0.27354799958E+02  0.61068918436E+02  0.00000000000E+00 0. -1.
          1    1    1    2  501    0  0.22929290210E+02  0.39346739513E+02  0.77485015841E+02  0.89876837615E+02  0.00000000000E+00 0. -1.
<mgrwt>
<rscale>  1 0.92711799E+02</rscale>
<asrwt>0</asrwt>
<pdfrwt beam="1">  1       21 0.18951222E-01 0.92711799E+02</pdfrwt>
<pdfrwt beam="2">  1        2 0.93222904E-02 0.92711799E+02</pdfrwt>
<totfact> 0.20715884E+05</totfact>
</mgrwt>
</event>
<event>
 6    2  0.1372363E+002  0.8543630E+02  0.7546771E-02  0.1314295E+00
         -1   -1    0    0    0  501 -0.00000000000E+00  0.00000000000E+00  0.82173295489E+03  0.82173295489E+03  0.00000000000E+00 0.  1.
         21   -1    0    0  501  502  0.00000000000E+00 -0.00000000000E+00 -0.25455893257E+02  0.25455893257E+02  0.00000000000E+00 0.  1.
         24    2    1    2    0    0  0.23160663418E+02  0.45540870144E+01  0.81349693638E+03  0.81797104322E+03  0.82110937180E+02 0.  0.
        -11    1    3    3    0    0  0.17589945157E+02 -0.37963954175E+02  0.45459310199E+03  0.45651457410E+03  0.00000000000E+00 0.  1.
         12    1    3    3    0    0  0.55707182608E+01  0.42518041189E+02  0.35890383439E+03  0.36145646912E+03  0.00000000000E+00 0. -1.
         -2    1    1    2    0  502 -0.23160663418E+02 -0.45540870144E+01 -0.17219874748E+02  0.29217804928E+02  0.00000000000E+00 0.  1.
<mgrwt>
<rscale>  1 0.85436304E+02</rscale>
<asrwt>0</asrwt>
<pdfrwt beam="1">  1       21 0.39162919E-02 0.85436304E+02</pdfrwt>
<pdfrwt beam="2">  1       -1 0.12642043E+00 0.85436304E+02</pdfrwt>
<totfact> 0.22100004E+04</totfact>
</mgrwt>
</event>
<event>
 6    2  0.1372363E+002  0.8321517E+02  0.7546771E-02  0.1320167E+00
          4   -1    0    0  502    0 -0.00000000000E+00  0.00000000000E+00  0.50998037166E+03  0.50998037166E+03  0.00000000000E+00 0. -1.
         21   -1    0    0  501  502  0.00000000000E+00 -0.00000000000E+00 -0.61189652643E+01  0.61189652643E+01  0.00000000000E+00 0.  1.
         24    2    1    2    0    0 -0.11469339164E+01  0.28197178867E+02  0.39174256984E+03  0.40048346490E+03  0.78283895403E+02 0.  0.
        -11    1    3    3    0    0 -0.13811243878E+02 -0.26305417704E+00  0.90258063514E+01  0.16501055580E+02  0.00000000000E+00 0.  1.
         12    1    3    3    0    0  0.12664309961E+02  0.28460233044E+02  0.38271676348E+03  0.38398240932E+03  0.00000000000E+00 0. -1.
          3    1    1    2  501    0  0.11469339164E+01 -0.28197178867E+02  0.11211883656E+03  0.11561587203E+03  0.00000000000E+00 0. -1.
<mgrwt>
<rscale>  1 0.83215171E+02</rscale>
<asrwt>0</asrwt>
<pdfrwt beam="1">  1       21 0.94137967E-03 0.83215171E+02</pdfrwt>
<pdfrwt beam="2">  1        4 0.78458486E-01 0.83215171E+02</pdfrwt>
<totfact> 0.22356273E+05</totfact>
</mgrwt>
</event>
<event>
 6    2  0.1372363E+002  0.8613752E+02  0.7546771E-02  0.1312484E+00
         21   -1    0    0  501  502  0.00000000000E+00  0.00000000000E+00  0.36883061656E+01  0.36883061656E+01  0.00000000000E+00 0.  1.
          2   -1    0    0  502    0 -0.00000000000E+00 -0.00000000000E+00 -0.93589289922E+03  0.93589289922E+03  0.00000000000E+00 0. -1.
         24    2    1    2    0    0 -0.26543383969E+02 -0.12304513538E+02 -0.61010761663E+03  0.61615824005E+03  0.81016792230E+02 0.  0.
        -11    1    3    3    0    0 -0.23622550464E+02  0.35557715408E+00 -0.44338548906E+02  0.50240006415E+02  0.00000000000E+00 0.  1.
         12    1    3    3    0    0 -0.29208335057E+01 -0.12660090692E+02 -0.56576906773E+03  0.56591823364E+03  0.00000000000E+00 0. -1.
          1    1    1    2  501    0  0.26543383969E+02  0.12304513538E+02 -0.32209697642E+03  0.32342296534E+03  0.00000000000E+00 0. -1.
<mgrwt>
<rscale>  1 0.86137523E+02</rscale>
<asrwt>0</asrwt>
<pdfrwt beam="1">  1       21 0.56743164E-03 0.86137523E+02</pdfrwt>
<pdfrwt beam="2">  1        2 0.14398354E+00 0.86137523E+02</pdfrwt>
<totfact> 0.31123840E+06</totfact>
</mgrwt>
</event>
<event>
 6    2  0.1372363E+002  0.8547153E+02  0.7546771E-02  0.1314204E+00
         21   -1    0    0  501  502  0.00000000000E+00  0.00000000000E+00  0.37992753498E+01  0.37992753498E+01  0.00000000000E+00 0.  1.
          2   -1    0    0  502    0 -0.00000000000E+00 -0.00000000000E+00 -0.85495153172E+03  0.85495153172E+03  0.00000000000E+00 0. -1.
         24    2    1    2    0    0 -0.99822946186E+01  0.25286244093E+02 -0.69683958752E+03  0.70206181539E+03  0.81032965800E+02 0.  0.
        -13    1    3    3    0    0  0.22529682382E+02  0.11118943088E+02 -0.72763487022E+02  0.76978844674E+02  0.00000000000E+00 0.  1.
         14    1    3    3    0    0 -0.32511977001E+02  0.14167301006E+02 -0.62407610050E+03  0.62508297071E+03  0.00000000000E+00 0. -1.
          1    1    1    2  501    0  0.99822946186E+01 -0.25286244093E+02 -0.15431266886E+03  0.15668899169E+03  0.00000000000E+00 0. -1.
<mgrwt>
<rscale>  1 0.85471527E+02</rscale>
<asrwt>0</asrwt>
<pdfrwt beam="1">  1       21 0.58450444E-03 0.85471527E+02</pdfrwt>
<pdfrwt beam="2">  1        2 0.13153088E+00 0.85471527E+02</pdfrwt>
<totfact> 0.33347702E+06</totfact>
</mgrwt>
</event>
<event>
 6    2  0.1372363E+002  0.7850019E+02  0.7546771E-02  0.1333362E+00
         21   -1    0    0  501  502  0.00000000000E+00  0.00000000000E+00  0.57398180500E+03  0.57398180500E+03  0.00000000000E+00 0.  1.
         -1   -1    0    0    0  501 -0.00000000000E+00 -0.00000000000E+00 -0.10049078662E+02  0.10049078662E+02  0.00000000000E+00 0.  1.
         24    2    1    2    0    0 -0.22341781796E+02 -0.82446253172E+01  0.14898849823E+03  0.16840383750E+03  0.74800740770E+02 0.  0.
        -13    1    3    3    0    0 -0.16947401593E+02 -0.39274104263E+02  0.57635166646E+02  0.71773826154E+02  0.00000000000E+00 0.  1.
         14    1    3    3    0    0 -0.53943802030E+01  0.31029478946E+02  0.91353331581E+02  0.96630011344E+02  0.00000000000E+00 0. -1.
         -2    1    1    2    0  502  0.22341781796E+02  0.82446253172E+01  0.41494422811E+03  0.41562704616E+03  0.00000000000E+00 0.  1.
<mgrwt>
<rscale>  1 0.78500190E+02</rscale>
<asrwt>0</asrwt>
<pdfrwt beam="1">  1       21 0.88304868E-01 0.78500190E+02</pdfrwt>
<pdfrwt beam="2">  1       -1 0.15460125E-02 0.78500190E+02</pdfrwt>
<totfact> 0.91804281E+04</totfact>
</mgrwt>
</event>
<event>
 6    2  0.1372363E+002  0.1265278E+03  0.7546771E-02  0.1232701E+00
          2   -1    0    0  502    0 -0.00000000000E+00  0.00000000000E+00  0.61835317984E+02  0.61835317984E+02  0.00000000000E+00 0. -1.
         21   -1    0    0  501  502  0.00000000000E+00 -0.00000000000E+00 -0.20431375962E+03  0.20431375962E+03  0.00000000000E+00 0. -1.
         24    2    1    2    0    0 -0.11410894664E+02  0.97552187983E+02 -0.77279782197E+02  0.14826140611E+03  0.79766170203E+02 0.  0.
        -11    1    3    3    0    0  0.62569769385E+01  0.46180254652E+02 -0.81383011284E+02  0.93781449156E+02  0.00000000000E+00 0.  1.
         12    1    3    3    0    0 -0.17667871602E+02  0.51371933330E+02  0.41032290866E+01  0.54479956957E+02  0.00000000000E+00 0. -1.
          1    1    1    2  501    0  0.11410894664E+02 -0.97552187983E+02 -0.65198659441E+02  0.11788767149E+03  0.00000000000E+00 0. -1.
<mgrwt>
<rscale>  1 0.12652778E+03</rscale>
<asrwt>0</asrwt>
<pdfrwt beam="1">  1       21 0.31432886E-01 0.12652778E+03</pdfrwt>
<pdfrwt beam="2">  1        2 0.95131258E-02 0.12652778E+03</pdfrwt>
<totfact> 0.79374956E+04</totfact>
</mgrwt>
</event>
<event>
 6    2  0.1372363E+002  0.1141053E+03  0.7546771E-02  0.1253151E+00
         21   -1    0    0  501  502  0.00000000000E+00  0.00000000000E+00  0.22285942790E+02  0.22285942790E+02  0.00000000000E+00 0. -1.
          2   -1    0    0  502    0 -0.00000000000E+00 -0.00000000000E+00 -0.49326292632E+03  0.49326292632E+03  0.00000000000E+00 0. -1.
         24    2    1    2    0    0  0.71887005983E+02 -0.37031393145E+02 -0.17650955497E+03  0.21018002297E+03  0.80504368541E+02 0.  0.
        -13    1    3    3    0    0  0.13304474531E+02  0.12675705849E+02 -0.78359003433E+00  0.18392840310E+02  0.00000000000E+00 0.  1.
         14    1    3    3    0    0  0.58582531451E+02 -0.49707098994E+02 -0.17572596493E+03  0.19178718266E+03  0.00000000000E+00 0. -1.
          1    1    1    2  501    0 -0.71887005983E+02  0.37031393145E+02 -0.29446742857E+03  0.30536884614E+03  0.00000000000E+00 0. -1.
<mgrwt>
<rscale>  1 0.11410530E+03</rscale>
<asrwt>0</asrwt>
<pdfrwt beam="1">  1       21 0.34286064E-02 0.11410530E+03</pdfrwt>
<pdfrwt beam="2">  1        2 0.75886608E-01 0.11410530E+03</pdfrwt>
<totfact> 0.39016437E+05</totfact>
</mgrwt>
</event>
<event>
 6    2  0.1372363E+002  0.1037056E+03  0.7546771E-02  0.1272691E+00
          4   -1    0    0  502    0 -0.00000000000E+00  0.00000000000E+00  0.68491401477E+03  0.68491401477E+03  0.00000000000E+00 0. -1.
         21   -1    0    0  501  502  0.00000000000E+00 -0.00000000000E+00 -0.18606877831E+02  0.18606877831E+02  0.00000000000E+00 0. -1.
         24    2    1    2    0    0 -0.64373085688E+02  0.19490034925E+02  0.14713323507E+03  0.18000843238E+03  0.78937261443E+02 0.  0.
        -11    1    3    3    0    0 -0.31906588746E+02  0.37771604499E+02  0.12983093959E+03  0.13892730973E+03  0.00000000000E+00 0.  1.
         12    1    3    3    0    0 -0.32466496942E+02 -0.18281569575E+02  0.17302295472E+02  0.41081122653E+02  0.00000000000E+00 0. -1.
          3    1    1    2  501    0  0.64373085688E+02 -0.19490034925E+02  0.51917390187E+03  0.52351246022E+03  0.00000000000E+00 0. -1.
<mgrwt>
<rscale>  1 0.10370558E+03</rscale>
<asrwt>0</asrwt>
<pdfrwt beam="1">  1       21 0.28625971E-02 0.10370558E+03</pdfrwt>
<pdfrwt beam="2">  1        4 0.10537137E+00 0.10370558E+03</pdfrwt>
<totfact> 0.20371577E+04</totfact>
</mgrwt>
</event>
<event>
 6    2  0.1372363E+002  0.9483200E+02  0.7546771E-02  0.1291555E+00
         21   -1    0    0  501  502  0.00000000000E+00  0.00000000000E+00  0.60802453111E+03  0.60802453111E+03  0.00000000000E+00 0.  1.
         -1   -1    0    0    0  501 -0.00000000000E+00 -0.00000000000E+00 -0.96023893853E+01  0.96023893853E+01  0.00000000000E+00 0.  1.
         24    2    1    2    0    0  0.35012590524E+02  0.37515495237E+02  0.29417518282E+03  0.30908274881E+03  0.79748439150E+02 0.  0.
        -11    1    3    3    0    0  0.51750004765E+02  0.49456091918E+02  0.19317254981E+03  0.20600874259E+03  0.00000000000E+00 0.  1.
         12    1    3    3    0    0 -0.16737414241E+02 -0.11940596681E+02  0.10100263301E+03  0.10307400622E+03  0.00000000000E+00 0. -1.
         -2    1    1    2    0  502 -0.35012590524E+02 -0.37515495237E+02  0.30424695890E+03  0.30854417168E+03  0.00000000000E+00 0.  1.
<mgrwt>
<rscale>  1 0.94831996E+02</rscale>
<asrwt>0</asrwt>
<pdfrwt beam="1">  1       21 0.93542205E-01 0.94831996E+02</pdfrwt>
<pdfrwt beam="2">  1       -1 0.14772911E-02 0.94831996E+02</pdfrwt>
<totfact> 0.86859777E+04</totfact>
</mgrwt>
</event>
<event>
 6    2  0.1372363E+002  0.8355072E+02  0.7546771E-02  0.1319267E+00
         21   -1    0    0  501  502  0.00000000000E+00  0.00000000000E+00  0.67796347056E+01  0.67796347056E+01  0.00000000000E+00 0.  1.
          2   -1    0    0  502    0 -0.00000000000E+00 -0.00000000000E+00 -0.48801486586E+03  0.48801486586E+03  0.00000000000E+00 0. -1.
         24    2    1    2    0    0  0.15281830269E+02 -0.18056780284E+02 -0.43397516333E+03  0.44194475448E+03  0.80132028388E+02 0.  0.
        -13    1    3    3    0    0  0.39890410735E+01  0.26766440693E+02 -0.27662560610E+03  0.27794618318E+03  0.00000000000E+00 0.  1.
         14    1    3    3    0    0  0.11292789196E+02 -0.44823220976E+02 -0.15734955723E+03  0.16399857130E+03  0.00000000000E+00 0. -1.
          1    1    1    2  501    0 -0.15281830269E+02  0.18056780284E+02 -0.47260067817E+02  0.52849746080E+02  0.00000000000E+00 0. -1.
<mgrwt>
<rscale>  1 0.83550725E+02</rscale>
<asrwt>0</asrwt>
<pdfrwt beam="1">  1       21 0.10430205E-02 0.83550725E+02</pdfrwt>
<pdfrwt beam="2">  1        2 0.75079228E-01 0.83550725E+02</pdfrwt>
<totfact> 0.25764266E+06</totfact>
</mgrwt>
</event>
<event>
 6    2  0.1372363E+002  0.8672991E+02  0.7546771E-02  0.1310970E+00
         21   -1    0    0  501  502  0.00000000000E+00  0.00000000000E+00  0.49867644689E+03  0.49867644689E+03  0.00000000000E+00 0. -1.
          4   -1    0    0  502    0 -0.00000000000E+00 -0.00000000000E+00 -0.12448371902E+02  0.12448371902E+02  0.00000000000E+00 0. -1.
         24    2    1    2    0    0 -0.29801093609E+02  0.20578723785E+02  0.15250072686E+03  0.17543816142E+03  0.78806647783E+02 0.  0.
        -13    1    3    3    0    0  0.27290630871E+01 -0.19395714229E+01  0.12976274333E+03  0.12980592929E+03  0.00000000000E+00 0.  1.
         14    1    3    3    0    0 -0.32530156696E+02  0.22518295208E+02  0.22737983536E+02  0.45632232129E+02  0.00000000000E+00 0. -1.
          3    1    1    2  501    0  0.29801093609E+02 -0.20578723785E+02  0.33372734812E+03  0.33568665737E+03  0.00000000000E+00 0. -1.
<mgrwt>
<rscale>  1 0.86729907E+02</rscale>
<asrwt>0</asrwt>
<pdfrwt beam="1">  1       21 0.76719438E-01 0.86729907E+02</pdfrwt>
<pdfrwt beam="2">  1        4 0.19151345E-02 0.86729907E+02</pdfrwt>
<totfact> 0.63604503E+04</totfact>
</mgrwt>
</event>
<event>
 6    2  0.1372363E+002  0.9241316E+02  0.7546771E-02  0.1297111E+00
          2   -1    0    0  502    0 -0.00000000000E+00  0.00000000000E+00  0.34710434812E+03  0.34710434812E+03  0.00000000000E+00 0. -1.
         21   -1    0    0  501  502  0.00000000000E+00 -0.00000000000E+00 -0.16208387039E+02  0.16208387039E+02  0.00000000000E+00 0.  1.
         24    2    1    2    0    0 -0.43843074551E+02  0.14866572841E+02  0.27831050606E+03  0.29325233083E+03  0.79981007644E+02 0.  0.
        -11    1    3    3    0    0 -0.28008909445E+02  0.43560368917E+02  0.10747431508E+03  0.11930101906E+03  0.00000000000E+00 0.  1.
         12    1    3    3    0    0 -0.15834165106E+02 -0.28693796076E+02  0.17083619098E+03  0.17395131177E+03  0.00000000000E+00 0. -1.
          1    1    1    2  501    0  0.43843074551E+02 -0.14866572841E+02  0.52585455024E+02  0.70060404325E+02  0.00000000000E+00 0. -1.
<mgrwt>
<rscale>  1 0.92413158E+02</rscale>
<asrwt>0</asrwt>
<pdfrwt beam="1">  1       21 0.24935983E-02 0.92413158E+02</pdfrwt>
<pdfrwt beam="2">  1        2 0.53400663E-01 0.92413158E+02</pdfrwt>
<totfact> 0.93644825E+05</totfact>
</mgrwt>
</event>
<event>
 6    2  0.1372363E+002  0.8448384E+02  0.7546771E-02  0.1316788E+00
         21   -1    0    0  501  502  0.00000000000E+00  0.00000000000E+00  0.48734759349E+02  0.48734759349E+02  0.00000000000E+00 0. -1.
          4   -1    0    0  502    0 -0.00000000000E+00 -0.00000000000E+00 -0.70575493912E+02  0.70575493912E+02  0.00000000000E+00 0. -1.
         24    2    1    2    0    0  0.20791532249E+01 -0.26973496581E+02 -0.32100281657E+02  0.90376696575E+02  0.80035159807E+02 0.  0.
        -11    1    3    3    0    0 -0.14841405585E+02  0.80982478428E+01  0.19450570149E+02  0.25771566056E+02  0.00000000000E+00 0.  1.
         12    1    3    3    0    0  0.16920558810E+02 -0.35071744424E+02 -0.51550851806E+02  0.64605130518E+02  0.00000000000E+00 0. -1.
          3    1    1    2  501    0 -0.20791532249E+01  0.26973496581E+02  0.10259547095E+02  0.28933556686E+02  0.00000000000E+00 0. -1.
<mgrwt>
<rscale>  1 0.84483840E+02</rscale>
<asrwt>0</asrwt>
<pdfrwt beam="1">  1       21 0.74976553E-02 0.84483840E+02</pdfrwt>
<pdfrwt beam="2">  1        4 0.10857768E-01 0.84483840E+02</pdfrwt>
<totfact> 0.32420316E+05</totfact>
</mgrwt>
</event>
<event>
 6    2  0.1372363E+002  0.8620114E+02  0.7546771E-02  0.1312321E+00
         -1   -1    0    0    0  501 -0.00000000000E+00  0.00000000000E+00  0.39112609957E+03  0.39112609957E+03  0.00000000000E+00 0.  1.
         21   -1    0    0  501  502  0.00000000000E+00 -0.00000000000E+00 -0.12251307865E+02  0.12251307865E+02  0.00000000000E+00 0.  1.
         24    2    1    2    0    0 -0.99262083200E+01 -0.34226514116E+02  0.33949022864E+03  0.35026311851E+03  0.78489827155E+02 0.  0.
        -13    1    3    3    0    0 -0.37015563351E+01 -0.55469618881E+01  0.30459386443E+03  0.30466685503E+03  0.00000000000E+00 0.  1.
         14    1    3    3    0    0 -0.62246519849E+01 -0.28679552228E+02  0.34896364209E+02  0.45596263480E+02  0.00000000000E+00 0. -1.
         -2    1    1    2    0  502  0.99262083200E+01  0.34226514116E+02  0.39384563069E+02  0.53114288927E+02  0.00000000000E+00 0.  1.
<mgrwt>
<rscale>  1 0.86201142E+02</rscale>
<asrwt>0</asrwt>
<pdfrwt beam="1">  1       21 0.18848169E-02 0.86201142E+02</pdfrwt>
<pdfrwt beam="2">  1       -1 0.60173237E-01 0.86201142E+02</pdfrwt>
<totfact> 0.34129218E+05</totfact>
</mgrwt>
</event>
<event>
 6    2  0.1372363E+002  0.9221372E+02  0.7546771E-02  0.1297578E+00
         21   -1    0    0  501  502  0.00000000000E+00  0.00000000000E+00  0.31094043614E+02  0.31094043614E+02  0.00000000000E+00 0. -1.
          2   -1    0    0  502    0 -0.00000000000E+00 -0.00000000000E+00 -0.42533439202E+03  0.42533439202E+03  0.00000000000E+00 0. -1.
         24    2    1    2    0    0 -0.22835578016E+02 -0.37066131116E+02 -0.40179599080E+03  0.41224190566E+03  0.81289660238E+02 0.  0.
        -13    1    3    3    0    0 -0.19166029898E+02  0.12914740230E+02 -0.34393502566E+02  0.41437184219E+02  0.00000000000E+00 0.  1.
         14    1    3    3    0    0 -0.36695481181E+01 -0.49980871345E+02 -0.36740248824E+03  0.37080472145E+03  0.00000000000E+00 0. -1.
          1    1    1    2  501    0  0.22835578016E+02  0.37066131116E+02  0.75556423923E+01  0.44186529974E+02  0.00000000000E+00 0. -1.
<mgrwt>
<rscale>  1 0.92213722E+02</rscale>
<asrwt>0</asrwt>
<pdfrwt beam="1">  1       21 0.47836991E-02 0.92213722E+02</pdfrwt>
<pdfrwt beam="2">  1        2 0.65436059E-01 0.92213722E+02</pdfrwt>
<totfact> 0.26027078E+05</totfact>
</mgrwt>
</event>
<event>
 6    2  0.1372363E+002  0.1093133E+03  0.7546771E-02  0.1261847E+00
          4   -1    0    0  502    0 -0.00000000000E+00  0.00000000000E+00  0.28474840315E+03  0.28474840315E+03  0.00000000000E+00 0. -1.
         21   -1    0    0  501  502  0.00000000000E+00 -0.00000000000E+00 -0.21245117221E+03  0.21245117221E+03  0.00000000000E+00 0. -1.
         24    2    1    2    0    0  0.33594731339E+02  0.67219570525E+02  0.26699332689E+03  0.28850447140E+03  0.79387132321E+02 0.  0.
        -11    1    3    3    0    0 -0.69348792679E+01 -0.13951652025E+02  0.19849904592E+02  0.25234101074E+02  0.00000000000E+00 0.  1.
         12    1    3    3    0    0  0.40529610607E+02  0.81171222549E+02  0.24714342230E+03  0.26327037033E+03  0.00000000000E+00 0. -1.
          3    1    1    2  501    0 -0.33594731339E+02 -0.67219570525E+02 -0.19469609595E+03  0.20869510395E+03  0.00000000000E+00 0. -1.
<mgrwt>
<rscale>  1 0.10931328E+03</rscale>
<asrwt>0</asrwt>
<pdfrwt beam="1">  1       21 0.32684796E-01 0.10931328E+03</pdfrwt>
<pdfrwt beam="2">  1        4 0.43807447E-01 0.10931328E+03</pdfrwt>
<totfact> 0.18807178E+03</totfact>
</mgrwt>
</event>
<event>
 6    2  0.1372363E+002  0.8040043E+02  0.7546771E-02  0.1327919E+00
         21   -1    0    0  501  502  0.00000000000E+00  0.00000000000E+00  0.40574255990E+01  0.40574255990E+01  0.00000000000E+00 0.  1.
          2   -1    0    0  502    0 -0.00000000000E+00 -0.00000000000E+00 -0.97789545299E+03  0.97789545299E+03  0.00000000000E+00 0. -1.
         24    2    1    2    0    0 -0.51044519100E+01 -0.19953793511E+02 -0.93052733618E+03  0.93399429981E+03  0.77717561756E+02 0.  0.
        -13    1    3    3    0    0  0.34039769490E+02  0.66195617507E+00 -0.30231472163E+03  0.30422579609E+03  0.00000000000E+00 0.  1.
         14    1    3    3    0    0 -0.39144221400E+02 -0.20615749686E+02 -0.62821261455E+03  0.62976850373E+03  0.00000000000E+00 0. -1.
          1    1    1    2  501    0  0.51044519100E+01  0.19953793511E+02 -0.43310691211E+02  0.47958578773E+02  0.00000000000E+00 0. -1.
<mgrwt>
<rscale>  1 0.80400427E+02</rscale>
<asrwt>0</asrwt>
<pdfrwt beam="1">  1       21 0.62421924E-03 0.80400427E+02</pdfrwt>
<pdfrwt beam="2">  1        2 0.15044547E+00 0.80400427E+02</pdfrwt>
<totfact> 0.25184872E+06</totfact>
</mgrwt>
</event>
<event>
 6    2  0.1372363E+002  0.8247926E+02  0.7546771E-02  0.1322159E+00
         21   -1    0    0  501  502  0.00000000000E+00  0.00000000000E+00  0.40241984224E+01  0.40241984224E+01  0.00000000000E+00 0.  1.
          2   -1    0    0  502    0 -0.00000000000E+00 -0.00000000000E+00 -0.79308706926E+03  0.79308706926E+03  0.00000000000E+00 0. -1.
         24    2    1    2    0    0  0.23755225203E+02 -0.13632328803E+01 -0.70292473585E+03  0.70774713938E+03  0.78972526236E+02 0.  0.
        -11    1    3    3    0    0  0.31567368453E+02 -0.34782827946E+02 -0.34548385315E+03  0.34866235337E+03  0.00000000000E+00 0.  1.
         12    1    3    3    0    0 -0.78121432492E+01  0.33419595066E+02 -0.35744088271E+03  0.35908478601E+03  0.00000000000E+00 0. -1.
          1    1    1    2  501    0 -0.23755225203E+02  0.13632328803E+01 -0.86138134981E+02  0.89364128297E+02  0.00000000000E+00 0. -1.
<mgrwt>
<rscale>  1 0.82479264E+02</rscale>
<asrwt>0</asrwt>
<pdfrwt beam="1">  1       21 0.61910818E-03 0.82479264E+02</pdfrwt>
<pdfrwt beam="2">  1        2 0.12201325E+00 0.82479264E+02</pdfrwt>
<totfact> 0.33343525E+06</totfact>
</mgrwt>
</event>
<event>
 6    2  0.1372363E+002  0.9017167E+02  0.7546771E-02  0.1302437E+00
         -1   -1    0    0    0  501 -0.00000000000E+00  0.00000000000E+00  0.11192992879E+03  0.11192992879E+03  0.00000000000E+00 0.  1.
         21   -1    0    0  501  502  0.00000000000E+00 -0.00000000000E+00 -0.42902510530E+02  0.42902510530E+02  0.00000000000E+00 0. -1.
         24    2    1    2    0    0 -0.31856487033E+02 -0.28470446979E+02  0.66485123535E+02  0.11203214283E+03  0.79407350153E+02 0.  0.
        -13    1    3    3    0    0 -0.14794415036E+01 -0.20431069547E+02  0.76387077498E+02  0.79086047813E+02  0.00000000000E+00 0.  1.
         14    1    3    3    0    0 -0.30377045529E+02 -0.80393774317E+01 -0.99019539630E+01  0.32946095017E+02  0.00000000000E+00 0. -1.
         -2    1    1    2    0  502  0.31856487033E+02  0.28470446979E+02  0.25422947263E+01  0.42800296491E+02  0.00000000000E+00 0.  1.
<mgrwt>
<rscale>  1 0.90171666E+02</rscale>
<asrwt>0</asrwt>
<pdfrwt beam="1">  1       21 0.66003863E-02 0.90171666E+02</pdfrwt>
<pdfrwt beam="2">  1       -1 0.17219989E-01 0.90171666E+02</pdfrwt>
<totfact> 0.36533359E+05</totfact>
</mgrwt>
</event>
<event>
 6    2  0.1372363E+002  0.8926716E+02  0.7546771E-02  0.1304636E+00
         21   -1    0    0  501  502  0.00000000000E+00  0.00000000000E+00  0.77400395569E+01  0.77400395569E+01  0.00000000000E+00 0. -1.
          2   -1    0    0  502    0 -0.00000000000E+00 -0.00000000000E+00 -0.57103805532E+03  0.57103805532E+03  0.00000000000E+00 0. -1.
         24    2    1    2    0    0  0.38682297972E+02  0.85381529706E+01 -0.44961652009E+03  0.45839245333E+03  0.79996286778E+02 0.  0.
        -13    1    3    3    0    0 -0.33438469519E+01  0.14691108325E+02 -0.13554025062E+02  0.20266266841E+02  0.00000000000E+00 0.  1.
         14    1    3    3    0    0  0.42026144924E+02 -0.61529553547E+01 -0.43606249503E+03  0.43812618649E+03  0.00000000000E+00 0. -1.
          1    1    1    2  501    0 -0.38682297972E+02 -0.85381529706E+01 -0.11368149568E+03  0.12038564155E+03  0.00000000000E+00 0. -1.
<mgrwt>
<rscale>  1 0.89267162E+02</rscale>
<asrwt>0</asrwt>
<pdfrwt beam="1">  1       21 0.11907752E-02 0.89267162E+02</pdfrwt>
<pdfrwt beam="2">  1        2 0.87852020E-01 0.89267162E+02</pdfrwt>
<totfact> 0.17781520E+06</totfact>
</mgrwt>
</event>
<event>
 6    2  0.1372363E+002  0.8640810E+02  0.7546771E-02  0.1311791E+00
         21   -1    0    0  501  502  0.00000000000E+00  0.00000000000E+00  0.31756365630E+01  0.31756365630E+01  0.00000000000E+00 0. -1.
          2   -1    0    0  502    0 -0.00000000000E+00 -0.00000000000E+00 -0.25556270049E+04  0.25556270049E+04  0.00000000000E+00 0. -1.
         24    2    1    2    0    0  0.77469407801E+01 -0.23891089794E+02 -0.24898786326E+04  0.24913775236E+04  0.82677449790E+02 0.  0.
        -11    1    3    3    0    0  0.33635809158E+02 -0.34881708083E+02 -0.94384141523E+03  0.94508450327E+03  0.00000000000E+00 0.  1.
         12    1    3    3    0    0 -0.25888868378E+02  0.10990618289E+02 -0.15460372174E+04  0.15462930203E+04  0.00000000000E+00 0. -1.
          1    1    1    2  501    0 -0.77469407801E+01  0.23891089794E+02 -0.62572735767E+02  0.67425117904E+02  0.00000000000E+00 0. -1.
<mgrwt>
<rscale>  1 0.86408101E+02</rscale>
<asrwt>0</asrwt>
<pdfrwt beam="1">  1       21 0.48856137E-03 0.86408101E+02</pdfrwt>
<pdfrwt beam="2">  1        2 0.39317186E+00 0.86408101E+02</pdfrwt>
<totfact> 0.56218296E+05</totfact>
</mgrwt>
</event>
<event>
 6    2  0.1372363E+002  0.8653855E+02  0.7546771E-02  0.1311457E+00
         21   -1    0    0  501  502  0.00000000000E+00  0.00000000000E+00  0.22720791688E+04  0.22720791688E+04  0.00000000000E+00 0. -1.
          4   -1    0    0  502    0 -0.00000000000E+00 -0.00000000000E+00 -0.27679605382E+01  0.27679605382E+01  0.00000000000E+00 0. -1.
         24    2    1    2    0    0  0.28416549975E+02 -0.14771092594E+02  0.71670486086E+03  0.72191050621E+03  0.80394252866E+02 0.  0.
        -11    1    3    3    0    0  0.56274901002E+02 -0.14420188524E+02  0.52195406276E+03  0.52517697012E+03  0.00000000000E+00 0.  1.
         12    1    3    3    0    0 -0.27858351027E+02 -0.35090407005E+00  0.19475079811E+03  0.19673353608E+03  0.00000000000E+00 0. -1.
          3    1    1    2  501    0 -0.28416549975E+02  0.14771092594E+02  0.15526063474E+04  0.15529366231E+04  0.00000000000E+00 0. -1.
<mgrwt>
<rscale>  1 0.86538554E+02</rscale>
<asrwt>0</asrwt>
<pdfrwt beam="1">  1       21 0.34954915E+00 0.86538554E+02</pdfrwt>
<pdfrwt beam="2">  1        4 0.42584190E-03 0.86538554E+02</pdfrwt>
<totfact> 0.82612334E+03</totfact>
</mgrwt>
</event>
<event>
 6    2  0.1372363E+002  0.1667055E+03  0.7546771E-02  0.1181328E+00
         21   -1    0    0  501  502  0.00000000000E+00  0.00000000000E+00  0.32541486725E+02  0.32541486725E+02  0.00000000000E+00 0.  1.
          2   -1    0    0  502    0 -0.00000000000E+00 -0.00000000000E+00 -0.12139525740E+04  0.12139525740E+04  0.00000000000E+00 0. -1.
         24    2    1    2    0    0  0.72872843320E+02 -0.12536108914E+03 -0.22980184059E+03  0.28390068223E+03  0.82248753576E+02 0.  0.
        -11    1    3    3    0    0  0.59466088236E+02 -0.79386076855E+02 -0.82514445560E+02  0.12902324819E+03  0.00000000000E+00 0.  1.
         12    1    3    3    0    0  0.13406755084E+02 -0.45975012281E+02 -0.14728739504E+03  0.15487743403E+03  0.00000000000E+00 0. -1.
          1    1    1    2  501    0 -0.72872843320E+02  0.12536108914E+03 -0.95160924664E+03  0.96259337846E+03  0.00000000000E+00 0. -1.
<mgrwt>
<rscale>  1 0.16670546E+03</rscale>
<asrwt>0</asrwt>
<pdfrwt beam="1">  1       21 0.50063826E-02 0.16670546E+03</pdfrwt>
<pdfrwt beam="2">  1        2 0.18676193E+00 0.16670546E+03</pdfrwt>
<totfact> 0.67484169E+04</totfact>
</mgrwt>
</event>
<event>
 6    2  0.1372363E+002  0.8371755E+02  0.7546771E-02  0.1318821E+00
         21   -1    0    0  501  502  0.00000000000E+00  0.00000000000E+00  0.60808526754E+01  0.60808526754E+01  0.00000000000E+00 0.  1.
          2   -1    0    0  502    0 -0.00000000000E+00 -0.00000000000E+00 -0.44852471906E+03  0.44852471906E+03  0.00000000000E+00 0. -1.
         24    2    1    2    0    0 -0.19447473727E+02 -0.69767595934E+01 -0.36134867948E+03  0.37091979787E+03  0.81127978401E+02 0.  0.
        -13    1    3    3    0    0 -0.22155816427E+02  0.30947051610E+02 -0.10336528002E+03  0.11014981306E+03  0.00000000000E+00 0.  1.
         14    1    3    3    0    0  0.27083427003E+01 -0.37923811203E+02 -0.25798339947E+03  0.26076998481E+03  0.00000000000E+00 0. -1.
          1    1    1    2  501    0  0.19447473727E+02  0.69767595934E+01 -0.81095186900E+02  0.83685773863E+02  0.00000000000E+00 0. -1.
<mgrwt>
<rscale>  1 0.83717551E+02</rscale>
<asrwt>0</asrwt>
<pdfrwt beam="1">  1       21 0.93551556E-03 0.83717551E+02</pdfrwt>
<pdfrwt beam="2">  1        2 0.69003820E-01 0.83717551E+02</pdfrwt>
<totfact> 0.33411550E+06</totfact>
</mgrwt>
</event>
<event>
 6    2  0.1372363E+002  0.9664539E+02  0.7546771E-02  0.1287513E+00
          2   -1    0    0  502    0 -0.00000000000E+00  0.00000000000E+00  0.88849622201E+03  0.88849622201E+03  0.00000000000E+00 0. -1.
         21   -1    0    0  501  502  0.00000000000E+00 -0.00000000000E+00 -0.67299318029E+01  0.67299318029E+01  0.00000000000E+00 0. -1.
         24    2    1    2    0    0 -0.17957711042E+02 -0.19082214380E+02  0.84246637293E+03  0.84799169828E+03  0.93025375796E+02 0.  0.
        -13    1    3    3    0    0 -0.48668571568E+02  0.69915784985E+00  0.66642305683E+03  0.66819818119E+03  0.00000000000E+00 0.  1.
         14    1    3    3    0    0  0.30710860526E+02 -0.19781372230E+02  0.17604331611E+03  0.17979351709E+03  0.00000000000E+00 0. -1.
          1    1    1    2  501    0  0.17957711042E+02  0.19082214380E+02  0.39299917275E+02  0.47234455532E+02  0.00000000000E+00 0. -1.
<mgrwt>
<rscale>  1 0.96645387E+02</rscale>
<asrwt>0</asrwt>
<pdfrwt beam="1">  1       21 0.10353748E-02 0.96645387E+02</pdfrwt>
<pdfrwt beam="2">  1        2 0.13669163E+00 0.96645387E+02</pdfrwt>
<totfact> 0.13243073E+06</totfact>
</mgrwt>
</event>
<event>
 6    2  0.1372363E+002  0.1370390E+03  0.7546771E-02  0.1217370E+00
         -3   -1    0    0    0  501 -0.00000000000E+00  0.00000000000E+00  0.85883110169E+01  0.85883110169E+01  0.00000000000E+00 0.  1.
         21   -1    0    0  501  502  0.00000000000E+00 -0.00000000000E+00 -0.19891424526E+04  0.19891424526E+04  0.00000000000E+00 0. -1.
         24    2    1    2    0    0 -0.28198750219E+02  0.10000208577E+03 -0.72166332719E+03  0.73455948891E+03  0.89353781506E+02 0.  0.
        -13    1    3    3    0    0 -0.14014794868E+02  0.71792990230E+02 -0.21875140019E+03  0.23065737146E+03  0.00000000000E+00 0.  1.
         14    1    3    3    0    0 -0.14183955350E+02  0.28209095542E+02 -0.50291192700E+03  0.50390211746E+03  0.00000000000E+00 0. -1.
         -4    1    1    2    0  502  0.28198750219E+02 -0.10000208577E+03 -0.12588908144E+04  0.12631712747E+04  0.00000000000E+00 0.  1.
<mgrwt>
<rscale>  1 0.13703899E+03</rscale>
<asrwt>0</asrwt>
<pdfrwt beam="1">  1       21 0.30602202E+00 0.13703899E+03</pdfrwt>
<pdfrwt beam="2">  1       -3 0.13212782E-02 0.13703899E+03</pdfrwt>
<totfact> 0.28648680E+03</totfact>
</mgrwt>
</event>
<event>
 6    2  0.1372363E+002  0.9476114E+02  0.7546771E-02  0.1291715E+00
          2   -1    0    0  502    0 -0.00000000000E+00  0.00000000000E+00  0.16004935225E+02  0.16004935225E+02  0.00000000000E+00 0. -1.
         21   -1    0    0  501  502  0.00000000000E+00 -0.00000000000E+00 -0.29496234447E+03  0.29496234447E+03  0.00000000000E+00 0.  1.
         24    2    1    2    0    0  0.22416380197E+02 -0.32971454509E+02 -0.16550779220E+03  0.19071576611E+03  0.85965477070E+02 0.  0.
        -13    1    3    3    0    0 -0.75872146256E+01 -0.18942762806E+02 -0.15445771738E+03  0.15579980920E+03  0.00000000000E+00 0.  1.
         14    1    3    3    0    0  0.30003594823E+02 -0.14028691703E+02 -0.11050074826E+02  0.34915956908E+02  0.00000000000E+00 0. -1.
          1    1    1    2  501    0 -0.22416380197E+02  0.32971454509E+02 -0.11344961704E+03  0.12025151358E+03  0.00000000000E+00 0. -1.
<mgrwt>
<rscale>  1 0.94761143E+02</rscale>
<asrwt>0</asrwt>
<pdfrwt beam="1">  1       21 0.45378819E-01 0.94761143E+02</pdfrwt>
<pdfrwt beam="2">  1        2 0.24622979E-02 0.94761143E+02</pdfrwt>
<totfact> 0.21788709E+05</totfact>
</mgrwt>
</event>
<event>
 6    2  0.1372363E+002  0.8816841E+02  0.7546771E-02  0.1307349E+00
          4   -1    0    0  502    0 -0.00000000000E+00  0.00000000000E+00  0.29164454225E+02  0.29164454225E+02  0.00000000000E+00 0. -1.
         21   -1    0    0  501  502  0.00000000000E+00 -0.00000000000E+00 -0.14687280143E+03  0.14687280143E+03  0.00000000000E+00 0.  1.
         24    2    1    2    0    0  0.36937847333E+02 -0.63058014198E+01 -0.57969213252E+02  0.10551823820E+03  0.79809154930E+02 0.  0.
        -11    1    3    3    0    0  0.11098904741E+02 -0.26876804165E+02 -0.65481112729E+02  0.71647221947E+02  0.00000000000E+00 0.  1.
         12    1    3    3    0    0  0.25838942592E+02  0.20571002746E+02  0.75118994767E+01  0.33871016253E+02  0.00000000000E+00 0. -1.
          3    1    1    2  501    0 -0.36937847333E+02  0.63058014198E+01 -0.59739133950E+02  0.70519017451E+02  0.00000000000E+00 0. -1.
<mgrwt>
<rscale>  1 0.88168412E+02</rscale>
<asrwt>0</asrwt>
<pdfrwt beam="1">  1       21 0.22595816E-01 0.88168412E+02</pdfrwt>
<pdfrwt beam="2">  1        4 0.44868390E-02 0.88168412E+02</pdfrwt>
<totfact> 0.19592725E+05</totfact>
</mgrwt>
</event>
<event>
 6    2  0.1372363E+002  0.9127740E+02  0.7546771E-02  0.1299787E+00
         21   -1    0    0  501  502  0.00000000000E+00  0.00000000000E+00  0.19711214629E+02  0.19711214629E+02  0.00000000000E+00 0.  1.
         -1   -1    0    0    0  501 -0.00000000000E+00 -0.00000000000E+00 -0.27626510850E+03  0.27626510850E+03  0.00000000000E+00 0.  1.
         24    2    1    2    0    0 -0.47524672008E+02  0.54663722590E+01 -0.11663584050E+03  0.14810632166E+03  0.77737298332E+02 0.  0.
        -11    1    3    3    0    0 -0.59441964278E+02  0.27971850467E+02 -0.87349669041E+02  0.10929655172E+03  0.00000000000E+00 0.  1.
         12    1    3    3    0    0  0.11917292270E+02 -0.22505478207E+02 -0.29286171462E+02  0.38809769946E+02  0.00000000000E+00 0. -1.
         -2    1    1    2    0  502  0.47524672008E+02 -0.54663722590E+01 -0.13991805336E+03  0.14787000146E+03  0.00000000000E+00 0.  1.
<mgrwt>
<rscale>  1 0.91277397E+02</rscale>
<asrwt>0</asrwt>
<pdfrwt beam="1">  1       21 0.30324947E-02 0.91277397E+02</pdfrwt>
<pdfrwt beam="2">  1       -1 0.42502322E-01 0.91277397E+02</pdfrwt>
<totfact> 0.29955001E+05</totfact>
</mgrwt>
</event>
<event>
 6    2  0.1372363E+002  0.1287590E+03  0.7546771E-02  0.1229309E+00
          2   -1    0    0  502    0 -0.00000000000E+00  0.00000000000E+00  0.10492138924E+04  0.10492138924E+04  0.00000000000E+00 0. -1.
         21   -1    0    0  501  502  0.00000000000E+00 -0.00000000000E+00 -0.54772056498E+02  0.54772056498E+02  0.00000000000E+00 0. -1.
         24    2    1    2    0    0 -0.88611567417E+02 -0.48241853682E+02  0.99479467421E+03  0.10030928827E+04  0.79997506704E+02 0.  0.
        -13    1    3    3    0    0 -0.11786644053E+02  0.18158085179E+02  0.87698907594E+02  0.90331276027E+02  0.00000000000E+00 0.  1.
         14    1    3    3    0    0 -0.76824923364E+02 -0.66399938861E+02  0.90709576662E+03  0.91276160663E+03  0.00000000000E+00 0. -1.
          1    1    1    2  501    0  0.88611567417E+02  0.48241853682E+02 -0.35283827470E+00  0.10089306627E+03  0.00000000000E+00 0. -1.
<mgrwt>
<rscale>  1 0.12875903E+03</rscale>
<asrwt>0</asrwt>
<pdfrwt beam="1">  1       21 0.84264710E-02 0.12875903E+03</pdfrwt>
<pdfrwt beam="2">  1        2 0.16141751E+00 0.12875903E+03</pdfrwt>
<totfact> 0.34511661E+04</totfact>
</mgrwt>
</event>
<event>
 6    2  0.1372363E+002  0.8860573E+02  0.7546771E-02  0.1306264E+00
          4   -1    0    0  502    0 -0.00000000000E+00  0.00000000000E+00  0.57173912873E+03  0.57173912873E+03  0.00000000000E+00 0. -1.
         21   -1    0    0  501  502  0.00000000000E+00 -0.00000000000E+00 -0.11567637764E+02  0.11567637764E+02  0.00000000000E+00 0.  1.
         24    2    1    2    0    0 -0.37386500404E+01 -0.34762544413E+02  0.52929937359E+03  0.53666451495E+03  0.81415985642E+02 0.  0.
        -13    1    3    3    0    0  0.24941890130E+02 -0.32551784696E+02  0.12964498566E+03  0.13597624380E+03  0.00000000000E+00 0.  1.
         14    1    3    3    0    0 -0.28680540170E+02 -0.22107597178E+01  0.39965438793E+03  0.40068827115E+03  0.00000000000E+00 0. -1.
          3    1    1    2  501    0  0.37386500404E+01  0.34762544413E+02  0.30872117369E+02  0.46642251543E+02  0.00000000000E+00 0. -1.
<mgrwt>
<rscale>  1 0.88605726E+02</rscale>
<asrwt>0</asrwt>
<pdfrwt beam="1">  1       21 0.17796370E-02 0.88605726E+02</pdfrwt>
<pdfrwt beam="2">  1        4 0.87959844E-01 0.88605726E+02</pdfrwt>
<totfact> 0.64538188E+04</totfact>
</mgrwt>
</event>
<event>
 6    2  0.1372363E+002  0.8269359E+02  0.7546771E-02  0.1321577E+00
         -1   -1    0    0    0  501 -0.00000000000E+00  0.00000000000E+00  0.99384537051E+01  0.99384537051E+01  0.00000000000E+00 0.  1.
         21   -1    0    0  501  502  0.00000000000E+00 -0.00000000000E+00 -0.51798365941E+03  0.51798365941E+03  0.00000000000E+00 0. -1.
         24    2    1    2    0    0  0.80900785816E+01  0.19022245045E+02 -0.49821775282E+03  0.50503381899E+03  0.80068307835E+02 0.  0.
        -13    1    3    3    0    0 -0.33767989632E+02 -0.38313404133E+01 -0.24729180649E+03  0.24961609293E+03  0.00000000000E+00 0.  1.
         14    1    3    3    0    0  0.41858068214E+02  0.22853585458E+02 -0.25092594633E+03  0.25541772605E+03  0.00000000000E+00 0. -1.
         -2    1    1    2    0  502 -0.80900785816E+01 -0.19022245045E+02 -0.98274528930E+01  0.22888294134E+02  0.00000000000E+00 0.  1.
<mgrwt>
<rscale>  1 0.82693586E+02</rscale>
<asrwt>0</asrwt>
<pdfrwt beam="1">  1       21 0.79689810E-01 0.82693586E+02</pdfrwt>
<pdfrwt beam="2">  1       -1 0.15289926E-02 0.82693586E+02</pdfrwt>
<totfact> 0.11751768E+05</totfact>
</mgrwt>
</event>
<event>
 6    2  0.1372363E+002  0.8764134E+02  0.7546771E-02  0.1308666E+00
         21   -1    0    0  501  502  0.00000000000E+00  0.00000000000E+00  0.25447862240E+03  0.25447862240E+03  0.00000000000E+00 0. -1.
         -1   -1    0    0    0  501 -0.00000000000E+00 -0.00000000000E+00 -0.15001914865E+02  0.15001914865E+02  0.00000000000E+00 0.  1.
         24    2    1    2    0    0  0.34725019390E+02  0.86361731141E+01  0.16389407642E+03  0.18585551359E+03  0.80003707352E+02 0.  0.
        -13    1    3    3    0    0  0.20641278023E+02 -0.32025158594E+02  0.11276764768E+03  0.11903031339E+03  0.00000000000E+00 0.  1.
         14    1    3    3    0    0  0.14083741367E+02  0.40661331708E+02  0.51126428738E+02  0.66825200207E+02  0.00000000000E+00 0. -1.
         -2    1    1    2    0  502 -0.34725019390E+02 -0.86361731141E+01  0.75582631115E+02  0.83625023671E+02  0.00000000000E+00 0.  1.
<mgrwt>
<rscale>  1 0.87641335E+02</rscale>
<asrwt>0</asrwt>
<pdfrwt beam="1">  1       21 0.39150554E-01 0.87641335E+02</pdfrwt>
<pdfrwt beam="2">  1       -1 0.23079871E-02 0.87641335E+02</pdfrwt>
<totfact> 0.28781600E+05</totfact>
</mgrwt>
</event>
<event>
 6    2  0.1372363E+002  0.8249461E+02  0.7546771E-02  0.1322118E+00
          2   -1    0    0  502    0 -0.00000000000E+00  0.00000000000E+00  0.81177234237E+03  0.81177234237E+03  0.00000000000E+00 0. -1.
         21   -1    0    0  501  502  0.00000000000E+00 -0.00000000000E+00 -0.33488745700E+01  0.33488745700E+01  0.00000000000E+00 0.  1.
         24    2    1    2    0    0  0.59384263337E+01  0.19661867786E+02  0.59098796922E+03  0.59671780581E+03  0.79896846315E+02 0.  0.
        -11    1    3    3    0    0 -0.20962636810E+02  0.35993938918E+02  0.19076970651E+03  0.19526412036E+03  0.00000000000E+00 0.  1.
         12    1    3    3    0    0  0.26901063144E+02 -0.16332071132E+02  0.40021826271E+03  0.40145368544E+03  0.00000000000E+00 0. -1.
          1    1    1    2  501    0 -0.59384263337E+01 -0.19661867786E+02  0.21743549858E+03  0.21840341114E+03  0.00000000000E+00 0. -1.
<mgrwt>
<rscale>  1 0.82494606E+02</rscale>
<asrwt>0</asrwt>
<pdfrwt beam="1">  1       21 0.51521212E-03 0.82494606E+02</pdfrwt>
<pdfrwt beam="2">  1        2 0.12488790E+00 0.82494606E+02</pdfrwt>
<totfact> 0.42963559E+06</totfact>
</mgrwt>
</event>
<event>
 6    2  0.1372363E+002  0.1313862E+03  0.7546771E-02  0.1225413E+00
         21   -1    0    0  501  502  0.00000000000E+00  0.00000000000E+00  0.26093233134E+03  0.26093233134E+03  0.00000000000E+00 0. -1.
          2   -1    0    0  502    0 -0.00000000000E+00 -0.00000000000E+00 -0.55929686257E+02  0.55929686257E+02  0.00000000000E+00 0. -1.
         24    2    1    2    0    0  0.91611766303E+02 -0.49345140097E+02  0.78458950361E+02  0.15302989239E+03  0.80216472724E+02 0.  0.
        -11    1    3    3    0    0  0.36370629572E+02 -0.59422688650E+02  0.21181201113E+02  0.72818417330E+02  0.00000000000E+00 0.  1.
         12    1    3    3    0    0  0.55241136732E+02  0.10077548552E+02  0.57277749248E+02  0.80211475059E+02  0.00000000000E+00 0. -1.
          1    1    1    2  501    0 -0.91611766303E+02  0.49345140097E+02  0.12654369472E+03  0.16383212521E+03  0.00000000000E+00 0. -1.
<mgrwt>
<rscale>  1 0.13138623E+03</rscale>
<asrwt>0</asrwt>
<pdfrwt beam="1">  1       21 0.40143435E-01 0.13138623E+03</pdfrwt>
<pdfrwt beam="2">  1        2 0.86045672E-02 0.13138623E+03</pdfrwt>
<totfact> 0.55592876E+04</totfact>
</mgrwt>
</event>
<event>
 6    2  0.1372363E+002  0.1327436E+03  0.7546771E-02  0.1223441E+00
          2   -1    0    0  502    0 -0.00000000000E+00  0.00000000000E+00  0.17475430690E+04  0.17475430690E+04  0.00000000000E+00 0. -1.
         21   -1    0    0  501  502  0.00000000000E+00 -0.00000000000E+00 -0.16058366290E+02  0.16058366290E+02  0.00000000000E+00 0. -1.
         24    2    1    2    0    0  0.65528063138E+02  0.74498518150E+02  0.15588112101E+04  0.15644530200E+04  0.88186772005E+02 0.  0.
        -11    1    3    3    0    0  0.20329717589E+02 -0.18461784235E+02  0.23152192686E+03  0.23314488523E+03  0.00000000000E+00 0.  1.
         12    1    3    3    0    0  0.45198345549E+02  0.92960302385E+02  0.13272892832E+04  0.13313081347E+04  0.00000000000E+00 0. -1.
          1    1    1    2  501    0 -0.65528063138E+02 -0.74498518150E+02  0.17267349258E+03  0.19914841527E+03  0.00000000000E+00 0. -1.
<mgrwt>
<rscale>  1 0.13274360E+03</rscale>
<asrwt>0</asrwt>
<pdfrwt beam="1">  1       21 0.24705193E-02 0.13274360E+03</pdfrwt>
<pdfrwt beam="2">  1        2 0.26885263E+00 0.13274360E+03</pdfrwt>
<totfact> 0.11408226E+05</totfact>
</mgrwt>
</event>
<event>
 6    2  0.1372363E+002  0.8668056E+02  0.7546771E-02  0.1311095E+00
         21   -1    0    0  501  502  0.00000000000E+00  0.00000000000E+00  0.11084099056E+02  0.11084099056E+02  0.00000000000E+00 0.  1.
          4   -1    0    0  502    0 -0.00000000000E+00 -0.00000000000E+00 -0.37018382044E+03  0.37018382044E+03  0.00000000000E+00 0. -1.
         24    2    1    2    0    0  0.31996550852E+02  0.22865510656E+01 -0.18580572131E+03  0.20502996092E+03  0.80526462856E+02 0.  0.
        -11    1    3    3    0    0  0.39134506127E+02  0.34899365982E+02 -0.99063233231E+02  0.11208478708E+03  0.00000000000E+00 0.  1.
         12    1    3    3    0    0 -0.71379552747E+01 -0.32612814916E+02 -0.86742488078E+02  0.92945173841E+02  0.00000000000E+00 0. -1.
          3    1    1    2  501    0 -0.31996550852E+02 -0.22865510656E+01 -0.17329400008E+03  0.17623795858E+03  0.00000000000E+00 0. -1.
<mgrwt>
<rscale>  1 0.86680556E+02</rscale>
<asrwt>0</asrwt>
<pdfrwt beam="1">  1       21 0.17052464E-02 0.86680556E+02</pdfrwt>
<pdfrwt beam="2">  1        4 0.56951345E-01 0.86680556E+02</pdfrwt>
<totfact> 0.17451268E+05</totfact>
</mgrwt>
</event>
<event>
 6    2  0.1372363E+002  0.9455869E+02  0.7546771E-02  0.1292173E+00
          2   -1    0    0  502    0 -0.00000000000E+00  0.00000000000E+00  0.10997204890E+04  0.10997204890E+04  0.00000000000E+00 0. -1.
         21   -1    0    0  501  502  0.00000000000E+00 -0.00000000000E+00 -0.38910119205E+01  0.38910119205E+01  0.00000000000E+00 0.  1.
         24    2    1    2    0    0  0.19690854628E+02 -0.29023832870E+02  0.86109044678E+03  0.86626676224E+03  0.87813627683E+02 0.  0.
        -13    1    3    3    0    0 -0.22961741400E+02 -0.39895186297E+02  0.30712346574E+03  0.31055384503E+03  0.00000000000E+00 0.  1.
         14    1    3    3    0    0  0.42652596029E+02  0.10871353427E+02  0.55396698104E+03  0.55571291721E+03  0.00000000000E+00 0. -1.
          1    1    1    2  501    0 -0.19690854628E+02  0.29023832870E+02  0.23473903033E+03  0.23734473871E+03  0.00000000000E+00 0. -1.
<mgrwt>
<rscale>  1 0.94558690E+02</rscale>
<asrwt>0</asrwt>
<pdfrwt beam="1">  1       21 0.59861809E-03 0.94558690E+02</pdfrwt>
<pdfrwt beam="2">  1        2 0.16918752E+00 0.94558690E+02</pdfrwt>
<totfact> 0.23232749E+06</totfact>
</mgrwt>
</event>
<event>
 6    2  0.1372363E+002  0.8723061E+02  0.7546771E-02  0.1309700E+00
         21   -1    0    0  501  502  0.00000000000E+00  0.00000000000E+00  0.23888716266E+03  0.23888716266E+03  0.00000000000E+00 0. -1.
          4   -1    0    0  502    0 -0.00000000000E+00 -0.00000000000E+00 -0.31466238583E+02  0.31466238583E+02  0.00000000000E+00 0. -1.
         24    2    1    2    0    0 -0.44936212377E+01 -0.35058212087E+02  0.34415240845E+02  0.93774134915E+02  0.79749035793E+02 0.  0.
        -11    1    3    3    0    0  0.17841575029E+01  0.25353087165E+02  0.36063697233E+01  0.25670374937E+02  0.00000000000E+00 0.  1.
         12    1    3    3    0    0 -0.62777787406E+01 -0.60411299253E+02  0.30808871122E+02  0.68103759978E+02  0.00000000000E+00 0. -1.
          3    1    1    2  501    0  0.44936212377E+01  0.35058212087E+02  0.17300568324E+03  0.17657926633E+03  0.00000000000E+00 0. -1.
<mgrwt>
<rscale>  1 0.87230611E+02</rscale>
<asrwt>0</asrwt>
<pdfrwt beam="1">  1       21 0.36751870E-01 0.87230611E+02</pdfrwt>
<pdfrwt beam="2">  1        4 0.48409599E-02 0.87230611E+02</pdfrwt>
<totfact> 0.68799478E+04</totfact>
</mgrwt>
</event>
<event>
 6    2  0.1372363E+002  0.8342809E+02  0.7546771E-02  0.1319595E+00
         21   -1    0    0  501  502  0.00000000000E+00  0.00000000000E+00  0.84504427669E+01  0.84504427669E+01  0.00000000000E+00 0.  1.
          2   -1    0    0  502    0 -0.00000000000E+00 -0.00000000000E+00 -0.33265389118E+03  0.33265389118E+03  0.00000000000E+00 0. -1.
         24    2    1    2    0    0  0.19554141805E+02  0.11315861399E+02 -0.25246275572E+03  0.26589037135E+03  0.80310854631E+02 0.  0.
        -13    1    3    3    0    0  0.35579077487E+02 -0.54000337427E+01 -0.47342474269E+02  0.59467142097E+02  0.00000000000E+00 0.  1.
         14    1    3    3    0    0 -0.16024935682E+02  0.16715895142E+02 -0.20512028145E+03  0.20642322926E+03  0.00000000000E+00 0. -1.
          1    1    1    2  501    0 -0.19554141805E+02 -0.11315861399E+02 -0.71740692692E+02  0.75213962592E+02  0.00000000000E+00 0. -1.
<mgrwt>
<rscale>  1 0.83428092E+02</rscale>
<asrwt>0</asrwt>
<pdfrwt beam="1">  1       21 0.13000683E-02 0.83428092E+02</pdfrwt>
<pdfrwt beam="2">  1        2 0.51177515E-01 0.83428092E+02</pdfrwt>
<totfact> 0.27303378E+06</totfact>
</mgrwt>
</event>
<event>
 6    2  0.1372363E+002  0.8785298E+02  0.7546771E-02  0.1308136E+00
          2   -1    0    0  502    0 -0.00000000000E+00  0.00000000000E+00  0.26428248060E+04  0.26428248060E+04  0.00000000000E+00 0. -1.
         21   -1    0    0  501  502  0.00000000000E+00 -0.00000000000E+00 -0.15019650460E+01  0.15019650460E+01  0.00000000000E+00 0.  1.
         24    2    1    2    0    0 -0.13305111175E+02 -0.31962541201E+02  0.15811622993E+04  0.15836010741E+04  0.80743515073E+02 0.  0.
        -13    1    3    3    0    0  0.21770048500E+01  0.21762104380E+02  0.18001816951E+03  0.18134185918E+03  0.00000000000E+00 0.  1.
         14    1    3    3    0    0 -0.15482116025E+02 -0.53724645582E+02  0.14011441298E+04  0.14022592150E+04  0.00000000000E+00 0. -1.
          1    1    1    2  501    0  0.13305111175E+02  0.31962541201E+02  0.10601605417E+04  0.10607256969E+04  0.00000000000E+00 0. -1.
<mgrwt>
<rscale>  1 0.87852975E+02</rscale>
<asrwt>0</asrwt>
<pdfrwt beam="1">  1       21 0.23107366E-03 0.87852975E+02</pdfrwt>
<pdfrwt beam="2">  1        2 0.40658471E+00 0.87852975E+02</pdfrwt>
<totfact> 0.15728780E+06</totfact>
</mgrwt>
</event>
<event>
 6    2  0.1740983E+002  0.8552492E+02  0.7546771E-02  0.1314065E+00
         21   -1    0    0  501  502  0.00000000000E+00  0.00000000000E+00  0.15946452471E+03  0.15946452471E+03  0.00000000000E+00 0.  1.
         -1   -1    0    0    0  501 -0.00000000000E+00 -0.00000000000E+00 -0.37082568806E+02  0.37082568806E+02  0.00000000000E+00 0.  1.
         24    2    1    2    0    0  0.10188023779E+02  0.18803705647E+02  0.14721074144E+02  0.86782615493E+02  0.82807832680E+02 0.  0.
        -13    1    3    3    0    0  0.27211417669E+00  0.21601339899E+02 -0.32182445323E+02  0.38760827114E+02  0.00000000000E+00 0.  1.
         14    1    3    3    0    0  0.99159096019E+01 -0.27976342523E+01  0.46903519467E+02  0.48021788378E+02  0.00000000000E+00 0. -1.
         -2    1    1    2    0  502 -0.10188023779E+02 -0.18803705647E+02  0.10766088176E+03  0.10976447803E+03  0.00000000000E+00 0.  1.
<mgrwt>
<rscale>  1 0.85524922E+02</rscale>
<asrwt>0</asrwt>
<pdfrwt beam="1">  1       21 0.24533003E-01 0.85524922E+02</pdfrwt>
<pdfrwt beam="2">  1       -1 0.57050107E-02 0.85524922E+02</pdfrwt>
<totfact> 0.18979363E+05</totfact>
</mgrwt>
</event>
<event>
 6    2  0.1372363E+002  0.8532776E+02  0.7546771E-02  0.1314578E+00
         21   -1    0    0  501  502  0.00000000000E+00  0.00000000000E+00  0.29663167203E+01  0.29663167203E+01  0.00000000000E+00 0.  1.
          2   -1    0    0  502    0 -0.00000000000E+00 -0.00000000000E+00 -0.11559441589E+04  0.11559441589E+04  0.00000000000E+00 0. -1.
         24    2    1    2    0    0  0.24452938106E+02 -0.10948854735E+02 -0.99733370891E+03  0.10009771991E+04  0.81012361076E+02 0.  0.
        -11    1    3    3    0    0  0.43983949551E+02  0.63862652414E+01 -0.31239263689E+03  0.31553847908E+03  0.00000000000E+00 0.  1.
         12    1    3    3    0    0 -0.19531011446E+02 -0.17335119977E+02 -0.68494107202E+03  0.68543872004E+03  0.00000000000E+00 0. -1.
          1    1    1    2  501    0 -0.24452938106E+02  0.10948854735E+02 -0.15564413331E+03  0.15793327653E+03  0.00000000000E+00 0. -1.
<mgrwt>
<rscale>  1 0.85327758E+02</rscale>
<asrwt>0</asrwt>
<pdfrwt beam="1">  1       21 0.45635662E-03 0.85327758E+02</pdfrwt>
<pdfrwt beam="2">  1        2 0.17783748E+00 0.85327758E+02</pdfrwt>
<totfact> 0.32452684E+06</totfact>
</mgrwt>
</event>
<event>
 6    2  0.1372363E+002  0.1136763E+03  0.7546771E-02  0.1253909E+00
         21   -1    0    0  501  502  0.00000000000E+00  0.00000000000E+00  0.11996862734E+02  0.11996862734E+02  0.00000000000E+00 0.  1.
         -1   -1    0    0    0  501 -0.00000000000E+00 -0.00000000000E+00 -0.80395139339E+03  0.80395139339E+03  0.00000000000E+00 0.  1.
         24    2    1    2    0    0  0.78143450022E+02 -0.99757589571E+01 -0.38467254567E+03  0.40111753180E+03  0.81953598930E+02 0.  0.
        -13    1    3    3    0    0  0.68313774570E+02 -0.14633483968E+02 -0.38390826041E+03  0.39021335582E+03  0.00000000000E+00 0.  1.
         14    1    3    3    0    0  0.98296754523E+01  0.46577250108E+01 -0.76428525511E+00  0.10904175976E+02  0.00000000000E+00 0. -1.
         -2    1    1    2    0  502 -0.78143450022E+02  0.99757589571E+01 -0.40728198499E+03  0.41483072432E+03  0.00000000000E+00 0.  1.
<mgrwt>
<rscale>  1 0.11367633E+03</rscale>
<asrwt>0</asrwt>
<pdfrwt beam="1">  1       21 0.18456718E-02 0.11367633E+03</pdfrwt>
<pdfrwt beam="2">  1       -1 0.12368479E+00 0.11367633E+03</pdfrwt>
<totfact> 0.79710629E+04</totfact>
</mgrwt>
</event>
<event>
 6    2  0.1372363E+002  0.8388327E+02  0.7546771E-02  0.1318379E+00
         21   -1    0    0  501  502  0.00000000000E+00  0.00000000000E+00  0.35705942079E+02  0.35705942079E+02  0.00000000000E+00 0. -1.
          2   -1    0    0  502    0 -0.00000000000E+00 -0.00000000000E+00 -0.86061875382E+02  0.86061875382E+02  0.00000000000E+00 0. -1.
         24    2    1    2    0    0 -0.19602368300E+02  0.16607235623E+02 -0.30347264504E+02  0.89204034740E+02  0.79852052153E+02 0.  0.
        -13    1    3    3    0    0  0.25464971016E+02 -0.48879125804E+00  0.89681354205E+01  0.27002428014E+02  0.00000000000E+00 0.  1.
         14    1    3    3    0    0 -0.45067339316E+02  0.17096026881E+02 -0.39315399925E+02  0.62201606726E+02  0.00000000000E+00 0. -1.
          1    1    1    2  501    0  0.19602368300E+02 -0.16607235623E+02 -0.20008668799E+02  0.32563782721E+02  0.00000000000E+00 0. -1.
<mgrwt>
<rscale>  1 0.83883272E+02</rscale>
<asrwt>0</asrwt>
<pdfrwt beam="1">  1       21 0.54932218E-02 0.83883272E+02</pdfrwt>
<pdfrwt beam="2">  1        2 0.13240289E-01 0.83883272E+02</pdfrwt>
<totfact> 0.11598813E+06</totfact>
</mgrwt>
</event>
<event>
 6    2  0.1372363E+002  0.9456977E+02  0.7546771E-02  0.1292148E+00
          2   -1    0    0  502    0 -0.00000000000E+00  0.00000000000E+00  0.21381840295E+02  0.21381840295E+02  0.00000000000E+00 0. -1.
         21   -1    0    0  501  502  0.00000000000E+00 -0.00000000000E+00 -0.27350779239E+03  0.27350779239E+03  0.00000000000E+00 0. -1.
         24    2    1    2    0    0  0.13684763701E+01 -0.44997475028E+02 -0.22034997036E+03  0.23978647033E+03  0.83167279792E+02 0.  0.
        -11    1    3    3    0    0 -0.28347460833E+02  0.44820620885E+00 -0.27723081470E+02  0.39652851986E+02  0.00000000000E+00 0.  1.
         12    1    3    3    0    0  0.29715937203E+02 -0.45445681237E+02 -0.19262688889E+03  0.20013361834E+03  0.00000000000E+00 0. -1.
          1    1    1    2  501    0 -0.13684763701E+01  0.44997475028E+02 -0.31775981734E+02  0.55103162356E+02  0.00000000000E+00 0. -1.
<mgrwt>
<rscale>  1 0.94569773E+02</rscale>
<asrwt>0</asrwt>
<pdfrwt beam="1">  1       21 0.42078125E-01 0.94569773E+02</pdfrwt>
<pdfrwt beam="2">  1        2 0.32895136E-02 0.94569773E+02</pdfrwt>
<totfact> 0.17232264E+05</totfact>
</mgrwt>
</event>
<event>
 6    2  0.1372363E+002  0.8428178E+02  0.7546771E-02  0.1317322E+00
         21   -1    0    0  501  502  0.00000000000E+00  0.00000000000E+00  0.70588244717E+01  0.70588244717E+01  0.00000000000E+00 0. -1.
          2   -1    0    0  502    0 -0.00000000000E+00 -0.00000000000E+00 -0.64805066695E+03  0.64805066695E+03  0.00000000000E+00 0. -1.
         24    2    1    2    0    0 -0.25727641268E+02  0.13310336744E+02 -0.59369238617E+03  0.59964495179E+03  0.79147597700E+02 0.  0.
        -11    1    3    3    0    0  0.15618652976E+02  0.16889542734E+02 -0.43525121428E+03  0.43585871393E+03  0.00000000000E+00 0.  1.
         12    1    3    3    0    0 -0.41346294244E+02 -0.35792059903E+01 -0.15844117189E+03  0.16378623786E+03  0.00000000000E+00 0. -1.
          1    1    1    2  501    0  0.25727641268E+02 -0.13310336744E+02 -0.47299456305E+02  0.55464539629E+02  0.00000000000E+00 0. -1.
<mgrwt>
<rscale>  1 0.84281782E+02</rscale>
<asrwt>0</asrwt>
<pdfrwt beam="1">  1       21 0.10859728E-02 0.84281782E+02</pdfrwt>
<pdfrwt beam="2">  1        2 0.99700119E-01 0.84281782E+02</pdfrwt>
<totfact> 0.17717458E+06</totfact>
</mgrwt>
</event>
<event>
 6    2  0.1372363E+002  0.8566609E+02  0.7546771E-02  0.1313700E+00
          2   -1    0    0  502    0 -0.00000000000E+00  0.00000000000E+00  0.49839920021E+03  0.49839920021E+03  0.00000000000E+00 0. -1.
         21   -1    0    0  501  502  0.00000000000E+00 -0.00000000000E+00 -0.23811070981E+02  0.23811070981E+02  0.00000000000E+00 0. -1.
         24    2    1    2    0    0  0.10642919923E+02 -0.28022678430E+02  0.48342699050E+03  0.49095858772E+03  0.80250467031E+02 0.  0.
        -11    1    3    3    0    0  0.15693764861E+01  0.22233397898E+02  0.52767140748E+02  0.57281393727E+02  0.00000000000E+00 0.  1.
         12    1    3    3    0    0  0.90735434366E+01 -0.50256076328E+02  0.43065984976E+03  0.43367719399E+03  0.00000000000E+00 0. -1.
          1    1    1    2  501    0 -0.10642919923E+02  0.28022678430E+02 -0.88388612780E+01  0.31251683468E+02  0.00000000000E+00 0. -1.
<mgrwt>
<rscale>  1 0.85666094E+02</rscale>
<asrwt>0</asrwt>
<pdfrwt beam="1">  1       21 0.36632421E-02 0.85666094E+02</pdfrwt>
<pdfrwt beam="2">  1        2 0.76676792E-01 0.85666094E+02</pdfrwt>
<totfact> 0.33956776E+05</totfact>
</mgrwt>
</event>
<event>
 6    2  0.1372363E+002  0.9342298E+02  0.7546771E-02  0.1294768E+00
          2   -1    0    0  502    0 -0.00000000000E+00  0.00000000000E+00  0.13363676930E+02  0.13363676930E+02  0.00000000000E+00 0. -1.
         21   -1    0    0  501  502  0.00000000000E+00 -0.00000000000E+00 -0.49161950222E+03  0.49161950222E+03  0.00000000000E+00 0. -1.
         24    2    1    2    0    0 -0.35746490613E+02 -0.19066657952E+02 -0.16915727690E+03  0.19324087908E+03  0.84181375508E+02 0.  0.
        -11    1    3    3    0    0 -0.15289633140E+02  0.30803301094E+02 -0.98766614291E+02  0.10458231370E+03  0.00000000000E+00 0.  1.
         12    1    3    3    0    0 -0.20456857473E+02 -0.49869959046E+02 -0.70390662605E+02  0.88658565378E+02  0.00000000000E+00 0. -1.
          1    1    1    2  501    0  0.35746490613E+02  0.19066657952E+02 -0.30909854839E+03  0.31174230007E+03  0.00000000000E+00 0. -1.
<mgrwt>
<rscale>  1 0.93422979E+02</rscale>
<asrwt>0</asrwt>
<pdfrwt beam="1">  1       21 0.75633768E-01 0.93422979E+02</pdfrwt>
<pdfrwt beam="2">  1        2 0.20559503E-02 0.93422979E+02</pdfrwt>
<totfact> 0.94993412E+04</totfact>
</mgrwt>
</event>
<event>
 6    2  0.1372363E+002  0.8400081E+02  0.7546771E-02  0.1318066E+00
          4   -1    0    0  502    0 -0.00000000000E+00  0.00000000000E+00  0.12843912399E+02  0.12843912399E+02  0.00000000000E+00 0. -1.
         21   -1    0    0  501  502  0.00000000000E+00 -0.00000000000E+00 -0.39556041572E+03  0.39556041572E+03  0.00000000000E+00 0.  1.
         24    2    1    2    0    0  0.27690606027E+02 -0.41744767285E+00 -0.13401014481E+03  0.15816085330E+03  0.79304430398E+02 0.  0.
        -11    1    3    3    0    0 -0.15487072161E+02  0.17901110161E+02 -0.92651860030E+02  0.95627748672E+02  0.00000000000E+00 0.  1.
         12    1    3    3    0    0  0.43177678187E+02 -0.18318557834E+02 -0.41358284781E+02  0.62533104631E+02  0.00000000000E+00 0. -1.
          3    1    1    2  501    0 -0.27690606027E+02  0.41744767285E+00 -0.24870635851E+03  0.25024347482E+03  0.00000000000E+00 0. -1.
<mgrwt>
<rscale>  1 0.84000813E+02</rscale>
<asrwt>0</asrwt>
<pdfrwt beam="1">  1       21 0.60855450E-01 0.84000813E+02</pdfrwt>
<pdfrwt beam="2">  1        4 0.19759865E-02 0.84000813E+02</pdfrwt>
<totfact> 0.99219746E+04</totfact>
</mgrwt>
</event>
<event>
 6    2  0.1372363E+002  0.8982499E+02  0.7546771E-02  0.1303276E+00
         21   -1    0    0  501  502  0.00000000000E+00  0.00000000000E+00  0.87756510412E+01  0.87756510412E+01  0.00000000000E+00 0.  1.
          2   -1    0    0  502    0 -0.00000000000E+00 -0.00000000000E+00 -0.70607941822E+03  0.70607941822E+03  0.00000000000E+00 0. -1.
         24    2    1    2    0    0 -0.35742101100E+02 -0.19357806248E+02 -0.24889453734E+03  0.26460729319E+03  0.80101850397E+02 0.  0.
        -13    1    3    3    0    0 -0.50584201366E+02  0.12073673108E+02 -0.11392255455E+03  0.12523131975E+03  0.00000000000E+00 0.  1.
         14    1    3    3    0    0  0.14842100266E+02 -0.31431479356E+02 -0.13497198279E+03  0.13937597344E+03  0.00000000000E+00 0. -1.
          1    1    1    2  501    0  0.35742101100E+02  0.19357806248E+02 -0.44840922984E+03  0.45024777608E+03  0.00000000000E+00 0. -1.
<mgrwt>
<rscale>  1 0.89824990E+02</rscale>
<asrwt>0</asrwt>
<pdfrwt beam="1">  1       21 0.13501000E-02 0.89824990E+02</pdfrwt>
<pdfrwt beam="2">  1        2 0.10862762E+00 0.89824990E+02</pdfrwt>
<totfact> 0.11474680E+06</totfact>
</mgrwt>
</event>
<event>
 6    2  0.1372363E+002  0.9469920E+02  0.7546771E-02  0.1291855E+00
         21   -1    0    0  501  502  0.00000000000E+00  0.00000000000E+00  0.28046825892E+02  0.28046825892E+02  0.00000000000E+00 0. -1.
          2   -1    0    0  502    0 -0.00000000000E+00 -0.00000000000E+00 -0.37724877279E+03  0.37724877279E+03  0.00000000000E+00 0. -1.
         24    2    1    2    0    0  0.28252810054E+02 -0.42364788542E+02 -0.34076634128E+03  0.35368013563E+03  0.79843236464E+02 0.  0.
        -13    1    3    3    0    0 -0.20813265133E+01  0.16940076499E+01  0.39845955741E+01  0.48040174711E+01  0.00000000000E+00 0.  1.
         14    1    3    3    0    0  0.30334136567E+02 -0.44058796192E+02 -0.34475093685E+03  0.34887611816E+03  0.00000000000E+00 0. -1.
          1    1    1    2  501    0 -0.28252810054E+02  0.42364788542E+02 -0.84356056266E+01  0.51615463055E+02  0.00000000000E+00 0. -1.
<mgrwt>
<rscale>  1 0.94699203E+02</rscale>
<asrwt>0</asrwt>
<pdfrwt beam="1">  1       21 0.43148962E-02 0.94699203E+02</pdfrwt>
<pdfrwt beam="2">  1        2 0.58038274E-01 0.94699203E+02</pdfrwt>
<totfact> 0.35105576E+05</totfact>
</mgrwt>
</event>
<event>
 6    2  0.1372363E+002  0.1129160E+03  0.7546771E-02  0.1255263E+00
         21   -1    0    0  501  502  0.00000000000E+00  0.00000000000E+00  0.13162812519E+02  0.13162812519E+02  0.00000000000E+00 0. -1.
          2   -1    0    0  502    0 -0.00000000000E+00 -0.00000000000E+00 -0.82020601908E+03  0.82020601908E+03  0.00000000000E+00 0. -1.
         24    2    1    2    0    0  0.61281194949E+02  0.50220868608E+02 -0.62060460403E+03  0.63079323333E+03  0.80451899792E+02 0.  0.
        -11    1    3    3    0    0  0.64076907746E+02  0.56121149844E+02 -0.35381466782E+03  0.36392341602E+03  0.00000000000E+00 0.  1.
         12    1    3    3    0    0 -0.27957127972E+01 -0.59002812365E+01 -0.26678993621E+03  0.26686981731E+03  0.00000000000E+00 0. -1.
          1    1    1    2  501    0 -0.61281194949E+02 -0.50220868608E+02 -0.18643860253E+03  0.20257559827E+03  0.00000000000E+00 0. -1.
<mgrwt>
<rscale>  1 0.11291602E+03</rscale>
<asrwt>0</asrwt>
<pdfrwt beam="1">  1       21 0.20250485E-02 0.11291602E+03</pdfrwt>
<pdfrwt beam="2">  1        2 0.12618551E+00 0.11291602E+03</pdfrwt>
<totfact> 0.51079963E+05</totfact>
</mgrwt>
</event>
<event>
 6    2  0.1372363E+002  0.9076183E+02  0.7546771E-02  0.1301017E+00
          2   -1    0    0  502    0 -0.00000000000E+00  0.00000000000E+00  0.11230862963E+04  0.11230862963E+04  0.00000000000E+00 0. -1.
         21   -1    0    0  501  502  0.00000000000E+00 -0.00000000000E+00 -0.39476437422E+01  0.39476437422E+01  0.00000000000E+00 0. -1.
         24    2    1    2    0    0  0.36434925727E+02  0.14936788122E+02  0.66029829705E+03  0.66650697742E+03  0.81774680805E+02 0.  0.
        -13    1    3    3    0    0  0.27638770356E+02 -0.31261944727E+02  0.24174611937E+03  0.24532100817E+03  0.00000000000E+00 0.  1.
         14    1    3    3    0    0  0.87961553710E+01  0.46198732849E+02  0.41855217767E+03  0.42118596926E+03  0.00000000000E+00 0. -1.
          1    1    1    2  501    0 -0.36434925727E+02 -0.14936788122E+02  0.45884035549E+03  0.46052696260E+03  0.00000000000E+00 0. -1.
<mgrwt>
<rscale>  1 0.90761830E+02</rscale>
<asrwt>0</asrwt>
<pdfrwt beam="1">  1       21 0.60733070E-03 0.90761830E+02</pdfrwt>
<pdfrwt beam="2">  1        2 0.17278225E+00 0.90761830E+02</pdfrwt>
<totfact> 0.21964353E+06</totfact>
</mgrwt>
</event>
<event>
 6    2  0.1372363E+002  0.8666818E+02  0.7546771E-02  0.1311127E+00
         21   -1    0    0  501  502  0.00000000000E+00  0.00000000000E+00  0.15633286408E+01  0.15633286408E+01  0.00000000000E+00 0.  1.
          2   -1    0    0  502    0 -0.00000000000E+00 -0.00000000000E+00 -0.18965520108E+04  0.18965520108E+04  0.00000000000E+00 0. -1.
         24    2    1    2    0    0  0.16427531604E+02 -0.14556086871E+02 -0.15643440701E+04  0.15667430368E+04  0.83842890643E+02 0.  0.
        -13    1    3    3    0    0  0.34311644173E+02  0.49680255547E+01 -0.28165669790E+03  0.28378242665E+03  0.00000000000E+00 0.  1.
         14    1    3    3    0    0 -0.17884112569E+02 -0.19524112426E+02 -0.12826873722E+04  0.12829606102E+04  0.00000000000E+00 0. -1.
          1    1    1    2  501    0 -0.16427531604E+02  0.14556086871E+02 -0.33064461205E+03  0.33137230261E+03  0.00000000000E+00 0. -1.
<mgrwt>
<rscale>  1 0.86668182E+02</rscale>
<asrwt>0</asrwt>
<pdfrwt beam="1">  1       21 0.24051165E-03 0.86668182E+02</pdfrwt>
<pdfrwt beam="2">  1        2 0.29177778E+00 0.86668182E+02</pdfrwt>
<totfact> 0.35728228E+06</totfact>
</mgrwt>
</event>
<event>
 6    2  0.1372363E+002  0.8613433E+02  0.7546771E-02  0.1312493E+00
         21   -1    0    0  501  502  0.00000000000E+00  0.00000000000E+00  0.27650827489E+02  0.27650827489E+02  0.00000000000E+00 0.  1.
          2   -1    0    0  502    0 -0.00000000000E+00 -0.00000000000E+00 -0.13788637117E+03  0.13788637117E+03  0.00000000000E+00 0. -1.
         24    2    1    2    0    0  0.16012802408E+02  0.29895213740E+02 -0.95368821941E+02  0.12850811467E+03  0.79176951774E+02 0.  0.
        -13    1    3    3    0    0  0.41726926470E+02 -0.56803449546E+01 -0.43213830281E+02  0.60339355640E+02  0.00000000000E+00 0.  1.
         14    1    3    3    0    0 -0.25714124062E+02  0.35575558695E+02 -0.52154991660E+02  0.68168759031E+02  0.00000000000E+00 0. -1.
          1    1    1    2  501    0 -0.16012802408E+02 -0.29895213740E+02 -0.14866721737E+02  0.37029083984E+02  0.00000000000E+00 0. -1.
<mgrwt>
<rscale>  1 0.86134333E+02</rscale>
<asrwt>0</asrwt>
<pdfrwt beam="1">  1       21 0.42539735E-02 0.86134333E+02</pdfrwt>
<pdfrwt beam="2">  1        2 0.21213288E-01 0.86134333E+02</pdfrwt>
<totfact> 0.10395946E+06</totfact>
</mgrwt>
</event>
<event>
 6    2  0.1372363E+002  0.8249342E+02  0.7546771E-02  0.1322121E+00
         21   -1    0    0  501  502  0.00000000000E+00  0.00000000000E+00  0.10999181207E+02  0.10999181207E+02  0.00000000000E+00 0. -1.
          2   -1    0    0  502    0 -0.00000000000E+00 -0.00000000000E+00 -0.43049257729E+03  0.43049257729E+03  0.00000000000E+00 0. -1.
         24    2    1    2    0    0 -0.20752518925E+02 -0.10534193285E+02 -0.40660369626E+03  0.41488761162E+03  0.79142455026E+02 0.  0.
        -13    1    3    3    0    0 -0.23405014891E+02 -0.13918735911E+02 -0.40764603375E+02  0.49023247748E+02  0.00000000000E+00 0.  1.
         14    1    3    3    0    0  0.26524959657E+01  0.33845426261E+01 -0.36583909289E+03  0.36586436387E+03  0.00000000000E+00 0. -1.
          1    1    1    2  501    0  0.20752518925E+02  0.10534193285E+02 -0.12889699821E+02  0.26604146883E+02  0.00000000000E+00 0. -1.
<mgrwt>
<rscale>  1 0.82493421E+02</rscale>
<asrwt>0</asrwt>
<pdfrwt beam="1">  1       21 0.16921817E-02 0.82493421E+02</pdfrwt>
<pdfrwt beam="2">  1        2 0.66229628E-01 0.82493421E+02</pdfrwt>
<totfact> 0.13726207E+06</totfact>
</mgrwt>
</event>
<event>
 6    2  0.1372363E+002  0.1062925E+03  0.7546771E-02  0.1267594E+00
         21   -1    0    0  501  502  0.00000000000E+00  0.00000000000E+00  0.11815036519E+03  0.11815036519E+03  0.00000000000E+00 0. -1.
          2   -1    0    0  502    0 -0.00000000000E+00 -0.00000000000E+00 -0.69746035729E+02  0.69746035729E+02  0.00000000000E+00 0. -1.
         24    2    1    2    0    0  0.60383206777E+02 -0.34306629704E+02  0.58629082100E+01  0.10645409604E+03  0.80467536112E+02 0.  0.
        -13    1    3    3    0    0 -0.79290283273E+01  0.16739474251E+02  0.10051006956E+02  0.21073733159E+02  0.00000000000E+00 0.  1.
         14    1    3    3    0    0  0.68312235104E+02 -0.51046103955E+02 -0.41880987463E+01  0.85380362877E+02  0.00000000000E+00 0. -1.
          1    1    1    2  501    0 -0.60383206777E+02  0.34306629704E+02  0.42541421249E+02  0.81442304881E+02  0.00000000000E+00 0. -1.
<mgrwt>
<rscale>  1 0.10629252E+03</rscale>
<asrwt>0</asrwt>
<pdfrwt beam="1">  1       21 0.18176979E-01 0.10629252E+03</pdfrwt>
<pdfrwt beam="2">  1        2 0.10730159E-01 0.10629252E+03</pdfrwt>
<totfact> 0.19008222E+05</totfact>
</mgrwt>
</event>
<event>
 6    2  0.1372363E+002  0.8784787E+02  0.7546771E-02  0.1308149E+00
         -3   -1    0    0    0  501 -0.00000000000E+00  0.00000000000E+00  0.12619180024E+04  0.12619180024E+04  0.00000000000E+00 0.  1.
         21   -1    0    0  501  502  0.00000000000E+00 -0.00000000000E+00 -0.26577179856E+01  0.26577179856E+01  0.00000000000E+00 0. -1.
         24    2    1    2    0    0 -0.23926281822E+02  0.14145856632E+02  0.98581183750E+03  0.98971825671E+03  0.83334725509E+02 0.  0.
        -11    1    3    3    0    0  0.98541569859E+01 -0.24154592215E+01  0.14606469187E+02  0.17784481866E+02  0.00000000000E+00 0.  1.
         12    1    3    3    0    0 -0.33780438808E+02  0.16561315854E+02  0.97120536832E+03  0.97193377484E+03  0.00000000000E+00 0. -1.
         -4    1    1    2    0  502  0.23926281822E+02 -0.14145856632E+02  0.27344844690E+03  0.27485746366E+03  0.00000000000E+00 0.  1.
<mgrwt>
<rscale>  1 0.87847872E+02</rscale>
<asrwt>0</asrwt>
<pdfrwt beam="1">  1       21 0.40888070E-03 0.87847872E+02</pdfrwt>
<pdfrwt beam="2">  1       -3 0.19414075E+00 0.87847872E+02</pdfrwt>
<totfact> 0.12012621E+05</totfact>
</mgrwt>
</event>
<event>
 6    2  0.1372363E+002  0.8163994E+02  0.7546771E-02  0.1324461E+00
          2   -1    0    0  502    0 -0.00000000000E+00  0.00000000000E+00  0.82002296878E+02  0.82002296878E+02  0.00000000000E+00 0. -1.
         21   -1    0    0  501  502  0.00000000000E+00 -0.00000000000E+00 -0.51858270676E+02  0.51858270676E+02  0.00000000000E+00 0.  1.
         24    2    1    2    0    0  0.11003637316E+02 -0.20282062579E+02  0.56156172582E+02  0.99088828226E+02  0.78311161807E+02 0.  0.
        -11    1    3    3    0    0  0.28127665868E+02  0.12133772506E+02 -0.16053908502E+01  0.30675255536E+02  0.00000000000E+00 0.  1.
         12    1    3    3    0    0 -0.17124028552E+02 -0.32415835085E+02  0.57761563432E+02  0.68413572690E+02  0.00000000000E+00 0. -1.
          1    1    1    2  501    0 -0.11003637316E+02  0.20282062579E+02 -0.26012146379E+02  0.34771739328E+02  0.00000000000E+00 0. -1.
<mgrwt>
<rscale>  1 0.81639942E+02</rscale>
<asrwt>0</asrwt>
<pdfrwt beam="1">  1       21 0.79781955E-02 0.81639942E+02</pdfrwt>
<pdfrwt beam="2">  1        2 0.12615738E-01 0.81639942E+02</pdfrwt>
<totfact> 0.65242767E+05</totfact>
</mgrwt>
</event>
<event>
 6    2  0.1372363E+002  0.1005732E+03  0.7546771E-02  0.1279095E+00
         21   -1    0    0  501  502  0.00000000000E+00  0.00000000000E+00  0.11196601397E+03  0.11196601397E+03  0.00000000000E+00 0.  1.
         -3   -1    0    0    0  501 -0.00000000000E+00 -0.00000000000E+00 -0.11934529787E+03  0.11934529787E+03  0.00000000000E+00 0.  1.
         24    2    1    2    0    0  0.55898441802E+02  0.22254981128E+02 -0.85987250411E+02  0.13232074472E+03  0.80591887120E+02 0.  0.
        -13    1    3    3    0    0  0.48766164470E+02  0.44827760322E+02 -0.86119893991E+02  0.10864760942E+03  0.00000000000E+00 0.  1.
         14    1    3    3    0    0  0.71322773327E+01 -0.22572779194E+02  0.13264358054E+00  0.23673135297E+02  0.00000000000E+00 0. -1.
         -4    1    1    2    0  502 -0.55898441802E+02 -0.22254981128E+02  0.78607966505E+02  0.98990567121E+02  0.00000000000E+00 0.  1.
<mgrwt>
<rscale>  1 0.10057322E+03</rscale>
<asrwt>0</asrwt>
<pdfrwt beam="1">  1       21 0.17225541E-01 0.10057322E+03</pdfrwt>
<pdfrwt beam="2">  1       -3 0.18360815E-01 0.10057322E+03</pdfrwt>
<totfact> 0.37079053E+04</totfact>
</mgrwt>
</event>
<event>
 6    2  0.1372363E+002  0.8804889E+02  0.7546771E-02  0.1307647E+00
          2   -1    0    0  502    0 -0.00000000000E+00  0.00000000000E+00  0.56823055070E+03  0.56823055070E+03  0.00000000000E+00 0. -1.
         21   -1    0    0  501  502  0.00000000000E+00 -0.00000000000E+00 -0.23760113054E+02  0.23760113054E+02  0.00000000000E+00 0. -1.
         24    2    1    2    0    0  0.27229433486E+02  0.20201054854E+02  0.55054908167E+03  0.55754542346E+03  0.81259357804E+02 0.  0.
        -11    1    3    3    0    0  0.19275997406E+02 -0.25919750426E+02  0.11378930060E+03  0.11828525889E+03  0.00000000000E+00 0.  1.
         12    1    3    3    0    0  0.79534360802E+01  0.46120805280E+02  0.43675978107E+03  0.43926016458E+03  0.00000000000E+00 0. -1.
          1    1    1    2  501    0 -0.27229433486E+02 -0.20201054854E+02 -0.60786440294E+01  0.34445240287E+02  0.00000000000E+00 0. -1.
<mgrwt>
<rscale>  1 0.88048895E+02</rscale>
<asrwt>0</asrwt>
<pdfrwt beam="1">  1       21 0.36554024E-02 0.88048895E+02</pdfrwt>
<pdfrwt beam="2">  1        2 0.87420074E-01 0.88048895E+02</pdfrwt>
<totfact> 0.29592344E+05</totfact>
</mgrwt>
</event>
<event>
 6    2  0.1372363E+002  0.1481283E+03  0.7546771E-02  0.1202792E+00
          2   -1    0    0  502    0 -0.00000000000E+00  0.00000000000E+00  0.17651976225E+04  0.17651976225E+04  0.00000000000E+00 0. -1.
         21   -1    0    0  501  502  0.00000000000E+00 -0.00000000000E+00 -0.15816492612E+02  0.15816492612E+02  0.00000000000E+00 0. -1.
         24    2    1    2    0    0  0.55632643347E+02  0.10219808339E+03  0.14823456171E+04  0.14897283373E+04  0.91665430778E+02 0.  0.
        -13    1    3    3    0    0 -0.16590143186E+02  0.16065986172E+02  0.92299930536E+02  0.95145288583E+02  0.00000000000E+00 0.  1.
         14    1    3    3    0    0  0.72222786533E+02  0.86132097221E+02  0.13900456866E+04  0.13945830488E+04  0.00000000000E+00 0. -1.
          1    1    1    2  501    0 -0.55632643347E+02 -0.10219808339E+03  0.26703551272E+03  0.29128577773E+03  0.00000000000E+00 0. -1.
<mgrwt>
<rscale>  1 0.14812829E+03</rscale>
<asrwt>0</asrwt>
<pdfrwt beam="1">  1       21 0.24333080E-02 0.14812829E+03</pdfrwt>
<pdfrwt beam="2">  1        2 0.27156871E+00 0.14812829E+03</pdfrwt>
<totfact> 0.11442759E+05</totfact>
</mgrwt>
</event>
<event>
 6    2  0.1372363E+002  0.1428176E+03  0.7546771E-02  0.1209587E+00
          2   -1    0    0  502    0 -0.00000000000E+00  0.00000000000E+00  0.41198968428E+03  0.41198968428E+03  0.00000000000E+00 0. -1.
         21   -1    0    0  501  502  0.00000000000E+00 -0.00000000000E+00 -0.76615213874E+02  0.76615213874E+02  0.00000000000E+00 0. -1.
         24    2    1    2    0    0  0.72180865575E+02  0.93408335228E+02  0.34174369345E+03  0.37038577345E+03  0.80384542738E+02 0.  0.
        -11    1    3    3    0    0 -0.33149483500E+01  0.19172780748E+02  0.94486896554E+01  0.21630121136E+02  0.00000000000E+00 0.  1.
         12    1    3    3    0    0  0.75495813925E+02  0.74235554480E+02  0.33229500380E+03  0.34875565231E+03  0.00000000000E+00 0. -1.
          1    1    1    2  501    0 -0.72180865575E+02 -0.93408335228E+02 -0.63692230443E+01  0.11821912471E+03  0.00000000000E+00 0. -1.
<mgrwt>
<rscale>  1 0.14281761E+03</rscale>
<asrwt>0</asrwt>
<pdfrwt beam="1">  1       21 0.11786956E-01 0.14281761E+03</pdfrwt>
<pdfrwt beam="2">  1        2 0.63383027E-01 0.14281761E+03</pdfrwt>
<totfact> 0.58314927E+04</totfact>
</mgrwt>
</event>
<event>
 6    2  0.1372363E+002  0.1404632E+03  0.7546771E-02  0.1212707E+00
          2   -1    0    0  502    0 -0.00000000000E+00  0.00000000000E+00  0.22397285281E+03  0.22397285281E+03  0.00000000000E+00 0. -1.
         21   -1    0    0  501  502  0.00000000000E+00 -0.00000000000E+00 -0.10196152091E+03  0.10196152091E+03  0.00000000000E+00 0. -1.
         24    2    1    2    0    0  0.59430500691E+02 -0.99991953091E+02  0.15082139392E+03  0.20609950913E+03  0.78737155808E+02 0.  0.
        -13    1    3    3    0    0  0.50260436936E+01  0.44580750941E+01 -0.66550373298E+01  0.94564829940E+01  0.00000000000E+00 0.  1.
         14    1    3    3    0    0  0.54404456998E+02 -0.10445002819E+03  0.15747643125E+03  0.19664302614E+03  0.00000000000E+00 0. -1.
          1    1    1    2  501    0 -0.59430500691E+02  0.99991953091E+02 -0.28810062029E+02  0.11983486458E+03  0.00000000000E+00 0. -1.
<mgrwt>
<rscale>  1 0.14046322E+03</rscale>
<asrwt>0</asrwt>
<pdfrwt beam="1">  1       21 0.15686388E-01 0.14046322E+03</pdfrwt>
<pdfrwt beam="2">  1        2 0.34457362E-01 0.14046322E+03</pdfrwt>
<totfact> 0.66837590E+04</totfact>
</mgrwt>
</event>
<event>
 6    2  0.1372363E+002  0.8531295E+02  0.7546771E-02  0.1314616E+00
         21   -1    0    0  501  502  0.00000000000E+00  0.00000000000E+00  0.21332823111E+02  0.21332823111E+02  0.00000000000E+00 0. -1.
         -1   -1    0    0    0  501 -0.00000000000E+00 -0.00000000000E+00 -0.16646161983E+03  0.16646161983E+03  0.00000000000E+00 0.  1.
         24    2    1    2    0    0 -0.90817949614E+01 -0.27959105770E+02 -0.12783339096E+03  0.15368694149E+03  0.80088136101E+02 0.  0.
        -13    1    3    3    0    0 -0.17807465321E+02 -0.22312356118E+02 -0.13693049491E+03  0.13987461347E+03  0.00000000000E+00 0.  1.
         14    1    3    3    0    0  0.87256703594E+01 -0.56467496528E+01  0.90971039533E+01  0.13812328015E+02  0.00000000000E+00 0. -1.
         -2    1    1    2    0  502  0.90817949614E+01  0.27959105770E+02 -0.17295405764E+02  0.34107501459E+02  0.00000000000E+00 0.  1.
<mgrwt>
<rscale>  1 0.85312954E+02</rscale>
<asrwt>0</asrwt>
<pdfrwt beam="1">  1       21 0.32819728E-02 0.85312954E+02</pdfrwt>
<pdfrwt beam="2">  1       -1 0.25609480E-01 0.85312954E+02</pdfrwt>
<totfact> 0.61393355E+05</totfact>
</mgrwt>
</event>
<event>
 6    2  0.1372363E+002  0.9691579E+02  0.7546771E-02  0.1286919E+00
          2   -1    0    0  502    0 -0.00000000000E+00  0.00000000000E+00  0.15467832918E+04  0.15467832918E+04  0.00000000000E+00 0. -1.
         21   -1    0    0  501  502  0.00000000000E+00 -0.00000000000E+00 -0.36395196640E+01  0.36395196640E+01  0.00000000000E+00 0. -1.
         24    2    1    2    0    0 -0.50225437248E+02 -0.31322167064E+01  0.11488683493E+04  0.11529488949E+04  0.82826715542E+02 0.  0.
        -11    1    3    3    0    0  0.12690836575E+01 -0.27489723354E+02  0.15317434608E+03  0.15562671930E+03  0.00000000000E+00 0.  1.
         12    1    3    3    0    0 -0.51494520905E+02  0.24357506647E+02  0.99569400324E+03  0.99732217558E+03  0.00000000000E+00 0. -1.
          1    1    1    2  501    0  0.50225437248E+02  0.31322167064E+01  0.39427542287E+03  0.39747391663E+03  0.00000000000E+00 0. -1.
<mgrwt>
<rscale>  1 0.96915789E+02</rscale>
<asrwt>0</asrwt>
<pdfrwt beam="1">  1       21 0.55992734E-03 0.96915789E+02</pdfrwt>
<pdfrwt beam="2">  1        2 0.23796614E+00 0.96915789E+02</pdfrwt>
<totfact> 0.14945292E+06</totfact>
</mgrwt>
</event>
<event>
 6    2  0.1372363E+002  0.8715854E+02  0.7546771E-02  0.1309882E+00
          2   -1    0    0  502    0 -0.00000000000E+00  0.00000000000E+00  0.88916582878E+03  0.88916582878E+03  0.00000000000E+00 0. -1.
         21   -1    0    0  501  502  0.00000000000E+00 -0.00000000000E+00 -0.41447926964E+01  0.41447926964E+01  0.00000000000E+00 0. -1.
         24    2    1    2    0    0  0.30644222648E+02  0.93489764238E+00  0.73786155393E+03  0.74299144239E+03  0.81588407709E+02 0.  0.
        -11    1    3    3    0    0  0.34695920781E+02 -0.35986596377E+02  0.43242763328E+03  0.43530736275E+03  0.00000000000E+00 0.  1.
         12    1    3    3    0    0 -0.40516981331E+01  0.36921494019E+02  0.30543392066E+03  0.30768407964E+03  0.00000000000E+00 0. -1.
          1    1    1    2  501    0 -0.30644222648E+02 -0.93489764238E+00  0.14715948215E+03  0.15031917909E+03  0.00000000000E+00 0. -1.
<mgrwt>
<rscale>  1 0.87158538E+02</rscale>
<asrwt>0</asrwt>
<pdfrwt beam="1">  1       21 0.63766112E-03 0.87158538E+02</pdfrwt>
<pdfrwt beam="2">  1        2 0.13679459E+00 0.87158538E+02</pdfrwt>
<totfact> 0.27818849E+06</totfact>
</mgrwt>
</event>
<event>
 6    2  0.1372363E+002  0.1015909E+03  0.7546771E-02  0.1276986E+00
          2   -1    0    0  502    0 -0.00000000000E+00  0.00000000000E+00  0.63446799654E+03  0.63446799654E+03  0.00000000000E+00 0. -1.
         21   -1    0    0  501  502  0.00000000000E+00 -0.00000000000E+00 -0.18557355040E+02  0.18557355040E+02  0.00000000000E+00 0. -1.
         24    2    1    2    0    0 -0.46065630467E+02 -0.46448838010E+02  0.55304037522E+03  0.56229383972E+03  0.77724955441E+02 0.  0.
        -11    1    3    3    0    0 -0.18572200778E+02  0.64688120355E+01  0.30042529581E+02  0.35907182492E+02  0.00000000000E+00 0.  1.
         12    1    3    3    0    0 -0.27493429689E+02 -0.52917650045E+02  0.52299784564E+03  0.52638665722E+03  0.00000000000E+00 0. -1.
          1    1    1    2  501    0  0.46065630467E+02  0.46448838010E+02  0.62870266278E+02  0.90731511861E+02  0.00000000000E+00 0. -1.
<mgrwt>
<rscale>  1 0.10159087E+03</rscale>
<asrwt>0</asrwt>
<pdfrwt beam="1">  1       21 0.28549782E-02 0.10159087E+03</pdfrwt>
<pdfrwt beam="2">  1        2 0.97610444E-01 0.10159087E+03</pdfrwt>
<totfact> 0.39501617E+05</totfact>
</mgrwt>
</event>
<event>
 6    2  0.1372363E+002  0.9287840E+02  0.7546771E-02  0.1296027E+00
         21   -1    0    0  501  502  0.00000000000E+00  0.00000000000E+00  0.12618393675E+02  0.12618393675E+02  0.00000000000E+00 0.  1.
          2   -1    0    0  502    0 -0.00000000000E+00 -0.00000000000E+00 -0.86440470992E+03  0.86440470992E+03  0.00000000000E+00 0. -1.
         24    2    1    2    0    0 -0.14592751727E+02  0.42804972656E+02 -0.81044800355E+03  0.81575263613E+03  0.81124489572E+02 0.  0.
        -13    1    3    3    0    0 -0.30254731994E+02  0.92952178157E+01 -0.11368787007E+03  0.11801136252E+03  0.00000000000E+00 0.  1.
         14    1    3    3    0    0  0.15661980268E+02  0.33509754841E+02 -0.69676013348E+03  0.69774127361E+03  0.00000000000E+00 0. -1.
          1    1    1    2  501    0  0.14592751727E+02 -0.42804972656E+02 -0.41338312698E+02  0.61270467468E+02  0.00000000000E+00 0. -1.
<mgrwt>
<rscale>  1 0.92878398E+02</rscale>
<asrwt>0</asrwt>
<pdfrwt beam="1">  1       21 0.19412906E-02 0.92878398E+02</pdfrwt>
<pdfrwt beam="2">  1        2 0.13298539E+00 0.92878398E+02</pdfrwt>
<totfact> 0.50564124E+05</totfact>
</mgrwt>
</event>
<event>
 6    2  0.1372363E+002  0.9516899E+02  0.7546771E-02  0.1290796E+00
         21   -1    0    0  501  502  0.00000000000E+00  0.00000000000E+00  0.30625361841E+03  0.30625361841E+03  0.00000000000E+00 0.  1.
         -1   -1    0    0    0  501 -0.00000000000E+00 -0.00000000000E+00 -0.51255948216E+02  0.51255948216E+02  0.00000000000E+00 0.  1.
         24    2    1    2    0    0  0.13478692844E+02 -0.50576278413E+02 -0.20459216205E+01  0.95190975611E+02  0.79482708457E+02 0.  0.
        -13    1    3    3    0    0  0.38985097233E+02 -0.23200168242E+02 -0.24494572496E+02  0.51556470927E+02  0.00000000000E+00 0.  1.
         14    1    3    3    0    0 -0.25506404388E+02 -0.27376110171E+02  0.22448650876E+02  0.43634504684E+02  0.00000000000E+00 0. -1.
         -2    1    1    2    0  502 -0.13478692844E+02  0.50576278413E+02  0.25704359181E+03  0.26231859101E+03  0.00000000000E+00 0.  1.
<mgrwt>
<rscale>  1 0.95168987E+02</rscale>
<asrwt>0</asrwt>
<pdfrwt beam="1">  1       21 0.47115940E-01 0.95168987E+02</pdfrwt>
<pdfrwt beam="2">  1       -1 0.78855307E-02 0.95168987E+02</pdfrwt>
<totfact> 0.33325490E+04</totfact>
</mgrwt>
</event>
<event>
 6    2  0.1372363E+002  0.7915306E+02  0.7546771E-02  0.1331472E+00
         21   -1    0    0  501  502  0.00000000000E+00  0.00000000000E+00  0.81968714857E+01  0.81968714857E+01  0.00000000000E+00 0.  1.
          2   -1    0    0  502    0 -0.00000000000E+00 -0.00000000000E+00 -0.43963938469E+03  0.43963938469E+03  0.00000000000E+00 0. -1.
         24    2    1    2    0    0 -0.28206674684E+02 -0.15780715973E+02 -0.21727596378E+03  0.23124457031E+03  0.72253438455E+02 0.  0.
        -13    1    3    3    0    0 -0.59377499936E+01 -0.43202527676E+02 -0.12852987420E+03  0.13572635645E+03  0.00000000000E+00 0.  1.
         14    1    3    3    0    0 -0.22268924690E+02  0.27421811704E+02 -0.88746089575E+02  0.95518213859E+02  0.00000000000E+00 0. -1.
          1    1    1    2  501    0  0.28206674684E+02  0.15780715973E+02 -0.21416654943E+03  0.21659168587E+03  0.00000000000E+00 0. -1.
<mgrwt>
<rscale>  1 0.79153060E+02</rscale>
<asrwt>0</asrwt>
<pdfrwt beam="1">  1       21 0.12610572E-02 0.79153060E+02</pdfrwt>
<pdfrwt beam="2">  1        2 0.67636827E-01 0.79153060E+02</pdfrwt>
<totfact> 0.21248608E+06</totfact>
</mgrwt>
</event>
<event>
 6    2  0.1372363E+002  0.1686629E+03  0.7546771E-02  0.1179249E+00
         21   -1    0    0  501  502  0.00000000000E+00  0.00000000000E+00  0.73173401631E+02  0.73173401631E+02  0.00000000000E+00 0. -1.
          2   -1    0    0  502    0 -0.00000000000E+00 -0.00000000000E+00 -0.70616928196E+03  0.70616928196E+03  0.00000000000E+00 0. -1.
         24    2    1    2    0    0  0.14787790357E+03 -0.11054279398E+01 -0.47162663155E+02  0.17513274104E+03  0.81105264023E+02 0.  0.
        -13    1    3    3    0    0  0.10414806398E+03 -0.65562399118E+01 -0.69843479789E+02  0.12557035949E+03  0.00000000000E+00 0.  1.
         14    1    3    3    0    0  0.43729839590E+02  0.54508119720E+01  0.22680816635E+02  0.49562381550E+02  0.00000000000E+00 0. -1.
          1    1    1    2  501    0 -0.14787790357E+03  0.11054279398E+01 -0.58583321718E+03  0.60420994256E+03  0.00000000000E+00 0. -1.
<mgrwt>
<rscale>  1 0.16866286E+03</rscale>
<asrwt>0</asrwt>
<pdfrwt beam="1">  1       21 0.11257447E-01 0.16866286E+03</pdfrwt>
<pdfrwt beam="2">  1        2 0.10864143E+00 0.16866286E+03</pdfrwt>
<totfact> 0.34510003E+04</totfact>
</mgrwt>
</event>
<event>
 6    2  0.1372363E+002  0.8429334E+02  0.7546771E-02  0.1317291E+00
         21   -1    0    0  501  502  0.00000000000E+00  0.00000000000E+00  0.26415502505E+03  0.26415502505E+03  0.00000000000E+00 0.  1.
         -3   -1    0    0    0  501 -0.00000000000E+00 -0.00000000000E+00 -0.20476018778E+02  0.20476018778E+02  0.00000000000E+00 0.  1.
         24    2    1    2    0    0  0.49282852361E+01 -0.26167556557E+02  0.71876397278E+02  0.11077718144E+03  0.79977111912E+02 0.  0.
        -11    1    3    3    0    0 -0.19288763224E+02  0.18702441126E+02  0.60967200687E+01  0.27550094127E+02  0.00000000000E+00 0.  1.
         12    1    3    3    0    0  0.24217048460E+02 -0.44869997684E+02  0.65779677210E+02  0.83227087310E+02  0.00000000000E+00 0. -1.
         -4    1    1    2    0  502 -0.49282852361E+01  0.26167556557E+02  0.17180260900E+03  0.17385386239E+03  0.00000000000E+00 0.  1.
<mgrwt>
<rscale>  1 0.84293342E+02</rscale>
<asrwt>0</asrwt>
<pdfrwt beam="1">  1       21 0.40639232E-01 0.84293342E+02</pdfrwt>
<pdfrwt beam="2">  1       -3 0.31501569E-02 0.84293342E+02</pdfrwt>
<totfact> 0.12382162E+05</totfact>
</mgrwt>
</event>
<event>
 6    2  0.1372363E+002  0.8312748E+02  0.7546771E-02  0.1320403E+00
         21   -1    0    0  501  502  0.00000000000E+00  0.00000000000E+00  0.60428827922E+02  0.60428827922E+02  0.00000000000E+00 0. -1.
         -3   -1    0    0    0  501 -0.00000000000E+00 -0.00000000000E+00 -0.51286312638E+02  0.51286312638E+02  0.00000000000E+00 0.  1.
         24    2    1    2    0    0  0.23108833506E+02  0.13955625938E+02 -0.26242028648E+00  0.83127897000E+02  0.78621884446E+02 0.  0.
        -13    1    3    3    0    0 -0.75006004438E+01  0.36829981298E+02 -0.17194568583E+02  0.41332308407E+02  0.00000000000E+00 0.  1.
         14    1    3    3    0    0  0.30609433950E+02 -0.22874355361E+02  0.16932148297E+02  0.41795588593E+02  0.00000000000E+00 0. -1.
         -4    1    1    2    0  502 -0.23108833506E+02 -0.13955625938E+02  0.94049355709E+01  0.28587243561E+02  0.00000000000E+00 0.  1.
<mgrwt>
<rscale>  1 0.83127483E+02</rscale>
<asrwt>0</asrwt>
<pdfrwt beam="1">  1       21 0.92967428E-02 0.83127483E+02</pdfrwt>
<pdfrwt beam="2">  1       -3 0.78902019E-02 0.83127483E+02</pdfrwt>
<totfact> 0.43696718E+05</totfact>
</mgrwt>
</event>
<event>
 6    2  0.1372363E+002  0.8344280E+02  0.7546771E-02  0.1319556E+00
         21   -1    0    0  501  502  0.00000000000E+00  0.00000000000E+00  0.44459934197E+01  0.44459934197E+01  0.00000000000E+00 0. -1.
          2   -1    0    0  502    0 -0.00000000000E+00 -0.00000000000E+00 -0.79307192889E+03  0.79307192889E+03  0.00000000000E+00 0. -1.
         24    2    1    2    0    0 -0.14520500599E+02  0.20071798612E+02 -0.71463121402E+03  0.71948625669E+03  0.79680483648E+02 0.  0.
        -11    1    3    3    0    0  0.90160120734E+01 -0.28235551054E+02 -0.24045440889E+03  0.24227434361E+03  0.00000000000E+00 0.  1.
         12    1    3    3    0    0 -0.23536512672E+02  0.48307349666E+02 -0.47417680513E+03  0.47721191308E+03  0.00000000000E+00 0. -1.
          1    1    1    2  501    0  0.14520500599E+02 -0.20071798612E+02 -0.73994721453E+02  0.78031665624E+02  0.00000000000E+00 0. -1.
<mgrwt>
<rscale>  1 0.83442804E+02</rscale>
<asrwt>0</asrwt>
<pdfrwt beam="1">  1       21 0.68399937E-03 0.83442804E+02</pdfrwt>
<pdfrwt beam="2">  1        2 0.12201100E+00 0.83442804E+02</pdfrwt>
<totfact> 0.28637342E+06</totfact>
</mgrwt>
</event>
<event>
 6    2  0.1372363E+002  0.1087401E+03  0.7546771E-02  0.1262921E+00
         21   -1    0    0  501  502  0.00000000000E+00  0.00000000000E+00  0.13024438427E+02  0.13024438427E+02  0.00000000000E+00 0.  1.
          4   -1    0    0  502    0 -0.00000000000E+00 -0.00000000000E+00 -0.65298854113E+03  0.65298854113E+03  0.00000000000E+00 0. -1.
         24    2    1    2    0    0 -0.25608519388E+02 -0.68609109411E+02 -0.43406129655E+03  0.44747471805E+03  0.80382883590E+02 0.  0.
        -11    1    3    3    0    0 -0.49189738398E+02 -0.60493636060E+02 -0.25408066663E+03  0.26577452008E+03  0.00000000000E+00 0.  1.
         12    1    3    3    0    0  0.23581219010E+02 -0.81154733504E+01 -0.17998062992E+03  0.18170019797E+03  0.00000000000E+00 0. -1.
          3    1    1    2  501    0  0.25608519388E+02  0.68609109411E+02 -0.20590280616E+03  0.21853826151E+03  0.00000000000E+00 0. -1.
<mgrwt>
<rscale>  1 0.10874012E+03</rscale>
<asrwt>0</asrwt>
<pdfrwt beam="1">  1       21 0.20037597E-02 0.10874012E+03</pdfrwt>
<pdfrwt beam="2">  1        4 0.10045978E+00 0.10874012E+03</pdfrwt>
<totfact> 0.40772899E+04</totfact>
</mgrwt>
</event>
<event>
 6    2  0.1372363E+002  0.8292254E+02  0.7546771E-02  0.1320956E+00
         21   -1    0    0  501  502  0.00000000000E+00  0.00000000000E+00  0.45556659491E+01  0.45556659491E+01  0.00000000000E+00 0. -1.
         -3   -1    0    0    0  501 -0.00000000000E+00 -0.00000000000E+00 -0.58994822717E+03  0.58994822717E+03  0.00000000000E+00 0.  1.
         24    2    1    2    0    0  0.45553883490E+01 -0.19864795010E+02 -0.48891504378E+03  0.49589723505E+03  0.80379015003E+02 0.  0.
        -13    1    3    3    0    0 -0.35228543114E+02 -0.67956913543E+01 -0.31382515269E+03  0.31586936878E+03  0.00000000000E+00 0.  1.
         14    1    3    3    0    0  0.39783931463E+02 -0.13069103656E+02 -0.17508989109E+03  0.18002786627E+03  0.00000000000E+00 0. -1.
         -4    1    1    2    0  502 -0.45553883490E+01  0.19864795010E+02 -0.96477517436E+02  0.98606658064E+02  0.00000000000E+00 0.  1.
<mgrwt>
<rscale>  1 0.82922540E+02</rscale>
<asrwt>0</asrwt>
<pdfrwt beam="1">  1       21 0.70087170E-03 0.82922540E+02</pdfrwt>
<pdfrwt beam="2">  1       -3 0.90761263E-01 0.82922540E+02</pdfrwt>
<totfact> 0.32347216E+05</totfact>
</mgrwt>
</event>
<event>
 6    2  0.1372363E+002  0.8495222E+02  0.7546771E-02  0.1315558E+00
          2   -1    0    0  502    0 -0.00000000000E+00  0.00000000000E+00  0.13249116883E+02  0.13249116883E+02  0.00000000000E+00 0. -1.
         21   -1    0    0  501  502  0.00000000000E+00 -0.00000000000E+00 -0.23063525853E+03  0.23063525853E+03  0.00000000000E+00 0.  1.
         24    2    1    2    0    0  0.10405071699E+02 -0.19648143713E+02 -0.14386334289E+03  0.16707345818E+03  0.81991243029E+02 0.  0.
        -13    1    3    3    0    0  0.97991030491E+01 -0.27013309711E+02 -0.15279914056E+03  0.15547771119E+03  0.00000000000E+00 0.  1.
         14    1    3    3    0    0  0.60596864999E+00  0.73651659985E+01  0.89357976717E+01  0.11595746988E+02  0.00000000000E+00 0. -1.
          1    1    1    2  501    0 -0.10405071699E+02  0.19648143713E+02 -0.73522798756E+02  0.76810917228E+02  0.00000000000E+00 0. -1.
<mgrwt>
<rscale>  1 0.84952216E+02</rscale>
<asrwt>0</asrwt>
<pdfrwt beam="1">  1       21 0.35482346E-01 0.84952216E+02</pdfrwt>
<pdfrwt beam="2">  1        2 0.20383258E-02 0.84952216E+02</pdfrwt>
<totfact> 0.45267728E+05</totfact>
</mgrwt>
</event>
<event>
 6    2  0.1372363E+002  0.9219644E+02  0.7546771E-02  0.1297618E+00
         21   -1    0    0  501  502  0.00000000000E+00  0.00000000000E+00  0.25104301023E+02  0.25104301023E+02  0.00000000000E+00 0. -1.
          2   -1    0    0  502    0 -0.00000000000E+00 -0.00000000000E+00 -0.17281130519E+03  0.17281130519E+03  0.00000000000E+00 0. -1.
         24    2    1    2    0    0  0.88169064285E+01 -0.19272311864E+02 -0.15054481044E+03  0.17653306689E+03  0.89727498063E+02 0.  0.
        -11    1    3    3    0    0 -0.36368103192E+02  0.10122335640E+02 -0.52759572875E+02  0.64874287191E+02  0.00000000000E+00 0.  1.
         12    1    3    3    0    0  0.45185009621E+02 -0.29394647504E+02 -0.97785237570E+02  0.11165877969E+03  0.00000000000E+00 0. -1.
          1    1    1    2  501    0 -0.88169064285E+01  0.19272311864E+02  0.28378062794E+01  0.21382539326E+02  0.00000000000E+00 0. -1.
<mgrwt>
<rscale>  1 0.92196441E+02</rscale>
<asrwt>0</asrwt>
<pdfrwt beam="1">  1       21 0.38622004E-02 0.92196441E+02</pdfrwt>
<pdfrwt beam="2">  1        2 0.26586353E-01 0.92196441E+02</pdfrwt>
<totfact> 0.95912172E+05</totfact>
</mgrwt>
</event>
<event>
 6    2  0.1372363E+002  0.8557204E+02  0.7546771E-02  0.1313943E+00
          2   -1    0    0  502    0 -0.00000000000E+00  0.00000000000E+00  0.24562858239E+03  0.24562858239E+03  0.00000000000E+00 0. -1.
         21   -1    0    0  501  502  0.00000000000E+00 -0.00000000000E+00 -0.20288271464E+02  0.20288271464E+02  0.00000000000E+00 0. -1.
         24    2    1    2    0    0 -0.12195390356E+02 -0.27198947641E+02  0.21943475828E+03  0.23552958924E+03  0.80212617257E+02 0.  0.
        -13    1    3    3    0    0 -0.17019131212E+02 -0.23274334886E+02  0.17981939386E+02  0.33980812758E+02  0.00000000000E+00 0.  1.
         14    1    3    3    0    0  0.48237408561E+01 -0.39246127555E+01  0.20145281889E+03  0.20154877648E+03  0.00000000000E+00 0. -1.
          1    1    1    2  501    0  0.12195390356E+02  0.27198947641E+02  0.59055526479E+01  0.30387264615E+02  0.00000000000E+00 0. -1.
<mgrwt>
<rscale>  1 0.85572041E+02</rscale>
<asrwt>0</asrwt>
<pdfrwt beam="1">  1       21 0.31212727E-02 0.85572041E+02</pdfrwt>
<pdfrwt beam="2">  1        2 0.37789010E-01 0.85572041E+02</pdfrwt>
<totfact> 0.92709243E+05</totfact>
</mgrwt>
</event>
<event>
 6    2  0.1372363E+002  0.9438375E+02  0.7546771E-02  0.1292570E+00
         21   -1    0    0  501  502  0.00000000000E+00  0.00000000000E+00  0.10494111746E+03  0.10494111746E+03  0.00000000000E+00 0. -1.
          2   -1    0    0  502    0 -0.00000000000E+00 -0.00000000000E+00 -0.79389042485E+02  0.79389042485E+02  0.00000000000E+00 0. -1.
         24    2    1    2    0    0 -0.44206608473E+02 -0.24177369556E+02 -0.39271065013E+02  0.10222773057E+03  0.79809290930E+02 0.  0.
        -13    1    3    3    0    0 -0.49488040697E+01  0.14718820805E+02  0.17228767322E+02  0.23194067583E+02  0.00000000000E+00 0.  1.
         14    1    3    3    0    0 -0.39257804404E+02 -0.38896190361E+02 -0.56499832335E+02  0.79033662987E+02  0.00000000000E+00 0. -1.
          1    1    1    2  501    0  0.44206608473E+02  0.24177369556E+02  0.64823139990E+02  0.82102429376E+02  0.00000000000E+00 0. -1.
<mgrwt>
<rscale>  1 0.94383750E+02</rscale>
<asrwt>0</asrwt>
<pdfrwt beam="1">  1       21 0.16144787E-01 0.94383750E+02</pdfrwt>
<pdfrwt beam="2">  1        2 0.12213699E-01 0.94383750E+02</pdfrwt>
<totfact> 0.20021945E+05</totfact>
</mgrwt>
</event>
<event>
 6    2  0.1372363E+002  0.1204737E+03  0.7546771E-02  0.1242318E+00
          2   -1    0    0  502    0 -0.00000000000E+00  0.00000000000E+00  0.61233227718E+03  0.61233227718E+03  0.00000000000E+00 0. -1.
         21   -1    0    0  501  502  0.00000000000E+00 -0.00000000000E+00 -0.26905148955E+02  0.26905148955E+02  0.00000000000E+00 0. -1.
         24    2    1    2    0    0 -0.77183771873E+02 -0.41347573177E+02  0.50884205102E+03  0.52290931045E+03  0.82746345061E+02 0.  0.
        -11    1    3    3    0    0  0.13928504418E+02  0.66683011539E+01  0.10558845783E+03  0.10671172336E+03  0.00000000000E+00 0.  1.
         12    1    3    3    0    0 -0.91112276291E+02 -0.48015874331E+02  0.40325359319E+03  0.41619758709E+03  0.00000000000E+00 0. -1.
          1    1    1    2  501    0  0.77183771873E+02  0.41347573177E+02  0.76585077204E+02  0.11632811568E+03  0.00000000000E+00 0. -1.
<mgrwt>
<rscale>  1 0.12047371E+03</rscale>
<asrwt>0</asrwt>
<pdfrwt beam="1">  1       21 0.41392541E-02 0.12047371E+03</pdfrwt>
<pdfrwt beam="2">  1        2 0.94204955E-01 0.12047371E+03</pdfrwt>
<totfact> 0.22540706E+05</totfact>
</mgrwt>
</event>
<event>
 6    2  0.1372363E+002  0.8328391E+02  0.7546771E-02  0.1319982E+00
          2   -1    0    0  502    0 -0.00000000000E+00  0.00000000000E+00  0.11310017179E+03  0.11310017179E+03  0.00000000000E+00 0. -1.
         21   -1    0    0  501  502  0.00000000000E+00 -0.00000000000E+00 -0.34445105375E+02  0.34445105375E+02  0.00000000000E+00 0. -1.
         24    2    1    2    0    0 -0.36546720200E+02 -0.17538282199E+02  0.61488570535E+02  0.10352320679E+03  0.72752703983E+02 0.  0.
        -11    1    3    3    0    0  0.83499065707E+01  0.70307354092E+01 -0.10533108201E+02  0.15168999588E+02  0.00000000000E+00 0.  1.
         12    1    3    3    0    0 -0.44896626771E+02 -0.24569017608E+02  0.72021678735E+02  0.88354207198E+02  0.00000000000E+00 0. -1.
          1    1    1    2  501    0  0.36546720200E+02  0.17538282199E+02  0.17166495885E+02  0.44022070383E+02  0.00000000000E+00 0. -1.
<mgrwt>
<rscale>  1 0.83283912E+02</rscale>
<asrwt>0</asrwt>
<pdfrwt beam="1">  1       21 0.52992470E-02 0.83283912E+02</pdfrwt>
<pdfrwt beam="2">  1        2 0.17400026E-01 0.83283912E+02</pdfrwt>
<totfact> 0.89833390E+05</totfact>
</mgrwt>
</event>
<event>
 6    2  0.1372363E+002  0.1060338E+03  0.7546771E-02  0.1268096E+00
         21   -1    0    0  501  502  0.00000000000E+00  0.00000000000E+00  0.71366303650E+01  0.71366303650E+01  0.00000000000E+00 0. -1.
          2   -1    0    0  502    0 -0.00000000000E+00 -0.00000000000E+00 -0.11244742414E+04  0.11244742414E+04  0.00000000000E+00 0. -1.
         24    2    1    2    0    0  0.53364986758E+02 -0.46378603596E+02 -0.75836281857E+03  0.76573972189E+03  0.79021265565E+02 0.  0.
        -11    1    3    3    0    0 -0.72712001862E+01  0.16804836579E+02 -0.11638143234E+03  0.11781303272E+03  0.00000000000E+00 0.  1.
         12    1    3    3    0    0  0.60636186944E+02 -0.63183440175E+02 -0.64198138623E+03  0.64792668917E+03  0.00000000000E+00 0. -1.
          1    1    1    2  501    0 -0.53364986758E+02  0.46378603596E+02 -0.35897479243E+03  0.36587114984E+03  0.00000000000E+00 0. -1.
<mgrwt>
<rscale>  1 0.10603375E+03</rscale>
<asrwt>0</asrwt>
<pdfrwt beam="1">  1       21 0.10979443E-02 0.10603375E+03</pdfrwt>
<pdfrwt beam="2">  1        2 0.17299586E+00 0.10603375E+03</pdfrwt>
<totfact> 0.88296828E+05</totfact>
</mgrwt>
</event>
<event>
 6    2  0.1372363E+002  0.8727263E+02  0.7546771E-02  0.1309594E+00
         21   -1    0    0  501  502  0.00000000000E+00  0.00000000000E+00  0.11229232396E+02  0.11229232396E+02  0.00000000000E+00 0. -1.
          2   -1    0    0  502    0 -0.00000000000E+00 -0.00000000000E+00 -0.36764714684E+03  0.36764714684E+03  0.00000000000E+00 0. -1.
         24    2    1    2    0    0 -0.33905391343E+02  0.13524235963E+02 -0.19924618622E+03  0.21752138962E+03  0.79271884673E+02 0.  0.
        -11    1    3    3    0    0  0.24721569150E+02 -0.54982358740E+01 -0.66666757335E+02  0.71315097368E+02  0.00000000000E+00 0.  1.
         12    1    3    3    0    0 -0.58626960493E+02  0.19022471837E+02 -0.13257942889E+03  0.14620629226E+03  0.00000000000E+00 0. -1.
          1    1    1    2  501    0  0.33905391343E+02 -0.13524235963E+02 -0.15717172822E+03  0.16135498961E+03  0.00000000000E+00 0. -1.
<mgrwt>
<rscale>  1 0.87272632E+02</rscale>
<asrwt>0</asrwt>
<pdfrwt beam="1">  1       21 0.17275741E-02 0.87272632E+02</pdfrwt>
<pdfrwt beam="2">  1        2 0.56561102E-01 0.87272632E+02</pdfrwt>
<totfact> 0.15775732E+06</totfact>
</mgrwt>
</event>
<event>
 6    2  0.2240361E+002  0.8954757E+02  0.7546771E-02  0.1303951E+00
         -1   -1    0    0    0  501 -0.00000000000E+00  0.00000000000E+00  0.11303418284E+04  0.11303418284E+04  0.00000000000E+00 0.  1.
         21   -1    0    0  501  502  0.00000000000E+00 -0.00000000000E+00 -0.58265369540E+01  0.58265369540E+01  0.00000000000E+00 0.  1.
         24    2    1    2    0    0 -0.39632331123E+02  0.26960501436E+02  0.97622821617E+03  0.98032662832E+03  0.75638467957E+02 0.  0.
        -11    1    3    3    0    0 -0.48299544348E+02  0.40382122910E+01  0.86827914126E+03  0.86963085289E+03  0.00000000000E+00 0.  1.
         12    1    3    3    0    0  0.86672132246E+01  0.22922289145E+02  0.10794907491E+03  0.11069577543E+03  0.00000000000E+00 0. -1.
         -2    1    1    2    0  502  0.39632331123E+02 -0.26960501436E+02  0.14828707524E+03  0.15584173700E+03  0.00000000000E+00 0.  1.
<mgrwt>
<rscale>  1 0.89547575E+02</rscale>
<asrwt>0</asrwt>
<pdfrwt beam="1">  1       21 0.89639120E-03 0.89547575E+02</pdfrwt>
<pdfrwt beam="2">  1       -1 0.17389857E+00 0.89547575E+02</pdfrwt>
<totfact> 0.10328172E+05</totfact>
</mgrwt>
</event>
<event>
 6    2  0.1372363E+002  0.8771609E+02  0.7546771E-02  0.1308479E+00
          2   -1    0    0  502    0 -0.00000000000E+00  0.00000000000E+00  0.54690383763E+03  0.54690383763E+03  0.00000000000E+00 0. -1.
         21   -1    0    0  501  502  0.00000000000E+00 -0.00000000000E+00 -0.68538581871E+01  0.68538581871E+01  0.00000000000E+00 0. -1.
         24    2    1    2    0    0  0.29909911270E+02  0.15538457133E+02  0.35601567910E+03  0.36666234541E+03  0.80981882742E+02 0.  0.
        -13    1    3    3    0    0 -0.18002290800E+01  0.35871873089E+02  0.75264296042E+02  0.83395121934E+02  0.00000000000E+00 0.  1.
         14    1    3    3    0    0  0.31710140350E+02 -0.20333415957E+02  0.28075138306E+03  0.28326722347E+03  0.00000000000E+00 0. -1.
          1    1    1    2  501    0 -0.29909911270E+02 -0.15538457133E+02  0.18403430034E+03  0.18709535041E+03  0.00000000000E+00 0. -1.
<mgrwt>
<rscale>  1 0.87716086E+02</rscale>
<asrwt>0</asrwt>
<pdfrwt beam="1">  1       21 0.10544402E-02 0.87716086E+02</pdfrwt>
<pdfrwt beam="2">  1        2 0.84139018E-01 0.87716086E+02</pdfrwt>
<totfact> 0.22517925E+06</totfact>
</mgrwt>
</event>
<event>
 6    2  0.1372363E+002  0.8849106E+02  0.7546771E-02  0.1306547E+00
          2   -1    0    0  502    0 -0.00000000000E+00  0.00000000000E+00  0.54796728274E+03  0.54796728274E+03  0.00000000000E+00 0. -1.
         21   -1    0    0  501  502  0.00000000000E+00 -0.00000000000E+00 -0.93547064512E+01  0.93547064512E+01  0.00000000000E+00 0. -1.
         24    2    1    2    0    0 -0.81303631035E+01  0.32555173457E+02  0.49196084002E+03  0.49985611567E+03  0.81882392079E+02 0.  0.
        -11    1    3    3    0    0  0.35158613502E+02  0.20950929712E+02  0.17378394361E+03  0.17853831134E+03  0.00000000000E+00 0.  1.
         12    1    3    3    0    0 -0.43288976605E+02  0.11604243745E+02  0.31817689641E+03  0.32131780433E+03  0.00000000000E+00 0. -1.
          1    1    1    2  501    0  0.81303631035E+01 -0.32555173457E+02  0.46651736264E+02  0.57465873520E+02  0.00000000000E+00 0. -1.
<mgrwt>
<rscale>  1 0.88491063E+02</rscale>
<asrwt>0</asrwt>
<pdfrwt beam="1">  1       21 0.14391860E-02 0.88491063E+02</pdfrwt>
<pdfrwt beam="2">  1        2 0.84302634E-01 0.88491063E+02</pdfrwt>
<totfact> 0.13791876E+06</totfact>
</mgrwt>
</event>
<event>
 6    2  0.1372363E+002  0.8812546E+02  0.7546771E-02  0.1307456E+00
          2   -1    0    0  502    0 -0.00000000000E+00  0.00000000000E+00  0.35155667082E+04  0.35155667082E+04  0.00000000000E+00 0. -1.
         21   -1    0    0  501  502  0.00000000000E+00 -0.00000000000E+00 -0.18212699777E+01  0.18212699777E+01  0.00000000000E+00 0. -1.
         24    2    1    2    0    0  0.35978398446E+02 -0.34116332732E+01  0.32481256866E+04  0.32493209402E+04  0.80374200453E+02 0.  0.
        -13    1    3    3    0    0  0.79080305946E+01  0.19151258866E+02  0.21827167535E+03  0.21925289491E+03  0.00000000000E+00 0.  1.
         14    1    3    3    0    0  0.28070367851E+02 -0.22562892140E+02  0.30298540112E+04  0.30300680452E+04  0.00000000000E+00 0. -1.
          1    1    1    2  501    0 -0.35978398446E+02  0.34116332732E+01  0.26561975162E+03  0.26806703797E+03  0.00000000000E+00 0. -1.
<mgrwt>
<rscale>  1 0.88125459E+02</rscale>
<asrwt>0</asrwt>
<pdfrwt beam="1">  1       21 0.28019819E-03 0.88125459E+02</pdfrwt>
<pdfrwt beam="2">  1        2 0.54085099E+00 0.88125459E+02</pdfrwt>
<totfact> 0.36622628E+05</totfact>
</mgrwt>
</event>
<event>
 6    2  0.1372363E+002  0.8790477E+02  0.7546771E-02  0.1308006E+00
          2   -1    0    0  502    0 -0.00000000000E+00  0.00000000000E+00  0.47882567636E+03  0.47882567636E+03  0.00000000000E+00 0. -1.
         21   -1    0    0  501  502  0.00000000000E+00 -0.00000000000E+00 -0.15446220458E+02  0.15446220458E+02  0.00000000000E+00 0. -1.
         24    2    1    2    0    0 -0.19284479569E+02  0.27904584383E+02  0.44884038863E+03  0.45736740578E+03  0.81096808926E+02 0.  0.
        -11    1    3    3    0    0  0.93053249275E+01 -0.11297696632E+02  0.15497467584E+02  0.21316625500E+02  0.00000000000E+00 0.  1.
         12    1    3    3    0    0 -0.28589804497E+02  0.39202281015E+02  0.43334292105E+03  0.43605078028E+03  0.00000000000E+00 0. -1.
          1    1    1    2  501    0  0.19284479569E+02 -0.27904584383E+02  0.14539067268E+02  0.36904491039E+02  0.00000000000E+00 0. -1.
<mgrwt>
<rscale>  1 0.87904775E+02</rscale>
<asrwt>0</asrwt>
<pdfrwt beam="1">  1       21 0.23763420E-02 0.87904775E+02</pdfrwt>
<pdfrwt beam="2">  1        2 0.73665477E-01 0.87904775E+02</pdfrwt>
<totfact> 0.71709119E+05</totfact>
</mgrwt>
</event>
<event>
 6    2  0.1372363E+002  0.9443625E+02  0.7546771E-02  0.1292451E+00
          2   -1    0    0  502    0 -0.00000000000E+00  0.00000000000E+00  0.11281169453E+04  0.11281169453E+04  0.00000000000E+00 0. -1.
         21   -1    0    0  501  502  0.00000000000E+00 -0.00000000000E+00 -0.61469606432E+01  0.61469606432E+01  0.00000000000E+00 0.  1.
         24    2    1    2    0    0  0.71741540201E+01  0.48550246699E+02  0.41574333464E+03  0.42633405339E+03  0.80682153188E+02 0.  0.
        -13    1    3    3    0    0  0.35438466411E+02  0.38161414122E+02  0.14785755790E+03  0.15676107890E+03  0.00000000000E+00 0.  1.
         14    1    3    3    0    0 -0.28264312391E+02  0.10388832577E+02  0.26788577674E+03  0.26957297449E+03  0.00000000000E+00 0. -1.
          1    1    1    2  501    0 -0.71741540201E+01 -0.48550246699E+02  0.70622665003E+03  0.70792985257E+03  0.00000000000E+00 0. -1.
<mgrwt>
<rscale>  1 0.94436247E+02</rscale>
<asrwt>0</asrwt>
<pdfrwt beam="1">  1       21 0.94568715E-03 0.94436247E+02</pdfrwt>
<pdfrwt beam="2">  1        2 0.17355629E+00 0.94436247E+02</pdfrwt>
<totfact> 0.11016452E+06</totfact>
</mgrwt>
</event>
<event>
 6    2  0.1372363E+002  0.8426954E+02  0.7546771E-02  0.1317354E+00
         21   -1    0    0  501  502  0.00000000000E+00  0.00000000000E+00  0.49018063237E+01  0.49018063237E+01  0.00000000000E+00 0.  1.
          2   -1    0    0  502    0 -0.00000000000E+00 -0.00000000000E+00 -0.78356070208E+03  0.78356070208E+03  0.00000000000E+00 0. -1.
         24    2    1    2    0    0 -0.92247910608E+01 -0.27388025498E+02 -0.69199035362E+03  0.69710257787E+03  0.79159041563E+02 0.  0.
        -11    1    3    3    0    0 -0.27210627649E+02 -0.48404755272E+02 -0.51140874810E+03  0.51441456650E+03  0.00000000000E+00 0.  1.
         12    1    3    3    0    0  0.17985836589E+02  0.21016729774E+02 -0.18058160552E+03  0.18268801137E+03  0.00000000000E+00 0. -1.
          1    1    1    2  501    0  0.92247910608E+01  0.27388025498E+02 -0.86668542136E+02  0.91359930532E+02  0.00000000000E+00 0. -1.
<mgrwt>
<rscale>  1 0.84269535E+02</rscale>
<asrwt>0</asrwt>
<pdfrwt beam="1">  1       21 0.75412474E-03 0.84269535E+02</pdfrwt>
<pdfrwt beam="2">  1        2 0.12054769E+00 0.84269535E+02</pdfrwt>
<totfact> 0.25018880E+06</totfact>
</mgrwt>
</event>
<event>
 6    2  0.1372363E+002  0.8429423E+02  0.7546771E-02  0.1317289E+00
         21   -1    0    0  501  502  0.00000000000E+00  0.00000000000E+00  0.45493621020E+02  0.45493621020E+02  0.00000000000E+00 0.  1.
          2   -1    0    0  502    0 -0.00000000000E+00 -0.00000000000E+00 -0.70153778565E+02  0.70153778565E+02  0.00000000000E+00 0. -1.
         24    2    1    2    0    0 -0.20628069413E+02  0.28443798188E+01 -0.36315483327E+02  0.91784156652E+02  0.81681756462E+02 0.  0.
        -13    1    3    3    0    0  0.21257437652E+02 -0.35856089386E+01  0.14225765261E+02  0.25828427057E+02  0.00000000000E+00 0.  1.
         14    1    3    3    0    0 -0.41885507065E+02  0.64299887574E+01 -0.50541248588E+02  0.65955729594E+02  0.00000000000E+00 0. -1.
          1    1    1    2  501    0  0.20628069413E+02 -0.28443798188E+01  0.11655325782E+02  0.23863242934E+02  0.00000000000E+00 0. -1.
<mgrwt>
<rscale>  1 0.84294229E+02</rscale>
<asrwt>0</asrwt>
<pdfrwt beam="1">  1       21 0.69990187E-02 0.84294229E+02</pdfrwt>
<pdfrwt beam="2">  1        2 0.10792889E-01 0.84294229E+02</pdfrwt>
<totfact> 0.98421162E+05</totfact>
</mgrwt>
</event>
<event>
 6    2  0.1372363E+002  0.1254367E+03  0.7546771E-02  0.1234388E+00
         21   -1    0    0  501  502  0.00000000000E+00  0.00000000000E+00  0.23207960536E+03  0.23207960536E+03  0.00000000000E+00 0.  1.
         -3   -1    0    0    0  501 -0.00000000000E+00 -0.00000000000E+00 -0.55551709999E+02  0.55551709999E+02  0.00000000000E+00 0.  1.
         24    2    1    2    0    0  0.57509114287E+02  0.76513666948E+02  0.67126156223E+02  0.14226839030E+03  0.81072403274E+02 0.  0.
        -11    1    3    3    0    0  0.69556392746E+02  0.28661745616E+02  0.48584436861E+02  0.89554647778E+02  0.00000000000E+00 0.  1.
         12    1    3    3    0    0 -0.12047278459E+02  0.47851921333E+02  0.18541719362E+02  0.52713742519E+02  0.00000000000E+00 0. -1.
         -4    1    1    2    0  502 -0.57509114287E+02 -0.76513666948E+02  0.10940173914E+03  0.14536292506E+03  0.00000000000E+00 0.  1.
<mgrwt>
<rscale>  1 0.12543673E+03</rscale>
<asrwt>0</asrwt>
<pdfrwt beam="1">  1       21 0.35704554E-01 0.12543673E+03</pdfrwt>
<pdfrwt beam="2">  1       -3 0.85464170E-02 0.12543673E+03</pdfrwt>
<totfact> 0.34564121E+04</totfact>
</mgrwt>
</event>
<event>
 6    2  0.1372363E+002  0.8861821E+02  0.7546771E-02  0.1306233E+00
          2   -1    0    0  502    0 -0.00000000000E+00  0.00000000000E+00  0.18356893800E+04  0.18356893800E+04  0.00000000000E+00 0. -1.
         21   -1    0    0  501  502  0.00000000000E+00 -0.00000000000E+00 -0.24258346961E+01  0.24258346961E+01  0.00000000000E+00 0. -1.
         24    2    1    2    0    0  0.29300923145E+02  0.24787845291E+02  0.15067566741E+04  0.15093604150E+04  0.79876192272E+02 0.  0.
        -11    1    3    3    0    0 -0.21902166017E+02 -0.98180135352E+01  0.61293845739E+03  0.61340822526E+03  0.00000000000E+00 0.  1.
         12    1    3    3    0    0  0.51203089161E+02  0.34605858826E+02  0.89381821669E+03  0.89595218973E+03  0.00000000000E+00 0. -1.
          1    1    1    2  501    0 -0.29300923145E+02 -0.24787845291E+02  0.32650687119E+03  0.32875479967E+03  0.00000000000E+00 0. -1.
<mgrwt>
<rscale>  1 0.88618212E+02</rscale>
<asrwt>0</asrwt>
<pdfrwt beam="1">  1       21 0.37320681E-03 0.88618212E+02</pdfrwt>
<pdfrwt beam="2">  1        2 0.28241264E+00 0.88618212E+02</pdfrwt>
<totfact> 0.19758270E+06</totfact>
</mgrwt>
</event>
<event>
 6    2  0.1372363E+002  0.9035429E+02  0.7546771E-02  0.1301996E+00
         -3   -1    0    0    0  501 -0.00000000000E+00  0.00000000000E+00  0.19154348442E+03  0.19154348442E+03  0.00000000000E+00 0.  1.
         21   -1    0    0  501  502  0.00000000000E+00 -0.00000000000E+00 -0.30035852326E+02  0.30035852326E+02  0.00000000000E+00 0.  1.
         24    2    1    2    0    0 -0.15514906436E+02  0.37125779263E+02  0.15692986629E+03  0.18108252517E+03  0.80900322494E+02 0.  0.
        -13    1    3    3    0    0 -0.20910273345E+02  0.17329827736E+01  0.13985029373E+03  0.14141551336E+03  0.00000000000E+00 0.  1.
         14    1    3    3    0    0  0.53953669090E+01  0.35392796489E+02  0.17079572560E+02  0.39667011814E+02  0.00000000000E+00 0. -1.
         -4    1    1    2    0  502  0.15514906436E+02 -0.37125779263E+02  0.45777657953E+01  0.40496811569E+02  0.00000000000E+00 0.  1.
<mgrwt>
<rscale>  1 0.90354291E+02</rscale>
<asrwt>0</asrwt>
<pdfrwt beam="1">  1       21 0.46209005E-02 0.90354291E+02</pdfrwt>
<pdfrwt beam="2">  1       -3 0.29468228E-01 0.90354291E+02</pdfrwt>
<totfact> 0.15299297E+05</totfact>
</mgrwt>
</event>
<event>
 6    2  0.1372363E+002  0.8180097E+02  0.7546771E-02  0.1324017E+00
          2   -1    0    0  502    0 -0.00000000000E+00  0.00000000000E+00  0.16402849901E+03  0.16402849901E+03  0.00000000000E+00 0. -1.
         21   -1    0    0  501  502  0.00000000000E+00 -0.00000000000E+00 -0.19123245856E+02  0.19123245856E+02  0.00000000000E+00 0.  1.
         24    2    1    2    0    0  0.12255755709E+02 -0.18545085158E+02  0.13699210648E+03  0.15955637198E+03  0.78722772246E+02 0.  0.
        -13    1    3    3    0    0  0.82874431155E+01 -0.16064140708E+02 -0.39781228287E+01  0.18508478903E+02  0.00000000000E+00 0.  1.
         14    1    3    3    0    0  0.39683125933E+01 -0.24809444507E+01  0.14097022931E+03  0.14104789307E+03  0.00000000000E+00 0. -1.
          1    1    1    2  501    0 -0.12255755709E+02  0.18545085158E+02  0.79131466798E+01  0.23595372892E+02  0.00000000000E+00 0. -1.
<mgrwt>
<rscale>  1 0.81800969E+02</rscale>
<asrwt>0</asrwt>
<pdfrwt beam="1">  1       21 0.29420379E-02 0.81800969E+02</pdfrwt>
<pdfrwt beam="2">  1        2 0.25235153E-01 0.81800969E+02</pdfrwt>
<totfact> 0.15606473E+06</totfact>
</mgrwt>
</event>
<event>
 6    2  0.1372363E+002  0.8593303E+02  0.7546771E-02  0.1313010E+00
         21   -1    0    0  501  502  0.00000000000E+00  0.00000000000E+00  0.40526949798E+01  0.40526949798E+01  0.00000000000E+00 0. -1.
          2   -1    0    0  502    0 -0.00000000000E+00 -0.00000000000E+00 -0.14363373600E+04  0.14363373600E+04  0.00000000000E+00 0. -1.
         24    2    1    2    0    0  0.25551856099E+02  0.18378376560E+02 -0.13425159552E+04  0.13452633850E+04  0.79961384638E+02 0.  0.
        -11    1    3    3    0    0  0.37951383552E+02  0.25622630799E+02 -0.39603402228E+03  0.39867251413E+03  0.00000000000E+00 0.  1.
         12    1    3    3    0    0 -0.12399527454E+02 -0.72442542394E+01 -0.94648193288E+03  0.94659087084E+03  0.00000000000E+00 0. -1.
          1    1    1    2  501    0 -0.25551856099E+02 -0.18378376560E+02 -0.89768709838E+02  0.95126669978E+02  0.00000000000E+00 0. -1.
<mgrwt>
<rscale>  1 0.85933027E+02</rscale>
<asrwt>0</asrwt>
<pdfrwt beam="1">  1       21 0.62349163E-03 0.85933027E+02</pdfrwt>
<pdfrwt beam="2">  1        2 0.22097494E+00 0.85933027E+02</pdfrwt>
<totfact> 0.14302391E+06</totfact>
</mgrwt>
</event>
<event>
 6    2  0.1372363E+002  0.9022904E+02  0.7546771E-02  0.1302298E+00
         -3   -1    0    0    0  501 -0.00000000000E+00  0.00000000000E+00  0.12262772916E+03  0.12262772916E+03  0.00000000000E+00 0.  1.
         21   -1    0    0  501  502  0.00000000000E+00 -0.00000000000E+00 -0.35988280830E+02  0.35988280830E+02  0.00000000000E+00 0.  1.
         24    2    1    2    0    0  0.40501765941E+01  0.41331899902E+02  0.49571956510E+02  0.10294978298E+03  0.80103364868E+02 0.  0.
        -13    1    3    3    0    0 -0.15783854671E+02  0.57929960033E+02  0.48296453717E+02  0.77055549958E+02  0.00000000000E+00 0.  1.
         14    1    3    3    0    0  0.19834031265E+02 -0.16598060131E+02  0.12755027925E+01  0.25894233020E+02  0.00000000000E+00 0. -1.
         -4    1    1    2    0  502 -0.40501765941E+01 -0.41331899902E+02  0.37067491822E+02  0.55666227013E+02  0.00000000000E+00 0.  1.
<mgrwt>
<rscale>  1 0.90229036E+02</rscale>
<asrwt>0</asrwt>
<pdfrwt beam="1">  1       21 0.55366587E-02 0.90229036E+02</pdfrwt>
<pdfrwt beam="2">  1       -3 0.18865804E-01 0.90229036E+02</pdfrwt>
<totfact> 0.25015599E+05</totfact>
</mgrwt>
</event>
<event>
 6    2  0.1372363E+002  0.8365602E+02  0.7546771E-02  0.1318985E+00
          2   -1    0    0  502    0 -0.00000000000E+00  0.00000000000E+00  0.21292311375E+04  0.21292311375E+04  0.00000000000E+00 0. -1.
         21   -1    0    0  501  502  0.00000000000E+00 -0.00000000000E+00 -0.30867261360E+01  0.30867261360E+01  0.00000000000E+00 0.  1.
         24    2    1    2    0    0 -0.21189551901E+02  0.85313284759E+01  0.20702024156E+04  0.20718919788E+04  0.80477011180E+02 0.  0.
        -13    1    3    3    0    0 -0.42646288411E+02  0.27295564008E+02  0.97023763687E+03  0.97155793740E+03  0.00000000000E+00 0.  1.
         14    1    3    3    0    0  0.21456736510E+02 -0.18764235532E+02  0.10999647788E+04  0.11003340414E+04  0.00000000000E+00 0. -1.
          1    1    1    2  501    0  0.21189551901E+02 -0.85313284759E+01  0.55941995733E+02  0.60425884867E+02  0.00000000000E+00 0. -1.
<mgrwt>
<rscale>  1 0.83656022E+02</rscale>
<asrwt>0</asrwt>
<pdfrwt beam="1">  1       21 0.47488265E-03 0.83656022E+02</pdfrwt>
<pdfrwt beam="2">  1        2 0.32757285E+00 0.83656022E+02</pdfrwt>
<totfact> 0.97195330E+05</totfact>
</mgrwt>
</event>
<event>
 6    2  0.1372363E+002  0.8901946E+02  0.7546771E-02  0.1305244E+00
          2   -1    0    0  502    0 -0.00000000000E+00  0.00000000000E+00  0.23528595299E+04  0.23528595299E+04  0.00000000000E+00 0. -1.
         21   -1    0    0  501  502  0.00000000000E+00 -0.00000000000E+00 -0.18152419320E+01  0.18152419320E+01  0.00000000000E+00 0.  1.
         24    2    1    2    0    0  0.22771472903E+02 -0.90013987755E+01  0.21872101375E+04  0.21890209339E+04  0.85585620087E+02 0.  0.
        -11    1    3    3    0    0 -0.12643394650E+02 -0.32853087316E+02  0.48519998898E+03  0.48647529236E+03  0.00000000000E+00 0.  1.
         12    1    3    3    0    0  0.35414867553E+02  0.23851688541E+02  0.17020101485E+04  0.17025456415E+04  0.00000000000E+00 0. -1.
          1    1    1    2  501    0 -0.22771472903E+02  0.90013987755E+01  0.16383415051E+03  0.16565383796E+03  0.00000000000E+00 0. -1.
<mgrwt>
<rscale>  1 0.89019456E+02</rscale>
<asrwt>0</asrwt>
<pdfrwt beam="1">  1       21 0.27926987E-03 0.89019456E+02</pdfrwt>
<pdfrwt beam="2">  1        2 0.36197595E+00 0.89019456E+02</pdfrwt>
<totfact> 0.16792883E+06</totfact>
</mgrwt>
</event>
<event>
 6    2  0.1372363E+002  0.8224574E+02  0.7546771E-02  0.1322797E+00
         -3   -1    0    0    0  501 -0.00000000000E+00  0.00000000000E+00  0.10943330796E+03  0.10943330796E+03  0.00000000000E+00 0.  1.
         21   -1    0    0  501  502  0.00000000000E+00 -0.00000000000E+00 -0.26786424414E+02  0.26786424414E+02  0.00000000000E+00 0. -1.
         24    2    1    2    0    0 -0.21655639402E+01 -0.24719253453E+02  0.71649463787E+02  0.10907798594E+03  0.78413201671E+02 0.  0.
        -13    1    3    3    0    0 -0.72733441566E+01  0.27632066851E+02  0.33891847367E+02  0.44329335339E+02  0.00000000000E+00 0.  1.
         14    1    3    3    0    0  0.51077802164E+01 -0.52351320304E+02  0.37757616421E+02  0.64748650597E+02  0.00000000000E+00 0. -1.
         -4    1    1    2    0  502  0.21655639402E+01  0.24719253453E+02  0.10997419761E+02  0.27141746441E+02  0.00000000000E+00 0.  1.
<mgrwt>
<rscale>  1 0.82245738E+02</rscale>
<asrwt>0</asrwt>
<pdfrwt beam="1">  1       21 0.41209884E-02 0.82245738E+02</pdfrwt>
<pdfrwt beam="2">  1       -3 0.16835893E-01 0.82245738E+02</pdfrwt>
<totfact> 0.48864607E+05</totfact>
</mgrwt>
</event>
<event>
 6    2  0.1372363E+002  0.8436013E+02  0.7546771E-02  0.1317114E+00
          2   -1    0    0  502    0 -0.00000000000E+00  0.00000000000E+00  0.27262839425E+04  0.27262839425E+04  0.00000000000E+00 0. -1.
         21   -1    0    0  501  502  0.00000000000E+00 -0.00000000000E+00 -0.10534864129E+01  0.10534864129E+01  0.00000000000E+00 0.  1.
         24    2    1    2    0    0  0.44139163566E-01 -0.22600048422E+02  0.22181070752E+04  0.22197107082E+04  0.81276484415E+02 0.  0.
        -11    1    3    3    0    0  0.59942037040E+00 -0.48186719384E+02  0.85048829411E+03  0.85185248585E+03  0.00000000000E+00 0.  1.
         12    1    3    3    0    0 -0.55528120683E+00  0.25586670963E+02  0.13676187811E+04  0.13678582224E+04  0.00000000000E+00 0. -1.
          1    1    1    2  501    0 -0.44139163566E-01  0.22600048422E+02  0.50712338082E+03  0.50762672064E+03  0.00000000000E+00 0. -1.
<mgrwt>
<rscale>  1 0.84360127E+02</rscale>
<asrwt>0</asrwt>
<pdfrwt beam="1">  1       21 0.16207702E-03 0.84360127E+02</pdfrwt>
<pdfrwt beam="2">  1        2 0.41942265E+00 0.84360127E+02</pdfrwt>
<totfact> 0.24065690E+06</totfact>
</mgrwt>
</event>
<event>
 6    2  0.1372363E+002  0.8925593E+02  0.7546771E-02  0.1304664E+00
          2   -1    0    0  502    0 -0.00000000000E+00  0.00000000000E+00  0.18819508090E+04  0.18819508090E+04  0.00000000000E+00 0. -1.
         21   -1    0    0  501  502  0.00000000000E+00 -0.00000000000E+00 -0.96235297823E+01  0.96235297823E+01  0.00000000000E+00 0. -1.
         24    2    1    2    0    0  0.32570695195E+02 -0.20010980371E+02  0.18380932292E+04  0.18402590418E+04  0.80655639754E+02 0.  0.
        -11    1    3    3    0    0 -0.10708824231E+01 -0.33710960710E+02  0.32811078877E+03  0.32983975711E+03  0.00000000000E+00 0.  1.
         12    1    3    3    0    0  0.33641577619E+02  0.13699980339E+02  0.15099824405E+04  0.15104192847E+04  0.00000000000E+00 0. -1.
          1    1    1    2  501    0 -0.32570695195E+02  0.20010980371E+02  0.34234049974E+02  0.51315296925E+02  0.00000000000E+00 0. -1.
<mgrwt>
<rscale>  1 0.89255934E+02</rscale>
<asrwt>0</asrwt>
<pdfrwt beam="1">  1       21 0.14805445E-02 0.89255934E+02</pdfrwt>
<pdfrwt beam="2">  1        2 0.28953060E+00 0.89255934E+02</pdfrwt>
<totfact> 0.22150855E+05</totfact>
</mgrwt>
</event>
<event>
 6    2  0.1372363E+002  0.8632379E+02  0.7546771E-02  0.1312007E+00
          2   -1    0    0  502    0 -0.00000000000E+00  0.00000000000E+00  0.21426951275E+02  0.21426951275E+02  0.00000000000E+00 0. -1.
         21   -1    0    0  501  502  0.00000000000E+00 -0.00000000000E+00 -0.49487391320E+03  0.49487391320E+03  0.00000000000E+00 0. -1.
         24    2    1    2    0    0 -0.27705368341E+02  0.73203084400E+01 -0.68125400897E+02  0.10996757494E+03  0.81428637101E+02 0.  0.
        -11    1    3    3    0    0 -0.53111877453E+02  0.82699019175E+01 -0.65009022953E+02  0.84353043037E+02  0.00000000000E+00 0.  1.
         12    1    3    3    0    0  0.25406509113E+02 -0.94959347749E+00 -0.31163779440E+01  0.25614531902E+02  0.00000000000E+00 0. -1.
          1    1    1    2  501    0  0.27705368341E+02 -0.73203084400E+01 -0.40532156103E+03  0.40633328954E+03  0.00000000000E+00 0. -1.
<mgrwt>
<rscale>  1 0.86323793E+02</rscale>
<asrwt>0</asrwt>
<pdfrwt beam="1">  1       21 0.76134440E-01 0.86323793E+02</pdfrwt>
<pdfrwt beam="2">  1        2 0.32964544E-02 0.86323793E+02</pdfrwt>
<totfact> 0.49694953E+04</totfact>
</mgrwt>
</event>
<event>
 6    2  0.1372363E+002  0.9237861E+02  0.7546771E-02  0.1297192E+00
          2   -1    0    0  502    0 -0.00000000000E+00  0.00000000000E+00  0.18290709594E+03  0.18290709594E+03  0.00000000000E+00 0. -1.
         21   -1    0    0  501  502  0.00000000000E+00 -0.00000000000E+00 -0.30001963611E+02  0.30001963611E+02  0.00000000000E+00 0. -1.
         24    2    1    2    0    0  0.33235930827E+02 -0.18674996843E+02  0.14800998234E+03  0.17447281235E+03  0.84145259962E+02 0.  0.
        -11    1    3    3    0    0  0.61262046154E+01 -0.11202681837E+02 -0.85764694531E+01  0.15381361826E+02  0.00000000000E+00 0.  1.
         12    1    3    3    0    0  0.27109726211E+02 -0.74723150061E+01  0.15658645179E+03  0.15909145053E+03  0.00000000000E+00 0. -1.
          1    1    1    2  501    0 -0.33235930827E+02  0.18674996843E+02  0.48951499883E+01  0.38436247195E+02  0.00000000000E+00 0. -1.
<mgrwt>
<rscale>  1 0.92378609E+02</rscale>
<asrwt>0</asrwt>
<pdfrwt beam="1">  1       21 0.46156868E-02 0.92378609E+02</pdfrwt>
<pdfrwt beam="2">  1        2 0.28139553E-01 0.92378609E+02</pdfrwt>
<totfact> 0.67222040E+05</totfact>
</mgrwt>
</event>
<event>
 6    2  0.1372363E+002  0.8860440E+02  0.7546771E-02  0.1306267E+00
          2   -1    0    0  502    0 -0.00000000000E+00  0.00000000000E+00  0.31385691300E+02  0.31385691300E+02  0.00000000000E+00 0. -1.
         21   -1    0    0  501  502  0.00000000000E+00 -0.00000000000E+00 -0.23654617017E+03  0.23654617017E+03  0.00000000000E+00 0. -1.
         24    2    1    2    0    0 -0.25689329880E+02  0.26497950224E+02 -0.37424803460E+02  0.96183965294E+02  0.80552195686E+02 0.  0.
        -13    1    3    3    0    0  0.17735511529E+02  0.14512180379E+02 -0.45003670165E+02  0.50502297738E+02  0.00000000000E+00 0.  1.
         14    1    3    3    0    0 -0.43424841409E+02  0.11985769845E+02  0.75788667045E+01  0.45681667556E+02  0.00000000000E+00 0. -1.
          1    1    1    2  501    0  0.25689329880E+02 -0.26497950224E+02 -0.16773567541E+03  0.17174789617E+03  0.00000000000E+00 0. -1.
<mgrwt>
<rscale>  1 0.88604398E+02</rscale>
<asrwt>0</asrwt>
<pdfrwt beam="1">  1       21 0.36391718E-01 0.88604398E+02</pdfrwt>
<pdfrwt beam="2">  1        2 0.48285680E-02 0.88604398E+02</pdfrwt>
<totfact> 0.13832688E+05</totfact>
</mgrwt>
</event>
<event>
 6    2  0.1372363E+002  0.8493684E+02  0.7546771E-02  0.1315598E+00
         21   -1    0    0  501  502  0.00000000000E+00  0.00000000000E+00  0.22849552723E+02  0.22849552723E+02  0.00000000000E+00 0. -1.
          2   -1    0    0  502    0 -0.00000000000E+00 -0.00000000000E+00 -0.18434095889E+03  0.18434095889E+03  0.00000000000E+00 0. -1.
         24    2    1    2    0    0 -0.14209923992E+02 -0.25952635674E+02 -0.67020042644E+02  0.10819404822E+03  0.79616610804E+02 0.  0.
        -13    1    3    3    0    0  0.31724241135E+02  0.77736468456E+00 -0.23140499794E+02  0.39274858398E+02  0.00000000000E+00 0.  1.
         14    1    3    3    0    0 -0.45934165127E+02 -0.26730000359E+02 -0.43879542850E+02  0.68919189822E+02  0.00000000000E+00 0. -1.
          1    1    1    2  501    0  0.14209923992E+02  0.25952635674E+02 -0.94471363519E+02  0.98996463389E+02  0.00000000000E+00 0. -1.
<mgrwt>
<rscale>  1 0.84936835E+02</rscale>
<asrwt>0</asrwt>
<pdfrwt beam="1">  1       21 0.35153159E-02 0.84936835E+02</pdfrwt>
<pdfrwt beam="2">  1        2 0.28360147E-01 0.84936835E+02</pdfrwt>
<totfact> 0.10345535E+06</totfact>
</mgrwt>
</event>
<event>
 6    2  0.1372363E+002  0.8149036E+02  0.7546771E-02  0.1324874E+00
         21   -1    0    0  501  502  0.00000000000E+00  0.00000000000E+00  0.25399533132E+03  0.25399533132E+03  0.00000000000E+00 0. -1.
         -1   -1    0    0    0  501 -0.00000000000E+00 -0.00000000000E+00 -0.17647780859E+02  0.17647780859E+02  0.00000000000E+00 0.  1.
         24    2    1    2    0    0 -0.83213871806E+01  0.19531193361E+02  0.81164462813E+02  0.11501455894E+03  0.78676335356E+02 0.  0.
        -11    1    3    3    0    0  0.17093594502E+02 -0.15594551728E+02  0.16197418004E+00  0.23138868863E+02  0.00000000000E+00 0.  1.
         12    1    3    3    0    0 -0.25414981683E+02  0.35125745089E+02  0.81002488633E+02  0.91875690074E+02  0.00000000000E+00 0. -1.
         -2    1    1    2    0  502  0.83213871806E+01 -0.19531193361E+02  0.15518308765E+03  0.15662855325E+03  0.00000000000E+00 0.  1.
<mgrwt>
<rscale>  1 0.81490360E+02</rscale>
<asrwt>0</asrwt>
<pdfrwt beam="1">  1       21 0.39076202E-01 0.81490360E+02</pdfrwt>
<pdfrwt beam="2">  1       -1 0.27150434E-02 0.81490360E+02</pdfrwt>
<totfact> 0.22746476E+05</totfact>
</mgrwt>
</event>
<event>
 6    2  0.1372363E+002  0.8374510E+02  0.7546771E-02  0.1318747E+00
          4   -1    0    0  502    0 -0.00000000000E+00  0.00000000000E+00  0.22907444388E+01  0.22907444388E+01  0.00000000000E+00 0. -1.
         21   -1    0    0  501  502  0.00000000000E+00 -0.00000000000E+00 -0.15212287318E+04  0.15212287318E+04  0.00000000000E+00 0.  1.
         24    2    1    2    0    0  0.10028518818E+02 -0.19551009839E+02 -0.82627310069E+03  0.83050615861E+03  0.80811072259E+02 0.  0.
        -11    1    3    3    0    0  0.29286544412E+02 -0.11898511977E+02 -0.76813614072E+03  0.76878632074E+03  0.00000000000E+00 0.  1.
         12    1    3    3    0    0 -0.19258025595E+02 -0.76524978619E+01 -0.58136959967E+02  0.61719837877E+02  0.00000000000E+00 0. -1.
          3    1    1    2  501    0 -0.10028518818E+02  0.19551009839E+02 -0.69266488667E+03  0.69301331762E+03  0.00000000000E+00 0. -1.
<mgrwt>
<rscale>  1 0.83745105E+02</rscale>
<asrwt>0</asrwt>
<pdfrwt beam="1">  1       21 0.23403438E+00 0.83745105E+02</pdfrwt>
<pdfrwt beam="2">  1        4 0.35242343E-03 0.83745105E+02</pdfrwt>
<totfact> 0.47262822E+04</totfact>
</mgrwt>
</event>
<event>
 6    2  0.1372363E+002  0.8438392E+02  0.7546771E-02  0.1317052E+00
         21   -1    0    0  501  502  0.00000000000E+00  0.00000000000E+00  0.64237096590E+01  0.64237096590E+01  0.00000000000E+00 0. -1.
          2   -1    0    0  502    0 -0.00000000000E+00 -0.00000000000E+00 -0.15806301508E+04  0.15806301508E+04  0.00000000000E+00 0. -1.
         24    2    1    2    0    0  0.12131416603E+02 -0.23004151805E+02 -0.15474203959E+04  0.15497194998E+04  0.80276297921E+02 0.  0.
        -13    1    3    3    0    0 -0.20755729311E+02 -0.32577459131E+01 -0.12291273507E+03  0.12469544358E+03  0.00000000000E+00 0.  1.
         14    1    3    3    0    0  0.32887145915E+02 -0.19746405892E+02 -0.14245076608E+04  0.14250240562E+04  0.00000000000E+00 0. -1.
          1    1    1    2  501    0 -0.12131416603E+02  0.23004151805E+02 -0.26786045223E+02  0.37334360685E+02  0.00000000000E+00 0. -1.
<mgrwt>
<rscale>  1 0.84383922E+02</rscale>
<asrwt>0</asrwt>
<pdfrwt beam="1">  1       21 0.98826286E-03 0.84383922E+02</pdfrwt>
<pdfrwt beam="2">  1        2 0.24317391E+00 0.84383922E+02</pdfrwt>
<totfact> 0.59086877E+05</totfact>
</mgrwt>
</event>
<event>
 6    2  0.1372363E+002  0.8480518E+02  0.7546771E-02  0.1315943E+00
         -3   -1    0    0    0  501 -0.00000000000E+00  0.00000000000E+00  0.36024701010E+03  0.36024701010E+03  0.00000000000E+00 0.  1.
         21   -1    0    0  501  502  0.00000000000E+00 -0.00000000000E+00 -0.95047854542E+01  0.95047854542E+01  0.00000000000E+00 0.  1.
         24    2    1    2    0    0  0.29575953158E+02  0.69279214581E+01  0.22666248171E+03  0.24200784968E+03  0.79178188853E+02 0.  0.
        -13    1    3    3    0    0  0.19370513412E+02  0.43058651159E+02  0.12230129519E+03  0.13109870722E+03  0.00000000000E+00 0.  1.
         14    1    3    3    0    0  0.10205439746E+02 -0.36130729701E+02  0.10436118652E+03  0.11090914246E+03  0.00000000000E+00 0. -1.
         -4    1    1    2    0  502 -0.29575953158E+02 -0.69279214581E+01  0.12407974294E+03  0.12774394588E+03  0.00000000000E+00 0.  1.
<mgrwt>
<rscale>  1 0.84805181E+02</rscale>
<asrwt>0</asrwt>
<pdfrwt beam="1">  1       21 0.14622750E-02 0.84805181E+02</pdfrwt>
<pdfrwt beam="2">  1       -3 0.55422607E-01 0.84805181E+02</pdfrwt>
<totfact> 0.29036893E+05</totfact>
</mgrwt>
</event>
<event>
 6    2  0.1372363E+002  0.8588885E+02  0.7546771E-02  0.1313124E+00
         21   -1    0    0  501  502  0.00000000000E+00  0.00000000000E+00  0.39546649382E+03  0.39546649382E+03  0.00000000000E+00 0.  1.
          2   -1    0    0  502    0 -0.00000000000E+00 -0.00000000000E+00 -0.15804927484E+02  0.15804927484E+02  0.00000000000E+00 0. -1.
         24    2    1    2    0    0 -0.28574791077E+02  0.15731586288E+01  0.37180226016E+03  0.38159378314E+03  0.80980869078E+02 0.  0.
        -13    1    3    3    0    0 -0.19809126593E+02 -0.29027460377E+02  0.31085143941E+03  0.31283160380E+03  0.00000000000E+00 0.  1.
         14    1    3    3    0    0 -0.87656644836E+01  0.30600619006E+02  0.60950820750E+02  0.68762179339E+02  0.00000000000E+00 0. -1.
          1    1    1    2  501    0  0.28574791077E+02 -0.15731586288E+01  0.78593061662E+01  0.29677638157E+02  0.00000000000E+00 0. -1.
<mgrwt>
<rscale>  1 0.85888851E+02</rscale>
<asrwt>0</asrwt>
<pdfrwt beam="1">  1       21 0.60840992E-01 0.85888851E+02</pdfrwt>
<pdfrwt beam="2">  1        2 0.24315276E-02 0.85888851E+02</pdfrwt>
<totfact> 0.12039435E+05</totfact>
</mgrwt>
</event>
<event>
 6    2  0.1372363E+002  0.8351156E+02  0.7546771E-02  0.1319371E+00
         21   -1    0    0  501  502  0.00000000000E+00  0.00000000000E+00  0.39733646159E+02  0.39733646159E+02  0.00000000000E+00 0.  1.
         -3   -1    0    0    0  501 -0.00000000000E+00 -0.00000000000E+00 -0.71890069110E+02  0.71890069110E+02  0.00000000000E+00 0.  1.
         24    2    1    2    0    0  0.17033827378E+02  0.14238822863E+02 -0.18427512470E+02  0.85520490666E+02  0.80506433012E+02 0.  0.
        -11    1    3    3    0    0  0.28501082225E+02 -0.10928026052E+02  0.21223267160E+02  0.37177419361E+02  0.00000000000E+00 0.  1.
         12    1    3    3    0    0 -0.11467254847E+02  0.25166848916E+02 -0.39650779630E+02  0.48343071306E+02  0.00000000000E+00 0. -1.
         -4    1    1    2    0  502 -0.17033827378E+02 -0.14238822863E+02 -0.13728910481E+02  0.26103224603E+02  0.00000000000E+00 0.  1.
<mgrwt>
<rscale>  1 0.83511563E+02</rscale>
<asrwt>0</asrwt>
<pdfrwt beam="1">  1       21 0.61128687E-02 0.83511563E+02</pdfrwt>
<pdfrwt beam="2">  1       -3 0.11060011E-01 0.83511563E+02</pdfrwt>
<totfact> 0.51484802E+05</totfact>
</mgrwt>
</event>
<event>
 6    2  0.1372363E+002  0.1039622E+03  0.7546771E-02  0.1272178E+00
          2   -1    0    0  502    0 -0.00000000000E+00  0.00000000000E+00  0.57723948958E+02  0.57723948958E+02  0.00000000000E+00 0. -1.
         21   -1    0    0  501  502  0.00000000000E+00 -0.00000000000E+00 -0.13032821664E+03  0.13032821664E+03  0.00000000000E+00 0. -1.
         24    2    1    2    0    0 -0.14417415769E+02 -0.60299828429E+02 -0.71256254112E+02  0.12603806779E+03  0.83451839981E+02 0.  0.
        -11    1    3    3    0    0 -0.47801932095E+01 -0.35301187083E+01 -0.68111628717E+02  0.68370358721E+02  0.00000000000E+00 0.  1.
         12    1    3    3    0    0 -0.96372225592E+01 -0.56769709721E+02 -0.31446253959E+01  0.57667709070E+02  0.00000000000E+00 0. -1.
          1    1    1    2  501    0  0.14417415769E+02  0.60299828429E+02 -0.13480135671E+01  0.62014097806E+02  0.00000000000E+00 0. -1.
<mgrwt>
<rscale>  1 0.10396221E+03</rscale>
<asrwt>0</asrwt>
<pdfrwt beam="1">  1       21 0.20050495E-01 0.10396221E+03</pdfrwt>
<pdfrwt beam="2">  1        2 0.88806077E-02 0.10396221E+03</pdfrwt>
<totfact> 0.19980808E+05</totfact>
</mgrwt>
</event>
<event>
 6    2  0.1514106E+002  0.1203919E+03  0.7546771E-02  0.1242452E+00
         21   -1    0    0  501  502  0.00000000000E+00  0.00000000000E+00  0.41110958540E+02  0.41110958540E+02  0.00000000000E+00 0.  1.
         -1   -1    0    0    0  501 -0.00000000000E+00 -0.00000000000E+00 -0.28702322296E+03  0.28702322296E+03  0.00000000000E+00 0.  1.
         24    2    1    2    0    0  0.45951973427E+02 -0.76396267566E+02 -0.18288087853E+03  0.21895117381E+03  0.80908758633E+02 0.  0.
        -11    1    3    3    0    0  0.50865845275E+02 -0.54993017694E+02 -0.18217990331E+03  0.19697990603E+03  0.00000000000E+00 0.  1.
         12    1    3    3    0    0 -0.49138718489E+01 -0.21403249872E+02 -0.70097521761E+00  0.21971267781E+02  0.00000000000E+00 0. -1.
         -2    1    1    2    0  502 -0.45951973427E+02  0.76396267566E+02 -0.63031385891E+02  0.10918300769E+03  0.00000000000E+00 0.  1.
<mgrwt>
<rscale>  1 0.12039186E+03</rscale>
<asrwt>0</asrwt>
<pdfrwt beam="1">  1       21 0.63247631E-02 0.12039186E+03</pdfrwt>
<pdfrwt beam="2">  1       -1 0.44157417E-01 0.12039186E+03</pdfrwt>
<totfact> 0.84211298E+04</totfact>
</mgrwt>
</event>
<event>
 6    2  0.1372363E+002  0.1210731E+03  0.7546771E-02  0.1241337E+00
         21   -1    0    0  501  502  0.00000000000E+00  0.00000000000E+00  0.12114289733E+02  0.12114289733E+02  0.00000000000E+00 0.  1.
          2   -1    0    0  502    0 -0.00000000000E+00 -0.00000000000E+00 -0.12741759017E+04  0.12741759017E+04  0.00000000000E+00 0. -1.
         24    2    1    2    0    0  0.76422044566E+02 -0.49997732371E+02 -0.10269921723E+04  0.10341042608E+04  0.79489610179E+02 0.  0.
        -13    1    3    3    0    0  0.18255960069E+02  0.18990595724E+02 -0.13401932524E+03  0.13658368256E+03  0.00000000000E+00 0.  1.
         14    1    3    3    0    0  0.58166084498E+02 -0.68988328094E+02 -0.89297284702E+03  0.89752057821E+03  0.00000000000E+00 0. -1.
          1    1    1    2  501    0 -0.76422044566E+02  0.49997732371E+02 -0.23506943969E+03  0.25218593064E+03  0.00000000000E+00 0. -1.
<mgrwt>
<rscale>  1 0.12107312E+03</rscale>
<asrwt>0</asrwt>
<pdfrwt beam="1">  1       21 0.18637373E-02 0.12107312E+03</pdfrwt>
<pdfrwt beam="2">  1        2 0.19602702E+00 0.12107312E+03</pdfrwt>
<totfact> 0.31707375E+05</totfact>
</mgrwt>
</event>
<event>
 6    2  0.1372363E+002  0.7677956E+02  0.7546771E-02  0.1338447E+00
         21   -1    0    0  501  502  0.00000000000E+00  0.00000000000E+00  0.75276561536E+02  0.75276561536E+02  0.00000000000E+00 0.  1.
          2   -1    0    0  502    0 -0.00000000000E+00 -0.00000000000E+00 -0.46230539837E+02  0.46230539837E+02  0.00000000000E+00 0. -1.
         24    2    1    2    0    0  0.81451363024E+01 -0.24094848183E+02  0.47318575546E+02  0.90189515603E+02  0.72444435111E+02 0.  0.
        -13    1    3    3    0    0 -0.26800267351E+02 -0.11564983201E+02  0.44155476621E+02  0.52931174956E+02  0.00000000000E+00 0.  1.
         14    1    3    3    0    0  0.34945403653E+02 -0.12529864982E+02  0.31630989247E+01  0.37258340647E+02  0.00000000000E+00 0. -1.
          1    1    1    2  501    0 -0.81451363024E+01  0.24094848183E+02 -0.18272553847E+02  0.31317585770E+02  0.00000000000E+00 0. -1.
<mgrwt>
<rscale>  1 0.76779562E+02</rscale>
<asrwt>0</asrwt>
<pdfrwt beam="1">  1       21 0.11581009E-01 0.76779562E+02</pdfrwt>
<pdfrwt beam="2">  1        2 0.71123907E-02 0.76779562E+02</pdfrwt>
<totfact> 0.68370021E+05</totfact>
</mgrwt>
</event>
<event>
 6    2  0.1372363E+002  0.9397101E+02  0.7546771E-02  0.1293511E+00
         -3   -1    0    0    0  501 -0.00000000000E+00  0.00000000000E+00  0.10335685432E+03  0.10335685432E+03  0.00000000000E+00 0.  1.
         21   -1    0    0  501  502  0.00000000000E+00 -0.00000000000E+00 -0.52736030007E+02  0.52736030007E+02  0.00000000000E+00 0.  1.
         24    2    1    2    0    0 -0.45903533690E+02 -0.40577601239E+01  0.97111677154E+01  0.94471460898E+02  0.81895972571E+02 0.  0.
        -11    1    3    3    0    0 -0.47755310416E+02 -0.31737405398E+02  0.25274121340E+02  0.62662698504E+02  0.00000000000E+00 0.  1.
         12    1    3    3    0    0  0.18517767256E+01  0.27679645274E+02 -0.15562953625E+02  0.31808762394E+02  0.00000000000E+00 0. -1.
         -4    1    1    2    0  502  0.45903533690E+02  0.40577601239E+01  0.40909656596E+02  0.61621423428E+02  0.00000000000E+00 0.  1.
<mgrwt>
<rscale>  1 0.93971007E+02</rscale>
<asrwt>0</asrwt>
<pdfrwt beam="1">  1       21 0.81132354E-02 0.93971007E+02</pdfrwt>
<pdfrwt beam="2">  1       -3 0.15901055E-01 0.93971007E+02</pdfrwt>
<totfact> 0.17691139E+05</totfact>
</mgrwt>
</event>
<event>
 6    2  0.1372363E+002  0.1169758E+03  0.7546771E-02  0.1248171E+00
         21   -1    0    0  501  502  0.00000000000E+00  0.00000000000E+00  0.32516862787E+01  0.32516862787E+01  0.00000000000E+00 0. -1.
          2   -1    0    0  502    0 -0.00000000000E+00 -0.00000000000E+00 -0.31275914793E+04  0.31275914793E+04  0.00000000000E+00 0. -1.
         24    2    1    2    0    0  0.79940364453E+02  0.24807023321E+02 -0.16638521928E+04  0.16679590688E+04  0.81715881904E+02 0.  0.
        -13    1    3    3    0    0  0.22050521912E+02  0.47052192484E+02 -0.94910639654E+03  0.95052779353E+03  0.00000000000E+00 0.  1.
         14    1    3    3    0    0  0.57889842541E+02 -0.22245169163E+02 -0.71474579626E+03  0.71743127524E+03  0.00000000000E+00 0. -1.
          1    1    1    2  501    0 -0.79940364453E+02 -0.24807023321E+02 -0.14604876002E+04  0.14628840968E+04  0.00000000000E+00 0. -1.
<mgrwt>
<rscale>  1 0.11697579E+03</rscale>
<asrwt>0</asrwt>
<pdfrwt beam="1">  1       21 0.50026033E-03 0.11697579E+03</pdfrwt>
<pdfrwt beam="2">  1        2 0.48116706E+00 0.11697579E+03</pdfrwt>
<totfact> 0.26062174E+05</totfact>
</mgrwt>
</event>
<event>
 6    2  0.1372363E+002  0.1090390E+03  0.7546771E-02  0.1262360E+00
         21   -1    0    0  501  502  0.00000000000E+00  0.00000000000E+00  0.67064728869E+03  0.67064728869E+03  0.00000000000E+00 0.  1.
         -1   -1    0    0    0  501 -0.00000000000E+00 -0.00000000000E+00 -0.21739808052E+02  0.21739808052E+02  0.00000000000E+00 0.  1.
         24    2    1    2    0    0  0.77917461496E+01 -0.45983549316E+02  0.12282833587E+03  0.16424463048E+03  0.98561150722E+02 0.  0.
        -13    1    3    3    0    0  0.27432528880E+02 -0.38152698370E+01 -0.50634109239E+01  0.28155604324E+02  0.00000000000E+00 0.  1.
         14    1    3    3    0    0 -0.19640782730E+02 -0.42168279479E+02  0.12789174680E+03  0.13608902615E+03  0.00000000000E+00 0. -1.
         -2    1    1    2    0  502 -0.77917461496E+01  0.45983549316E+02  0.52607914477E+03  0.52814246627E+03  0.00000000000E+00 0.  1.
<mgrwt>
<rscale>  1 0.10903898E+03</rscale>
<asrwt>0</asrwt>
<pdfrwt beam="1">  1       21 0.10317649E+00 0.10903898E+03</pdfrwt>
<pdfrwt beam="2">  1       -1 0.33445864E-02 0.10903898E+03</pdfrwt>
<totfact> 0.21517493E+04</totfact>
</mgrwt>
</event>
<event>
 6    2  0.1372363E+002  0.9146395E+02  0.7546771E-02  0.1299345E+00
          2   -1    0    0  502    0 -0.00000000000E+00  0.00000000000E+00  0.55067192417E+02  0.55067192417E+02  0.00000000000E+00 0. -1.
         21   -1    0    0  501  502  0.00000000000E+00 -0.00000000000E+00 -0.90828106204E+02  0.90828106204E+02  0.00000000000E+00 0.  1.
         24    2    1    2    0    0  0.17905104532E+02 -0.31600839917E+02  0.46230944563E+01  0.91580715188E+02  0.83943126820E+02 0.  0.
        -13    1    3    3    0    0 -0.13480401302E+01  0.92094801201E+01 -0.32087386030E+02  0.33410059541E+02  0.00000000000E+00 0.  1.
         14    1    3    3    0    0  0.19253144662E+02 -0.40810320037E+02  0.36710480487E+02  0.58170655647E+02  0.00000000000E+00 0. -1.
          1    1    1    2  501    0 -0.17905104532E+02  0.31600839917E+02 -0.40384008243E+02  0.54314583433E+02  0.00000000000E+00 0. -1.
<mgrwt>
<rscale>  1 0.91463951E+02</rscale>
<asrwt>0</asrwt>
<pdfrwt beam="1">  1       21 0.13973555E-01 0.91463951E+02</pdfrwt>
<pdfrwt beam="2">  1        2 0.84718759E-02 0.91463951E+02</pdfrwt>
<totfact> 0.40257806E+05</totfact>
</mgrwt>
</event>
<event>
 6    2  0.1372363E+002  0.9171165E+02  0.7546771E-02  0.1298759E+00
         21   -1    0    0  501  502  0.00000000000E+00  0.00000000000E+00  0.10878456983E+02  0.10878456983E+02  0.00000000000E+00 0.  1.
          4   -1    0    0  502    0 -0.00000000000E+00 -0.00000000000E+00 -0.61763557883E+03  0.61763557883E+03  0.00000000000E+00 0. -1.
         24    2    1    2    0    0 -0.28963435580E+02  0.29877691426E+02 -0.20465829237E+03  0.22426779191E+03  0.81728017258E+02 0.  0.
        -13    1    3    3    0    0 -0.14552071232E+02  0.54795811816E+02 -0.92654183377E+02  0.10862385312E+03  0.00000000000E+00 0.  1.
         14    1    3    3    0    0 -0.14411364349E+02 -0.24918120391E+02 -0.11200410899E+03  0.11564393878E+03  0.00000000000E+00 0. -1.
          3    1    1    2  501    0  0.28963435580E+02 -0.29877691426E+02 -0.40209882948E+03  0.40424624391E+03  0.00000000000E+00 0. -1.
<mgrwt>
<rscale>  1 0.91711645E+02</rscale>
<asrwt>0</asrwt>
<pdfrwt beam="1">  1       21 0.16736079E-02 0.91711645E+02</pdfrwt>
<pdfrwt beam="2">  1        4 0.95020908E-01 0.91711645E+02</pdfrwt>
<totfact> 0.60183403E+04</totfact>
</mgrwt>
</event>
<event>
 6    2  0.1372363E+002  0.9840779E+02  0.7546771E-02  0.1283680E+00
          2   -1    0    0  502    0 -0.00000000000E+00  0.00000000000E+00  0.80666217691E+03  0.80666217691E+03  0.00000000000E+00 0. -1.
         21   -1    0    0  501  502  0.00000000000E+00 -0.00000000000E+00 -0.11102823037E+02  0.11102823037E+02  0.00000000000E+00 0.  1.
         24    2    1    2    0    0 -0.29528844171E+02  0.47868312158E+02  0.69999363553E+03  0.70687706341E+03  0.80751254146E+02 0.  0.
        -13    1    3    3    0    0 -0.37834627050E+02  0.92589526092E+01  0.13505544904E+03  0.14056017047E+03  0.00000000000E+00 0.  1.
         14    1    3    3    0    0  0.83057828787E+01  0.38609359549E+02  0.56493818649E+03  0.56631689294E+03  0.00000000000E+00 0. -1.
          1    1    1    2  501    0  0.29528844171E+02 -0.47868312158E+02  0.95565718342E+02  0.11088793654E+03  0.00000000000E+00 0. -1.
<mgrwt>
<rscale>  1 0.98407789E+02</rscale>
<asrwt>0</asrwt>
<pdfrwt beam="1">  1       21 0.17081273E-02 0.98407789E+02</pdfrwt>
<pdfrwt beam="2">  1        2 0.12410183E+00 0.98407789E+02</pdfrwt>
<totfact> 0.67864222E+05</totfact>
</mgrwt>
</event>
