<event>
 4    1  0.3541639E-005  0.4146933E+03  0.7818608E-02  0.1038807E+00
         -2   -1    0    0    0  501 -0.00000000000E+00  0.00000000000E+00  0.12927633003E+03  0.12927633005E+03  0.25500000000E-02 0. -1.
          2   -1    0    0  501    0  0.00000000000E+00 -0.00000000000E+00 -0.33256383346E+03  0.33256383347E+03  0.25500000000E-02 0.  1.
    5000001    1    1    2    0    0 -0.10593516388E+03 -0.48365021094E+02 -0.49333489273E+02  0.20789475071E+03  0.16500000000E+03 0.  0.
   -5000001    1    1    2    0    0  0.10593516388E+03  0.48365021094E+02 -0.15395401415E+03  0.25394541281E+03  0.16500000000E+03 0.  0.
<mgrwt>
<rscale>  0 0.41469329E+03</rscale>
<asrwt>0</asrwt>
<pdfrwt beam="1">  1        2 0.47509119E-01 0.41469329E+03</pdfrwt>
<pdfrwt beam="2">  1       -2 0.18468047E-01 0.41469329E+03</pdfrwt>
<totfact> 0.25729222E+03</totfact>
</mgrwt>
</event>
<event>
 4    1  0.3541639E-005  0.6056801E+03  0.7818608E-02  0.9893691E-01
          2   -1    0    0  501    0  0.00000000000E+00  0.00000000000E+00  0.12204543764E+04  0.12204543765E+04  0.25500000000E-02 0.  1.
         -2   -1    0    0    0  501 -0.00000000000E+00 -0.00000000000E+00 -0.75145865878E+02  0.75145865921E+02  0.25500000000E-02 0. -1.
    5000001    1    1    2    0    0  0.18583460032E+03  0.13042463775E+03  0.81600275424E+03  0.86291979914E+03  0.16500000000E+03 0.  0.
   -5000001    1    1    2    0    0 -0.18583460032E+03 -0.13042463775E+03  0.32930575633E+03  0.43268044324E+03  0.16500000000E+03 0.  0.
<mgrwt>
<rscale>  0 0.60568012E+03</rscale>
<asrwt>0</asrwt>
<pdfrwt beam="1">  1        2 0.17435060E+00 0.60568012E+03</pdfrwt>
<pdfrwt beam="2">  1       -2 0.10735125E-01 0.60568012E+03</pdfrwt>
<totfact> 0.12825687E+03</totfact>
</mgrwt>
</event>
<event>
 4    1  0.3541639E-005  0.3999846E+03  0.7818608E-02  0.1043785E+00
          2   -1    0    0  501    0  0.00000000000E+00  0.00000000000E+00  0.15920759880E+03  0.15920759882E+03  0.25500000000E-02 0.  1.
         -2   -1    0    0    0  501 -0.00000000000E+00 -0.00000000000E+00 -0.25122496840E+03  0.25122496841E+03  0.25500000000E-02 0. -1.
    5000001    1    1    2    0    0 -0.71358859339E+02  0.86806087157E+02 -0.33672150696E+02  0.20245048112E+03  0.16500000000E+03 0.  0.
   -5000001    1    1    2    0    0  0.71358859339E+02 -0.86806087157E+02 -0.58345218907E+02  0.20798208611E+03  0.16500000000E+03 0.  0.
<mgrwt>
<rscale>  0 0.39998462E+03</rscale>
<asrwt>0</asrwt>
<pdfrwt beam="1">  1        2 0.22743943E-01 0.39998462E+03</pdfrwt>
<pdfrwt beam="2">  1       -2 0.35889281E-01 0.39998462E+03</pdfrwt>
<totfact> 0.17686128E+03</totfact>
</mgrwt>
</event>
<event>
 4    1  0.3541639E-005  0.5300530E+03  0.7818608E-02  0.1006219E+00
          2   -1    0    0  501    0  0.00000000000E+00  0.00000000000E+00  0.26775961308E+04  0.26775961308E+04  0.25500000000E-02 0.  1.
         -2   -1    0    0    0  501 -0.00000000000E+00 -0.00000000000E+00 -0.26232133346E+02  0.26232133470E+02  0.25500000000E-02 0. -1.
    5000001    1    1    2    0    0 -0.18625087064E+03  0.90868423117E+02  0.12837409917E+04  0.13107869357E+04  0.16500000000E+03 0.  0.
   -5000001    1    1    2    0    0  0.18625087064E+03 -0.90868423117E+02  0.13676230058E+04  0.13930413286E+04  0.16500000000E+03 0.  0.
<mgrwt>
<rscale>  0 0.53005305E+03</rscale>
<asrwt>0</asrwt>
<pdfrwt beam="1">  1        2 0.38251346E+00 0.53005305E+03</pdfrwt>
<pdfrwt beam="2">  1       -2 0.37474503E-02 0.53005305E+03</pdfrwt>
<totfact> 0.12049012E+03</totfact>
</mgrwt>
</event>
<event>
 4    1  0.3541639E-005  0.3858510E+03  0.7818608E-02  0.1048792E+00
          2   -1    0    0  501    0  0.00000000000E+00  0.00000000000E+00  0.30231815147E+04  0.30231815147E+04  0.25500000000E-02 0.  1.
         -2   -1    0    0    0  501 -0.00000000000E+00 -0.00000000000E+00 -0.12311618241E+02  0.12311618506E+02  0.25500000000E-02 0. -1.
    5000001    1    1    2    0    0  0.12576774356E+02 -0.96838190933E+02  0.13368079533E+04  0.13504874359E+04  0.16500000000E+03 0.  0.
   -5000001    1    1    2    0    0 -0.12576774356E+02  0.96838190933E+02  0.16740619431E+04  0.16850056973E+04  0.16500000000E+03 0.  0.
<mgrwt>
<rscale>  0 0.38585104E+03</rscale>
<asrwt>0</asrwt>
<pdfrwt beam="1">  1        2 0.43188294E+00 0.38585104E+03</pdfrwt>
<pdfrwt beam="2">  1       -2 0.17588032E-02 0.38585104E+03</pdfrwt>
<totfact> 0.24955346E+03</totfact>
</mgrwt>
</event>
<event>
 4    1  0.3541639E-005  0.3684273E+03  0.7818608E-02  0.1055296E+00
          2   -1    0    0  501    0  0.00000000000E+00  0.00000000000E+00  0.10997223825E+04  0.10997223825E+04  0.25500000000E-02 0.  1.
         -2   -1    0    0    0  501 -0.00000000000E+00 -0.00000000000E+00 -0.30857492201E+02  0.30857492306E+02  0.25500000000E-02 0. -1.
    5000001    1    1    2    0    0 -0.47544431399E+02 -0.31183740599E+02  0.35349111422E+03  0.39422565425E+03  0.16500000000E+03 0.  0.
   -5000001    1    1    2    0    0  0.47544431399E+02  0.31183740599E+02  0.71537377604E+03  0.73635422053E+03  0.16500000000E+03 0.  0.
<mgrwt>
<rscale>  0 0.36842733E+03</rscale>
<asrwt>0</asrwt>
<pdfrwt beam="1">  1        2 0.15710322E+00 0.36842733E+03</pdfrwt>
<pdfrwt beam="2">  1       -2 0.44082126E-02 0.36842733E+03</pdfrwt>
<totfact> 0.60785434E+03</totfact>
</mgrwt>
</event>
<event>
 4    1  0.3541639E-005  0.4716113E+03  0.7818608E-02  0.1021466E+00
          2   -1    0    0  501    0  0.00000000000E+00  0.00000000000E+00  0.12458018207E+04  0.12458018207E+04  0.25500000000E-02 0.  1.
         -2   -1    0    0    0  501 -0.00000000000E+00 -0.00000000000E+00 -0.44633354707E+02  0.44633354780E+02  0.25500000000E-02 0. -1.
    5000001    1    1    2    0    0  0.60600199525E+02 -0.15316065255E+03  0.69727584953E+03  0.73522049754E+03  0.16500000000E+03 0.  0.
   -5000001    1    1    2    0    0 -0.60600199525E+02  0.15316065255E+03  0.50389261647E+03  0.55521467794E+03  0.16500000000E+03 0.  0.
<mgrwt>
<rscale>  0 0.47161134E+03</rscale>
<asrwt>0</asrwt>
<pdfrwt beam="1">  1        2 0.17797168E+00 0.47161134E+03</pdfrwt>
<pdfrwt beam="2">  1       -2 0.63761939E-02 0.47161134E+03</pdfrwt>
<totfact> 0.28565928E+03</totfact>
</mgrwt>
</event>
<event>
 4    1  0.3541639E-005  0.6763051E+03  0.7818608E-02  0.9758634E-01
          2   -1    0    0  501    0  0.00000000000E+00  0.00000000000E+00  0.61236854774E+03  0.61236854775E+03  0.25500000000E-02 0.  1.
         -2   -1    0    0    0  501 -0.00000000000E+00 -0.00000000000E+00 -0.18672931138E+03  0.18672931140E+03  0.25500000000E-02 0. -1.
    5000001    1    1    2    0    0  0.26371831753E+03 -0.65843552340E+02  0.34877361390E+03  0.47196478485E+03  0.16500000000E+03 0.  0.
   -5000001    1    1    2    0    0 -0.26371831753E+03  0.65843552340E+02  0.76865622460E+02  0.32713307430E+03  0.16500000000E+03 0.  0.
<mgrwt>
<rscale>  0 0.67630513E+03</rscale>
<asrwt>0</asrwt>
<pdfrwt beam="1">  1        2 0.87481221E-01 0.67630513E+03</pdfrwt>
<pdfrwt beam="2">  1       -2 0.26675616E-01 0.67630513E+03</pdfrwt>
<totfact> 0.67702778E+02</totfact>
</mgrwt>
</event>
<event>
 4    1  0.3541639E-005  0.3932985E+03  0.7818608E-02  0.1046125E+00
          2   -1    0    0  501    0  0.00000000000E+00  0.00000000000E+00  0.48457404738E+03  0.48457404739E+03  0.25500000000E-02 0.  1.
         -2   -1    0    0    0  501 -0.00000000000E+00 -0.00000000000E+00 -0.79803956963E+02  0.79803957004E+02  0.25500000000E-02 0. -1.
    5000001    1    1    2    0    0 -0.48598608715E+02 -0.86148596343E+02  0.26089521623E+03  0.32415230876E+03  0.16500000000E+03 0.  0.
   -5000001    1    1    2    0    0  0.48598608715E+02  0.86148596343E+02  0.14387487419E+03  0.24022569564E+03  0.16500000000E+03 0.  0.
<mgrwt>
<rscale>  0 0.39329849E+03</rscale>
<asrwt>0</asrwt>
<pdfrwt beam="1">  1        2 0.69224863E-01 0.39329849E+03</pdfrwt>
<pdfrwt beam="2">  1       -2 0.11400565E-01 0.39329849E+03</pdfrwt>
<totfact> 0.37904220E+03</totfact>
</mgrwt>
</event>
<event>
 4    1  0.3541639E-005  0.5021805E+03  0.7818608E-02  0.1013211E+00
         -2   -1    0    0    0  501 -0.00000000000E+00  0.00000000000E+00  0.62851785819E+02  0.62851785870E+02  0.25500000000E-02 0. -1.
          2   -1    0    0  501    0  0.00000000000E+00 -0.00000000000E+00 -0.10030951706E+04  0.10030951706E+04  0.25500000000E-02 0.  1.
    5000001    1    1    2    0    0 -0.12917650655E+03 -0.13476105359E+03 -0.53637420131E+03  0.59141304961E+03  0.16500000000E+03 0.  0.
   -5000001    1    1    2    0    0  0.12917650655E+03  0.13476105359E+03 -0.40386918346E+03  0.47453390686E+03  0.16500000000E+03 0.  0.
<mgrwt>
<rscale>  0 0.50218054E+03</rscale>
<asrwt>0</asrwt>
<pdfrwt beam="1">  1        2 0.14329930E+00 0.50218054E+03</pdfrwt>
<pdfrwt beam="2">  1       -2 0.89788271E-02 0.50218054E+03</pdfrwt>
<totfact> 0.22902143E+03</totfact>
</mgrwt>
</event>
<event>
 4    1  0.3541639E-005  0.5673755E+03  0.7818608E-02  0.9975503E-01
         -2   -1    0    0    0  501 -0.00000000000E+00  0.00000000000E+00  0.12898005748E+03  0.12898005751E+03  0.25500000000E-02 0. -1.
          2   -1    0    0  501    0  0.00000000000E+00 -0.00000000000E+00 -0.62396275075E+03  0.62396275076E+03  0.25500000000E-02 0.  1.
    5000001    1    1    2    0    0 -0.78187134616E+02 -0.17477374423E+03 -0.41844389588E+03  0.48885517660E+03  0.16500000000E+03 0.  0.
   -5000001    1    1    2    0    0  0.78187134616E+02  0.17477374423E+03 -0.76538797390E+02  0.26408763167E+03  0.16500000000E+03 0.  0.
<mgrwt>
<rscale>  0 0.56737554E+03</rscale>
<asrwt>0</asrwt>
<pdfrwt beam="1">  1        2 0.89137534E-01 0.56737554E+03</pdfrwt>
<pdfrwt beam="2">  1       -2 0.18425723E-01 0.56737554E+03</pdfrwt>
<totfact> 0.12756478E+03</totfact>
</mgrwt>
</event>
<event>
 4    1  0.3541639E-005  0.4213707E+03  0.7818608E-02  0.1036621E+00
          2   -1    0    0  501    0  0.00000000000E+00  0.00000000000E+00  0.22475450937E+04  0.22475450937E+04  0.25500000000E-02 0.  1.
         -2   -1    0    0    0  501 -0.00000000000E+00 -0.00000000000E+00 -0.19749691014E+02  0.19749691179E+02  0.25500000000E-02 0. -1.
    5000001    1    1    2    0    0  0.38611539444E+02  0.12518064343E+03  0.11220168753E+04  0.11416251193E+04  0.16500000000E+03 0.  0.
   -5000001    1    1    2    0    0 -0.38611539444E+02 -0.12518064343E+03  0.11057785274E+04  0.11256696656E+04  0.16500000000E+03 0.  0.
<mgrwt>
<rscale>  0 0.42137072E+03</rscale>
<asrwt>0</asrwt>
<pdfrwt beam="1">  1        2 0.32107798E+00 0.42137072E+03</pdfrwt>
<pdfrwt beam="2">  1       -2 0.28213835E-02 0.42137072E+03</pdfrwt>
<totfact> 0.30841889E+03</totfact>
</mgrwt>
</event>
<event>
 4    1  0.3541639E-005  0.5086051E+03  0.7818608E-02  0.1011557E+00
          2   -1    0    0  501    0  0.00000000000E+00  0.00000000000E+00  0.65471759726E+03  0.65471759727E+03  0.25500000000E-02 0.  1.
         -2   -1    0    0    0  501 -0.00000000000E+00 -0.00000000000E+00 -0.98775080979E+02  0.98775081012E+02  0.25500000000E-02 0. -1.
    5000001    1    1    2    0    0 -0.10089463605E+03 -0.89547849425E+02  0.48349938850E+03  0.52838925387E+03  0.16500000000E+03 0.  0.
   -5000001    1    1    2    0    0  0.10089463605E+03  0.89547849425E+02  0.72443127780E+02  0.22510342441E+03  0.16500000000E+03 0.  0.
<mgrwt>
<rscale>  0 0.50860509E+03</rscale>
<asrwt>0</asrwt>
<pdfrwt beam="1">  1        2 0.93531089E-01 0.50860509E+03</pdfrwt>
<pdfrwt beam="2">  1       -2 0.14110725E-01 0.50860509E+03</pdfrwt>
<totfact> 0.18928240E+03</totfact>
</mgrwt>
</event>
<event>
 4    1  0.3541639E-005  0.5170496E+03  0.7818608E-02  0.1009422E+00
         -2   -1    0    0    0  501 -0.00000000000E+00  0.00000000000E+00  0.17682315135E+03  0.17682315137E+03  0.25500000000E-02 0. -1.
          2   -1    0    0  501    0  0.00000000000E+00 -0.00000000000E+00 -0.37797693826E+03  0.37797693827E+03  0.25500000000E-02 0.  1.
    5000001    1    1    2    0    0  0.42796593680E+01 -0.16892612971E+03 -0.21339994433E+03  0.31830628178E+03  0.16500000000E+03 0.  0.
   -5000001    1    1    2    0    0 -0.42796593680E+01  0.16892612971E+03  0.12246157413E+02  0.23649380786E+03  0.16500000000E+03 0.  0.
<mgrwt>
<rscale>  0 0.51704960E+03</rscale>
<asrwt>0</asrwt>
<pdfrwt beam="1">  1        2 0.53996705E-01 0.51704960E+03</pdfrwt>
<pdfrwt beam="2">  1       -2 0.25260450E-01 0.51704960E+03</pdfrwt>
<totfact> 0.12946459E+03</totfact>
</mgrwt>
</event>
<event>
 4    1  0.3541639E-005  0.6430565E+03  0.7818608E-02  0.9819896E-01
         -2   -1    0    0    0  501 -0.00000000000E+00  0.00000000000E+00  0.34007842975E+02  0.34007843070E+02  0.25500000000E-02 0. -1.
          2   -1    0    0  501    0  0.00000000000E+00 -0.00000000000E+00 -0.30398996808E+04  0.30398996808E+04  0.25500000000E-02 0.  1.
    5000001    1    1    2    0    0 -0.46847374902E+02  0.23433094583E+03 -0.84318526063E+03  0.89179148485E+03  0.16500000000E+03 0.  0.
   -5000001    1    1    2    0    0  0.46847374902E+02 -0.23433094583E+03 -0.21627065772E+04  0.21821160390E+04  0.16500000000E+03 0.  0.
<mgrwt>
<rscale>  0 0.64305655E+03</rscale>
<asrwt>0</asrwt>
<pdfrwt beam="1">  1        2 0.43427121E+00 0.64305655E+03</pdfrwt>
<pdfrwt beam="2">  1       -2 0.48582652E-02 0.64305655E+03</pdfrwt>
<totfact> 0.51259228E+02</totfact>
</mgrwt>
</event>
<event>
 4    1  0.3541639E-005  0.4422025E+03  0.7818608E-02  0.1030073E+00
          2   -1    0    0  501    0  0.00000000000E+00  0.00000000000E+00  0.73583253483E+03  0.73583253484E+03  0.25500000000E-02 0.  1.
         -2   -1    0    0    0  501 -0.00000000000E+00 -0.00000000000E+00 -0.66435990492E+02  0.66435990541E+02  0.25500000000E-02 0. -1.
    5000001    1    1    2    0    0 -0.13806037405E+03  0.49842090167E+02  0.31516972407E+03  0.38484003925E+03  0.16500000000E+03 0.  0.
   -5000001    1    1    2    0    0  0.13806037405E+03 -0.49842090167E+02  0.35422682027E+03  0.41742848613E+03  0.16500000000E+03 0.  0.
<mgrwt>
<rscale>  0 0.44220250E+03</rscale>
<asrwt>0</asrwt>
<pdfrwt beam="1">  1        2 0.10511893E+00 0.44220250E+03</pdfrwt>
<pdfrwt beam="2">  1       -2 0.94908558E-02 0.44220250E+03</pdfrwt>
<totfact> 0.31374269E+03</totfact>
</mgrwt>
</event>
<event>
 4    1  0.3541639E-005  0.3685989E+03  0.7818608E-02  0.1055230E+00
          2   -1    0    0  501    0  0.00000000000E+00  0.00000000000E+00  0.57867397057E+03  0.57867397058E+03  0.25500000000E-02 0.  1.
         -2   -1    0    0    0  501 -0.00000000000E+00 -0.00000000000E+00 -0.58696751975E+02  0.58696752030E+02  0.25500000000E-02 0. -1.
    5000001    1    1    2    0    0 -0.43264465160E+02  0.46244042313E+02  0.35035263049E+03  0.39240577351E+03  0.16500000000E+03 0.  0.
   -5000001    1    1    2    0    0  0.43264465160E+02 -0.46244042313E+02  0.16962458811E+03  0.24496494910E+03  0.16500000000E+03 0.  0.
<mgrwt>
<rscale>  0 0.36859887E+03</rscale>
<asrwt>0</asrwt>
<pdfrwt beam="1">  1        2 0.82667713E-01 0.36859887E+03</pdfrwt>
<pdfrwt beam="2">  1       -2 0.83852500E-02 0.36859887E+03</pdfrwt>
<totfact> 0.50635790E+03</totfact>
</mgrwt>
</event>
<event>
 4    1  0.3541639E-005  0.5479171E+03  0.7818608E-02  0.1001977E+00
         -2   -1    0    0    0  501 -0.00000000000E+00  0.00000000000E+00  0.22474016920E+03  0.22474016921E+03  0.25500000000E-02 0. -1.
          2   -1    0    0  501    0  0.00000000000E+00 -0.00000000000E+00 -0.33395577322E+03  0.33395577323E+03  0.25500000000E-02 0.  1.
    5000001    1    1    2    0    0  0.20219013768E+03  0.10546732389E+02 -0.13891561172E+03  0.29582872159E+03  0.16500000000E+03 0.  0.
   -5000001    1    1    2    0    0 -0.20219013768E+03 -0.10546732389E+02  0.29700007697E+02  0.26286722085E+03  0.16500000000E+03 0.  0.
<mgrwt>
<rscale>  0 0.54791706E+03</rscale>
<asrwt>0</asrwt>
<pdfrwt beam="1">  1        2 0.47707967E-01 0.54791706E+03</pdfrwt>
<pdfrwt beam="2">  1       -2 0.32105739E-01 0.54791706E+03</pdfrwt>
<totfact> 0.95730184E+02</totfact>
</mgrwt>
</event>
<event>
 4    1  0.3541639E-005  0.6632888E+03  0.7818608E-02  0.9782158E-01
          2   -1    0    0  501    0  0.00000000000E+00  0.00000000000E+00  0.11574112556E+03  0.11574112559E+03  0.25500000000E-02 0.  1.
         -2   -1    0    0    0  501 -0.00000000000E+00 -0.00000000000E+00 -0.95029317403E+03  0.95029317403E+03  0.25500000000E-02 0. -1.
    5000001    1    1    2    0    0 -0.93359610217E+02  0.24006480977E+03 -0.62319696040E+03  0.69422372558E+03  0.16500000000E+03 0.  0.
   -5000001    1    1    2    0    0  0.93359610217E+02 -0.24006480977E+03 -0.21135508807E+03  0.37181057404E+03  0.16500000000E+03 0.  0.
<mgrwt>
<rscale>  0 0.66328878E+03</rscale>
<asrwt>0</asrwt>
<pdfrwt beam="1">  1        2 0.16534447E-01 0.66328878E+03</pdfrwt>
<pdfrwt beam="2">  1       -2 0.13575616E+00 0.66328878E+03</pdfrwt>
<totfact> 0.14043211E+02</totfact>
</mgrwt>
</event>
<event>
 4    1  0.3541639E-005  0.6171349E+03  0.7818608E-02  0.9870481E-01
          2   -1    0    0  501    0  0.00000000000E+00  0.00000000000E+00  0.43714949211E+03  0.43714949211E+03  0.25500000000E-02 0.  1.
         -2   -1    0    0    0  501 -0.00000000000E+00 -0.00000000000E+00 -0.21780619297E+03  0.21780619298E+03  0.25500000000E-02 0. -1.
    5000001    1    1    2    0    0  0.60022232187E+02  0.23290517098E+03  0.21654768598E+03  0.36327040525E+03  0.16500000000E+03 0.  0.
   -5000001    1    1    2    0    0 -0.60022232187E+02 -0.23290517098E+03  0.27956131634E+01  0.29168527985E+03  0.16500000000E+03 0.  0.
<mgrwt>
<rscale>  0 0.61713489E+03</rscale>
<asrwt>0</asrwt>
<pdfrwt beam="1">  1        2 0.62449928E-01 0.61713489E+03</pdfrwt>
<pdfrwt beam="2">  1       -2 0.31115170E-01 0.61713489E+03</pdfrwt>
<totfact> 0.75232521E+02</totfact>
</mgrwt>
</event>
<event>
 4    1  0.3541639E-005  0.4535686E+03  0.7818608E-02  0.1026663E+00
         -2   -1    0    0    0  501 -0.00000000000E+00  0.00000000000E+00  0.25906934156E+02  0.25906934282E+02  0.25500000000E-02 0. -1.
          2   -1    0    0  501    0  0.00000000000E+00 -0.00000000000E+00 -0.19852256037E+04  0.19852256037E+04  0.25500000000E-02 0.  1.
    5000001    1    1    2    0    0  0.19490475242E+02  0.13421607822E+03 -0.13177014600E+04  0.13348992366E+04  0.16500000000E+03 0.  0.
   -5000001    1    1    2    0    0 -0.19490475242E+02 -0.13421607822E+03 -0.64161720963E+03  0.67623330144E+03  0.16500000000E+03 0.  0.
<mgrwt>
<rscale>  0 0.45356856E+03</rscale>
<asrwt>0</asrwt>
<pdfrwt beam="1">  1        2 0.28360356E+00 0.45356856E+03</pdfrwt>
<pdfrwt beam="2">  1       -2 0.37009919E-02 0.45356856E+03</pdfrwt>
<totfact> 0.27596040E+03</totfact>
</mgrwt>
</event>
<event>
 4    1  0.3541639E-005  0.5281171E+03  0.7818608E-02  0.1006690E+00
          2   -1    0    0  501    0  0.00000000000E+00  0.00000000000E+00  0.14756336959E+04  0.14756336959E+04  0.25500000000E-02 0.  1.
         -2   -1    0    0    0  501 -0.00000000000E+00 -0.00000000000E+00 -0.47252190224E+02  0.47252190293E+02  0.25500000000E-02 0. -1.
    5000001    1    1    2    0    0  0.17495482351E+03 -0.10622702438E+03  0.78532625116E+03  0.82816404881E+03  0.16500000000E+03 0.  0.
   -5000001    1    1    2    0    0 -0.17495482351E+03  0.10622702438E+03  0.64305525451E+03  0.69472183738E+03  0.16500000000E+03 0.  0.
<mgrwt>
<rscale>  0 0.52811712E+03</rscale>
<asrwt>0</asrwt>
<pdfrwt beam="1">  1        2 0.21080484E+00 0.52811712E+03</pdfrwt>
<pdfrwt beam="2">  1       -2 0.67503119E-02 0.52811712E+03</pdfrwt>
<totfact> 0.19689973E+03</totfact>
</mgrwt>
</event>
<event>
 4    1  0.3541639E-005  0.6586106E+03  0.7818608E-02  0.9790755E-01
          2   -1    0    0  501    0  0.00000000000E+00  0.00000000000E+00  0.89034612996E+03  0.89034612996E+03  0.25500000000E-02 0.  1.
         -2   -1    0    0    0  501 -0.00000000000E+00 -0.00000000000E+00 -0.12179755976E+03  0.12179755979E+03  0.25500000000E-02 0. -1.
    5000001    1    1    2    0    0 -0.13030262100E+03  0.21435176243E+03  0.59211877703E+03  0.66389389002E+03  0.16500000000E+03 0.  0.
   -5000001    1    1    2    0    0  0.13030262100E+03 -0.21435176243E+03  0.17642979317E+03  0.34824979973E+03  0.16500000000E+03 0.  0.
<mgrwt>
<rscale>  0 0.65861062E+03</rscale>
<asrwt>0</asrwt>
<pdfrwt beam="1">  1        2 0.12719231E+00 0.65861062E+03</pdfrwt>
<pdfrwt beam="2">  1       -2 0.17399651E-01 0.65861062E+03</pdfrwt>
<totfact> 0.90041705E+02</totfact>
</mgrwt>
</event>
<event>
 4    1  0.3541639E-005  0.4820270E+03  0.7818608E-02  0.1018580E+00
         -2   -1    0    0    0  501 -0.00000000000E+00  0.00000000000E+00  0.13523764349E+02  0.13523764589E+02  0.25500000000E-02 0. -1.
          2   -1    0    0  501    0  0.00000000000E+00 -0.00000000000E+00 -0.42952167110E+04  0.42952167110E+04  0.25500000000E-02 0.  1.
    5000001    1    1    2    0    0  0.10719628205E+03 -0.13679145302E+03 -0.19112821518E+04  0.19262469749E+04  0.16500000000E+03 0.  0.
   -5000001    1    1    2    0    0 -0.10719628205E+03  0.13679145302E+03 -0.23704107949E+04  0.23824935007E+04  0.16500000000E+03 0.  0.
<mgrwt>
<rscale>  0 0.48202697E+03</rscale>
<asrwt>0</asrwt>
<pdfrwt beam="1">  1        2 0.61360152E+00 0.48202697E+03</pdfrwt>
<pdfrwt beam="2">  1       -2 0.19319691E-02 0.48202697E+03</pdfrwt>
<totfact> 0.35340961E+02</totfact>
</mgrwt>
</event>
<event>
 4    1  0.3541639E-005  0.7650689E+03  0.7818608E-02  0.9612002E-01
         -2   -1    0    0    0  501 -0.00000000000E+00  0.00000000000E+00  0.68475772912E+02  0.68475772959E+02  0.25500000000E-02 0. -1.
          2   -1    0    0  501    0  0.00000000000E+00 -0.00000000000E+00 -0.21369983074E+04  0.21369983074E+04  0.25500000000E-02 0.  1.
    5000001    1    1    2    0    0  0.28873143528E+03 -0.18901546616E+03 -0.10231253749E+04  0.10922926444E+04  0.16500000000E+03 0.  0.
   -5000001    1    1    2    0    0 -0.28873143528E+03  0.18901546616E+03 -0.10453971596E+04  0.11131814360E+04  0.16500000000E+03 0.  0.
<mgrwt>
<rscale>  0 0.76506891E+03</rscale>
<asrwt>0</asrwt>
<pdfrwt beam="1">  1        2 0.30528543E+00 0.76506891E+03</pdfrwt>
<pdfrwt beam="2">  1       -2 0.97822546E-02 0.76506891E+03</pdfrwt>
<totfact> 0.49571232E+02</totfact>
</mgrwt>
</event>
<event>
 4    1  0.3541639E-005  0.4412176E+03  0.7818608E-02  0.1030374E+00
          2   -1    0    0  501    0  0.00000000000E+00  0.00000000000E+00  0.26998771846E+03  0.26998771848E+03  0.25500000000E-02 0.  1.
         -2   -1    0    0    0  501 -0.00000000000E+00 -0.00000000000E+00 -0.18026092213E+03  0.18026092214E+03  0.25500000000E-02 0. -1.
    5000001    1    1    2    0    0  0.36580156774E+02 -0.11649792740E+03 -0.37620260287E+02  0.20868674837E+03  0.16500000000E+03 0.  0.
   -5000001    1    1    2    0    0 -0.36580156774E+02  0.11649792740E+03  0.12734705662E+03  0.24156189226E+03  0.16500000000E+03 0.  0.
<mgrwt>
<rscale>  0 0.44121757E+03</rscale>
<asrwt>0</asrwt>
<pdfrwt beam="1">  1        2 0.38569674E-01 0.44121757E+03</pdfrwt>
<pdfrwt beam="2">  1       -2 0.25751560E-01 0.44121757E+03</pdfrwt>
<totfact> 0.18077073E+03</totfact>
</mgrwt>
</event>
<event>
 4    1  0.3541639E-005  0.3622900E+03  0.7818608E-02  0.1057681E+00
         -2   -1    0    0    0  501 -0.00000000000E+00  0.00000000000E+00  0.34473341117E+02  0.34473341211E+02  0.25500000000E-02 0. -1.
          2   -1    0    0  501    0  0.00000000000E+00 -0.00000000000E+00 -0.95185178809E+03  0.95185178809E+03  0.25500000000E-02 0.  1.
    5000001    1    1    2    0    0  0.31109203038E+02  0.47005337748E+02 -0.32500418346E+03  0.36882245533E+03  0.16500000000E+03 0.  0.
   -5000001    1    1    2    0    0 -0.31109203038E+02 -0.47005337748E+02 -0.59237426351E+03  0.61750267396E+03  0.16500000000E+03 0.  0.
<mgrwt>
<rscale>  0 0.36229000E+03</rscale>
<asrwt>0</asrwt>
<pdfrwt beam="1">  1        2 0.13597881E+00 0.36229000E+03</pdfrwt>
<pdfrwt beam="2">  1       -2 0.49247636E-02 0.36229000E+03</pdfrwt>
<totfact> 0.62735210E+03</totfact>
</mgrwt>
</event>
<event>
 4    1  0.3541639E-005  0.8650955E+03  0.7818608E-02  0.9470297E-01
         -2   -1    0    0    0  501 -0.00000000000E+00  0.00000000000E+00  0.16838581148E+03  0.16838581150E+03  0.25500000000E-02 0. -1.
          2   -1    0    0  501    0  0.00000000000E+00 -0.00000000000E+00 -0.11111243047E+04  0.11111243047E+04  0.25500000000E-02 0.  1.
    5000001    1    1    2    0    0 -0.36802114834E+03  0.56028941156E+02 -0.68719627602E+03  0.79877564412E+03  0.16500000000E+03 0.  0.
   -5000001    1    1    2    0    0  0.36802114834E+03 -0.56028941156E+02 -0.25554221718E+03  0.48073447207E+03  0.16500000000E+03 0.  0.
<mgrwt>
<rscale>  0 0.86509553E+03</rscale>
<asrwt>0</asrwt>
<pdfrwt beam="1">  1        2 0.15873204E+00 0.86509553E+03</pdfrwt>
<pdfrwt beam="2">  1       -2 0.24055117E-01 0.86509553E+03</pdfrwt>
<totfact> 0.37017541E+02</totfact>
</mgrwt>
</event>
<event>
 4    1  0.3541639E-005  0.4716213E+03  0.7818608E-02  0.1021464E+00
         -2   -1    0    0    0  501 -0.00000000000E+00  0.00000000000E+00  0.11356331331E+03  0.11356331334E+03  0.25500000000E-02 0. -1.
          2   -1    0    0  501    0  0.00000000000E+00 -0.00000000000E+00 -0.48965348400E+03  0.48965348401E+03  0.25500000000E-02 0.  1.
    5000001    1    1    2    0    0  0.12832704606E+03 -0.10320744332E+03 -0.23348325478E+03  0.32993792957E+03  0.16500000000E+03 0.  0.
   -5000001    1    1    2    0    0 -0.12832704606E+03  0.10320744332E+03 -0.14260691591E+03  0.27327886778E+03  0.16500000000E+03 0.  0.
<mgrwt>
<rscale>  0 0.47162134E+03</rscale>
<asrwt>0</asrwt>
<pdfrwt beam="1">  1        2 0.69950496E-01 0.47162134E+03</pdfrwt>
<pdfrwt beam="2">  1       -2 0.16223331E-01 0.47162134E+03</pdfrwt>
<totfact> 0.20950526E+03</totfact>
</mgrwt>
</event>
<event>
 4    1  0.3541639E-005  0.4811326E+03  0.7818608E-02  0.1018824E+00
          2   -1    0    0  501    0  0.00000000000E+00  0.00000000000E+00  0.18724593954E+04  0.18724593954E+04  0.25500000000E-02 0.  1.
         -2   -1    0    0    0  501 -0.00000000000E+00 -0.00000000000E+00 -0.30907016403E+02  0.30907016508E+02  0.25500000000E-02 0. -1.
    5000001    1    1    2    0    0 -0.80142700439E+02 -0.13823744886E+03  0.12036985418E+04  0.12254173266E+04  0.16500000000E+03 0.  0.
   -5000001    1    1    2    0    0  0.80142700439E+02  0.13823744886E+03  0.63785383721E+03  0.67794908536E+03  0.16500000000E+03 0.  0.
<mgrwt>
<rscale>  0 0.48113255E+03</rscale>
<asrwt>0</asrwt>
<pdfrwt beam="1">  1        2 0.26749428E+00 0.48113255E+03</pdfrwt>
<pdfrwt beam="2">  1       -2 0.44152868E-02 0.48113255E+03</pdfrwt>
<totfact> 0.23963208E+03</totfact>
</mgrwt>
</event>
<event>
 4    1  0.3541639E-005  0.5366808E+03  0.7818608E-02  0.1004625E+00
          2   -1    0    0  501    0  0.00000000000E+00  0.00000000000E+00  0.12479411536E+04  0.12479411536E+04  0.25500000000E-02 0.  1.
         -2   -1    0    0    0  501 -0.00000000000E+00 -0.00000000000E+00 -0.57700302126E+02  0.57700302183E+02  0.25500000000E-02 0. -1.
    5000001    1    1    2    0    0  0.11334179385E+03  0.16608383743E+03  0.43464029790E+03  0.50652481859E+03  0.16500000000E+03 0.  0.
   -5000001    1    1    2    0    0 -0.11334179385E+03 -0.16608383743E+03  0.75560055361E+03  0.79911663724E+03  0.16500000000E+03 0.  0.
<mgrwt>
<rscale>  0 0.53668084E+03</rscale>
<asrwt>0</asrwt>
<pdfrwt beam="1">  1        2 0.17827732E+00 0.53668084E+03</pdfrwt>
<pdfrwt beam="2">  1       -2 0.82428998E-02 0.53668084E+03</pdfrwt>
<totfact> 0.18986326E+03</totfact>
</mgrwt>
</event>
<event>
 4    1  0.3541639E-005  0.4001228E+03  0.7818608E-02  0.1043737E+00
         -2   -1    0    0    0  501 -0.00000000000E+00  0.00000000000E+00  0.18347332150E+02  0.18347332327E+02  0.25500000000E-02 0. -1.
          2   -1    0    0  501    0  0.00000000000E+00 -0.00000000000E+00 -0.21814921009E+04  0.21814921009E+04  0.25500000000E-02 0.  1.
    5000001    1    1    2    0    0 -0.86206074084E+02 -0.57556234496E+02 -0.13308256829E+04  0.13450153180E+04  0.16500000000E+03 0.  0.
   -5000001    1    1    2    0    0  0.86206074084E+02  0.57556234496E+02 -0.83231908586E+03  0.85482411526E+03  0.16500000000E+03 0.  0.
<mgrwt>
<rscale>  0 0.40012278E+03</rscale>
<asrwt>0</asrwt>
<pdfrwt beam="1">  1        2 0.31164156E+00 0.40012278E+03</pdfrwt>
<pdfrwt beam="2">  1       -2 0.26210489E-02 0.40012278E+03</pdfrwt>
<totfact> 0.37180570E+03</totfact>
</mgrwt>
</event>
<event>
 4    1  0.3541639E-005  0.6048660E+03  0.7818608E-02  0.9895362E-01
          2   -1    0    0  501    0  0.00000000000E+00  0.00000000000E+00  0.17259603191E+04  0.17259603191E+04  0.25500000000E-02 0.  1.
         -2   -1    0    0    0  501 -0.00000000000E+00 -0.00000000000E+00 -0.52994109023E+02  0.52994109084E+02  0.25500000000E-02 0. -1.
    5000001    1    1    2    0    0  0.22736149854E+03 -0.71297001059E+02  0.10905790448E+04  0.11284343873E+04  0.16500000000E+03 0.  0.
   -5000001    1    1    2    0    0 -0.22736149854E+03  0.71297001059E+02  0.58238716527E+03  0.65052004093E+03  0.16500000000E+03 0.  0.
<mgrwt>
<rscale>  0 0.60486603E+03</rscale>
<asrwt>0</asrwt>
<pdfrwt beam="1">  1        2 0.24656572E+00 0.60486603E+03</pdfrwt>
<pdfrwt beam="2">  1       -2 0.75705882E-02 0.60486603E+03</pdfrwt>
<totfact> 0.12186300E+03</totfact>
</mgrwt>
</event>
<event>
 4    1  0.3541639E-005  0.5745474E+03  0.7818608E-02  0.9959666E-01
          2   -1    0    0  501    0  0.00000000000E+00  0.00000000000E+00  0.88946981388E+02  0.88946981425E+02  0.25500000000E-02 0.  1.
         -2   -1    0    0    0  501 -0.00000000000E+00 -0.00000000000E+00 -0.92781321914E+03  0.92781321915E+03  0.25500000000E-02 0. -1.
    5000001    1    1    2    0    0 -0.30192797252E+02 -0.11133052865E+03 -0.78208666960E+03  0.80758321576E+03  0.16500000000E+03 0.  0.
   -5000001    1    1    2    0    0  0.30192797252E+02  0.11133052865E+03 -0.56779568158E+02  0.20917698481E+03  0.16500000000E+03 0.  0.
<mgrwt>
<rscale>  0 0.57454742E+03</rscale>
<asrwt>0</asrwt>
<pdfrwt beam="1">  1        2 0.12706712E-01 0.57454742E+03</pdfrwt>
<pdfrwt beam="2">  1       -2 0.13254474E+00 0.57454742E+03</pdfrwt>
<totfact> 0.20625719E+02</totfact>
</mgrwt>
</event>
<event>
 4    1  0.3541639E-005  0.6002957E+03  0.7818608E-02  0.9904793E-01
         -2   -1    0    0    0  501 -0.00000000000E+00  0.00000000000E+00  0.30994922708E+03  0.30994922709E+03  0.25500000000E-02 0. -1.
          2   -1    0    0  501    0  0.00000000000E+00 -0.00000000000E+00 -0.29065646326E+03  0.29065646327E+03  0.25500000000E-02 0.  1.
    5000001    1    1    2    0    0  0.21509068589E+03 -0.12337265213E+03 -0.27506760492E+02  0.29910940527E+03  0.16500000000E+03 0.  0.
   -5000001    1    1    2    0    0 -0.21509068589E+03  0.12337265213E+03  0.46799524309E+02  0.30149628509E+03  0.16500000000E+03 0.  0.
<mgrwt>
<rscale>  0 0.60029575E+03</rscale>
<asrwt>0</asrwt>
<pdfrwt beam="1">  1        2 0.41522352E-01 0.60029575E+03</pdfrwt>
<pdfrwt beam="2">  1       -2 0.44278461E-01 0.60029575E+03</pdfrwt>
<totfact> 0.60160133E+02</totfact>
</mgrwt>
</event>
<event>
 4    1  0.3541639E-005  0.3924976E+03  0.7818608E-02  0.1046409E+00
          2   -1    0    0  501    0  0.00000000000E+00  0.00000000000E+00  0.33874572913E+03  0.33874572914E+03  0.25500000000E-02 0.  1.
         -2   -1    0    0    0  501 -0.00000000000E+00 -0.00000000000E+00 -0.11369471433E+03  0.11369471436E+03  0.25500000000E-02 0. -1.
    5000001    1    1    2    0    0 -0.22570948491E+02 -0.89265190743E+02  0.51410863333E+02  0.19582083358E+03  0.16500000000E+03 0.  0.
   -5000001    1    1    2    0    0  0.22570948491E+02  0.89265190743E+02  0.17364015146E+03  0.25661960992E+03  0.16500000000E+03 0.  0.
<mgrwt>
<rscale>  0 0.39249764E+03</rscale>
<asrwt>0</asrwt>
<pdfrwt beam="1">  1        2 0.48392248E-01 0.39249764E+03</pdfrwt>
<pdfrwt beam="2">  1       -2 0.16242102E-01 0.39249764E+03</pdfrwt>
<totfact> 0.31322203E+03</totfact>
</mgrwt>
</event>
<event>
 4    1  0.3541639E-005  0.4821864E+03  0.7818608E-02  0.1018536E+00
          2   -1    0    0  501    0  0.00000000000E+00  0.00000000000E+00  0.19048210433E+04  0.19048210433E+04  0.25500000000E-02 0.  1.
         -2   -1    0    0    0  501 -0.00000000000E+00 -0.00000000000E+00 -0.30515168434E+02  0.30515168541E+02  0.25500000000E-02 0. -1.
    5000001    1    1    2    0    0 -0.16723304241E+03  0.18505665702E+02  0.11414791922E+04  0.11655509840E+04  0.16500000000E+03 0.  0.
   -5000001    1    1    2    0    0  0.16723304241E+03 -0.18505665702E+02  0.73282668261E+03  0.76978522776E+03  0.16500000000E+03 0.  0.
<mgrwt>
<rscale>  0 0.48218642E+03</rscale>
<asrwt>0</asrwt>
<pdfrwt beam="1">  1        2 0.27211730E+00 0.48218642E+03</pdfrwt>
<pdfrwt beam="2">  1       -2 0.43593097E-02 0.48218642E+03</pdfrwt>
<totfact> 0.23543942E+03</totfact>
</mgrwt>
</event>
<event>
 4    1  0.3541639E-005  0.3920556E+03  0.7818608E-02  0.1046566E+00
          2   -1    0    0  501    0  0.00000000000E+00  0.00000000000E+00  0.39633407450E+03  0.39633407450E+03  0.25500000000E-02 0.  1.
         -2   -1    0    0    0  501 -0.00000000000E+00 -0.00000000000E+00 -0.96955819789E+02  0.96955819823E+02  0.25500000000E-02 0. -1.
    5000001    1    1    2    0    0  0.40171389483E+02  0.92375746647E+02  0.10882377164E+03  0.22184371160E+03  0.16500000000E+03 0.  0.
   -5000001    1    1    2    0    0 -0.40171389483E+02 -0.92375746647E+02  0.19055448306E+03  0.27144618273E+03  0.16500000000E+03 0.  0.
<mgrwt>
<rscale>  0 0.39205558E+03</rscale>
<asrwt>0</asrwt>
<pdfrwt beam="1">  1        2 0.56619154E-01 0.39205558E+03</pdfrwt>
<pdfrwt beam="2">  1       -2 0.13850831E-01 0.39205558E+03</pdfrwt>
<totfact> 0.34407366E+03</totfact>
</mgrwt>
</event>
<event>
 4    1  0.3541639E-005  0.4206267E+03  0.7818608E-02  0.1036863E+00
         -2   -1    0    0    0  501 -0.00000000000E+00  0.00000000000E+00  0.72286277347E+02  0.72286277392E+02  0.25500000000E-02 0. -1.
          2   -1    0    0  501    0  0.00000000000E+00 -0.00000000000E+00 -0.61189635366E+03  0.61189635366E+03  0.25500000000E-02 0.  1.
    5000001    1    1    2    0    0  0.60769081666E+02 -0.82637689965E+02 -0.40079102442E+03  0.44539905068E+03  0.16500000000E+03 0.  0.
   -5000001    1    1    2    0    0 -0.60769081666E+02  0.82637689965E+02 -0.13881905189E+03  0.23878358037E+03  0.16500000000E+03 0.  0.
<mgrwt>
<rscale>  0 0.42062672E+03</rscale>
<asrwt>0</asrwt>
<pdfrwt beam="1">  1        2 0.87413762E-01 0.42062672E+03</pdfrwt>
<pdfrwt beam="2">  1       -2 0.10326611E-01 0.42062672E+03</pdfrwt>
<totfact> 0.34134764E+03</totfact>
</mgrwt>
</event>
<event>
 4    1  0.3541639E-005  0.6325647E+03  0.7818608E-02  0.9840057E-01
         -2   -1    0    0    0  501 -0.00000000000E+00  0.00000000000E+00  0.17542411399E+03  0.17542411401E+03  0.25500000000E-02 0. -1.
          2   -1    0    0  501    0  0.00000000000E+00 -0.00000000000E+00 -0.57024389767E+03  0.57024389768E+03  0.25500000000E-02 0.  1.
    5000001    1    1    2    0    0 -0.14109632720E+03  0.21354518921E+03 -0.29812538888E+03  0.42616131790E+03  0.16500000000E+03 0.  0.
   -5000001    1    1    2    0    0  0.14109632720E+03 -0.21354518921E+03 -0.96694394806E+02  0.31950669378E+03  0.16500000000E+03 0.  0.
<mgrwt>
<rscale>  0 0.63256472E+03</rscale>
<asrwt>0</asrwt>
<pdfrwt beam="1">  1        2 0.81463413E-01 0.63256472E+03</pdfrwt>
<pdfrwt beam="2">  1       -2 0.25060588E-01 0.63256472E+03</pdfrwt>
<totfact> 0.82493258E+02</totfact>
</mgrwt>
</event>
<event>
 4    1  0.3541639E-005  0.5447880E+03  0.7818608E-02  0.1002708E+00
          2   -1    0    0  501    0  0.00000000000E+00  0.00000000000E+00  0.45860462786E+03  0.45860462786E+03  0.25500000000E-02 0.  1.
         -2   -1    0    0    0  501 -0.00000000000E+00 -0.00000000000E+00 -0.16179183780E+03  0.16179183782E+03  0.25500000000E-02 0. -1.
    5000001    1    1    2    0    0  0.20232210785E+03  0.33625252134E+02  0.22819121986E+03  0.34836923763E+03  0.16500000000E+03 0.  0.
   -5000001    1    1    2    0    0 -0.20232210785E+03 -0.33625252134E+02  0.68621570196E+02  0.27202722805E+03  0.16500000000E+03 0.  0.
<mgrwt>
<rscale>  0 0.54478798E+03</rscale>
<asrwt>0</asrwt>
<pdfrwt beam="1">  1        2 0.65514946E-01 0.54478798E+03</pdfrwt>
<pdfrwt beam="2">  1       -2 0.23113120E-01 0.54478798E+03</pdfrwt>
<totfact> 0.12234860E+03</totfact>
</mgrwt>
</event>
<event>
 4    1  0.3541639E-005  0.7214766E+03  0.7818608E-02  0.9681193E-01
         -2   -1    0    0    0  501 -0.00000000000E+00  0.00000000000E+00  0.23167639401E+03  0.23167639402E+03  0.25500000000E-02 0. -1.
          2   -1    0    0  501    0  0.00000000000E+00 -0.00000000000E+00 -0.56169783649E+03  0.56169783649E+03  0.25500000000E-02 0.  1.
    5000001    1    1    2    0    0 -0.16115136654E+03 -0.22047229485E+03 -0.35009690690E+03  0.47367778073E+03  0.16500000000E+03 0.  0.
   -5000001    1    1    2    0    0  0.16115136654E+03  0.22047229485E+03  0.20075464413E+02  0.31969644979E+03  0.16500000000E+03 0.  0.
<mgrwt>
<rscale>  0 0.72147662E+03</rscale>
<asrwt>0</asrwt>
<pdfrwt beam="1">  1        2 0.80242548E-01 0.72147662E+03</pdfrwt>
<pdfrwt beam="2">  1       -2 0.33096628E-01 0.72147662E+03</pdfrwt>
<totfact> 0.50232412E+02</totfact>
</mgrwt>
</event>
<event>
 4    1  0.3541639E-005  0.6102901E+03  0.7818608E-02  0.9884284E-01
          2   -1    0    0  501    0  0.00000000000E+00  0.00000000000E+00  0.25050102241E+04  0.25050102241E+04  0.25500000000E-02 0. -1.
         -2   -1    0    0    0  501 -0.00000000000E+00 -0.00000000000E+00 -0.37170902862E+02  0.37170902950E+02  0.25500000000E-02 0.  1.
    5000001    1    1    2    0    0  0.22488341741E+03  0.10044673583E+03  0.93277771853E+03  0.97875501039E+03  0.16500000000E+03 0.  0.
   -5000001    1    1    2    0    0 -0.22488341741E+03 -0.10044673583E+03  0.15350616027E+04  0.15634261167E+04  0.16500000000E+03 0.  0.
<mgrwt>
<rscale>  0 0.61029007E+03</rscale>
<asrwt>0</asrwt>
<pdfrwt beam="1">  1        2 0.35785853E+00 0.61029007E+03</pdfrwt>
<pdfrwt beam="2">  1       -2 0.53101300E-02 0.61029007E+03</pdfrwt>
<totfact> 0.85916879E+02</totfact>
</mgrwt>
</event>
<event>
 4    1  0.3541639E-005  0.4474478E+03  0.7818608E-02  0.1028486E+00
         -2   -1    0    0    0  501 -0.00000000000E+00  0.00000000000E+00  0.55557434350E+02  0.55557434408E+02  0.25500000000E-02 0. -1.
          2   -1    0    0  501    0  0.00000000000E+00 -0.00000000000E+00 -0.90091238894E+03  0.90091238894E+03  0.25500000000E-02 0.  1.
    5000001    1    1    2    0    0  0.14641358956E+03 -0.30346146161E+02 -0.37635718617E+03  0.43729573446E+03  0.16500000000E+03 0.  0.
   -5000001    1    1    2    0    0 -0.14641358956E+03  0.30346146161E+02 -0.46899776843E+03  0.51917408890E+03  0.16500000000E+03 0.  0.
<mgrwt>
<rscale>  0 0.44744779E+03</rscale>
<asrwt>0</asrwt>
<pdfrwt beam="1">  1        2 0.12870176E+00 0.44744779E+03</pdfrwt>
<pdfrwt beam="2">  1       -2 0.79367769E-02 0.44744779E+03</pdfrwt>
<totfact> 0.32236793E+03</totfact>
</mgrwt>
</event>
<event>
 4    1  0.3541639E-005  0.1200858E+04  0.7818608E-02  0.9112106E-01
         -2   -1    0    0    0  501 -0.00000000000E+00  0.00000000000E+00  0.35829114823E+03  0.35829114824E+03  0.25500000000E-02 0. -1.
          2   -1    0    0  501    0  0.00000000000E+00 -0.00000000000E+00 -0.10062074274E+04  0.10062074274E+04  0.25500000000E-02 0.  1.
    5000001    1    1    2    0    0  0.20678538395E+03 -0.39164297812E+03 -0.74475505134E+03  0.88205980739E+03  0.16500000000E+03 0.  0.
   -5000001    1    1    2    0    0 -0.20678538395E+03  0.39164297812E+03  0.96838772155E+02  0.48243876826E+03  0.16500000000E+03 0.  0.
<mgrwt>
<rscale>  0 0.12008584E+04</rscale>
<asrwt>0</asrwt>
<pdfrwt beam="1">  1        2 0.14374392E+00 0.12008584E+04</pdfrwt>
<pdfrwt beam="2">  1       -2 0.51184450E-01 0.12008584E+04</pdfrwt>
<totfact> 0.99092201E+01</totfact>
</mgrwt>
</event>
<event>
 4    1  0.3541639E-005  0.4052847E+03  0.7818608E-02  0.1041965E+00
         -2   -1    0    0    0  501 -0.00000000000E+00  0.00000000000E+00  0.72250395286E+02  0.72250395331E+02  0.25500000000E-02 0. -1.
          2   -1    0    0  501    0  0.00000000000E+00 -0.00000000000E+00 -0.56835576256E+03  0.56835576257E+03  0.25500000000E-02 0.  1.
    5000001    1    1    2    0    0 -0.50920602004E+02  0.10544262142E+03 -0.23017864560E+03  0.30646086701E+03  0.16500000000E+03 0.  0.
   -5000001    1    1    2    0    0  0.50920602004E+02 -0.10544262142E+03 -0.26592672168E+03  0.33414529089E+03  0.16500000000E+03 0.  0.
<mgrwt>
<rscale>  0 0.40528473E+03</rscale>
<asrwt>0</asrwt>
<pdfrwt beam="1">  1        2 0.81193678E-01 0.40528473E+03</pdfrwt>
<pdfrwt beam="2">  1       -2 0.10321485E-01 0.40528473E+03</pdfrwt>
<totfact> 0.37185955E+03</totfact>
</mgrwt>
</event>
<event>
 4    1  0.3541639E-005  0.3680932E+03  0.7818608E-02  0.1055424E+00
          2   -1    0    0  501    0  0.00000000000E+00  0.00000000000E+00  0.27161222660E+04  0.27161222660E+04  0.25500000000E-02 0.  1.
         -2   -1    0    0    0  501 -0.00000000000E+00 -0.00000000000E+00 -0.12471145086E+02  0.12471145346E+02  0.25500000000E-02 0. -1.
    5000001    1    1    2    0    0  0.33498805196E+02 -0.72218373062E+02  0.14824444859E+04  0.14937216331E+04  0.16500000000E+03 0.  0.
   -5000001    1    1    2    0    0 -0.33498805196E+02  0.72218373062E+02  0.12212066350E+04  0.12348717783E+04  0.16500000000E+03 0.  0.
<mgrwt>
<rscale>  0 0.36809322E+03</rscale>
<asrwt>0</asrwt>
<pdfrwt beam="1">  1        2 0.38801759E+00 0.36809322E+03</pdfrwt>
<pdfrwt beam="2">  1       -2 0.17815916E-02 0.36809322E+03</pdfrwt>
<totfact> 0.35566545E+03</totfact>
</mgrwt>
</event>
<event>
 4    1  0.3541639E-005  0.4405977E+03  0.7818608E-02  0.1030564E+00
         -2   -1    0    0    0  501 -0.00000000000E+00  0.00000000000E+00  0.27091292138E+02  0.27091292258E+02  0.25500000000E-02 0. -1.
          2   -1    0    0  501    0  0.00000000000E+00 -0.00000000000E+00 -0.17914085491E+04  0.17914085491E+04  0.25500000000E-02 0.  1.
    5000001    1    1    2    0    0  0.14583832766E+03 -0.41435628411E+01 -0.90088493206E+03  0.92741827011E+03  0.16500000000E+03 0.  0.
   -5000001    1    1    2    0    0 -0.14583832766E+03  0.41435628411E+01 -0.86343232488E+03  0.89108157123E+03  0.16500000000E+03 0.  0.
<mgrwt>
<rscale>  0 0.44059765E+03</rscale>
<asrwt>0</asrwt>
<pdfrwt beam="1">  1        2 0.25591543E+00 0.44059765E+03</pdfrwt>
<pdfrwt beam="2">  1       -2 0.38701857E-02 0.44059765E+03</pdfrwt>
<totfact> 0.32207161E+03</totfact>
</mgrwt>
</event>
<event>
 4    1  0.3541639E-005  0.4293146E+03  0.7818608E-02  0.1034077E+00
         -2   -1    0    0    0  501 -0.00000000000E+00  0.00000000000E+00  0.22572270111E+03  0.22572270112E+03  0.25500000000E-02 0. -1.
          2   -1    0    0  501    0  0.00000000000E+00 -0.00000000000E+00 -0.20413431274E+03  0.20413431275E+03  0.25500000000E-02 0.  1.
    5000001    1    1    2    0    0 -0.76333845519E+02  0.22275197709E+01 -0.10345927868E+03  0.20919043994E+03  0.16500000000E+03 0.  0.
   -5000001    1    1    2    0    0  0.76333845519E+02 -0.22275197709E+01  0.12504766706E+03  0.22066657394E+03  0.16500000000E+03 0.  0.
<mgrwt>
<rscale>  0 0.42931456E+03</rscale>
<asrwt>0</asrwt>
<pdfrwt beam="1">  1        2 0.29162045E-01 0.42931456E+03</pdfrwt>
<pdfrwt beam="2">  1       -2 0.32246100E-01 0.42931456E+03</pdfrwt>
<totfact> 0.16337378E+03</totfact>
</mgrwt>
</event>
<event>
 4    1  0.3541639E-005  0.7410810E+03  0.7818608E-02  0.9649448E-01
         -2   -1    0    0    0  501 -0.00000000000E+00  0.00000000000E+00  0.74958362188E+02  0.74958362231E+02  0.25500000000E-02 0. -1.
          2   -1    0    0  501    0  0.00000000000E+00 -0.00000000000E+00 -0.18316872724E+04  0.18316872724E+04  0.25500000000E-02 0.  1.
    5000001    1    1    2    0    0 -0.34743637836E+02  0.26500905944E+03 -0.37264041397E+03  0.48736310906E+03  0.16500000000E+03 0.  0.
   -5000001    1    1    2    0    0  0.34743637836E+02 -0.26500905944E+03 -0.13840884963E+04  0.14192825256E+04  0.16500000000E+03 0.  0.
<mgrwt>
<rscale>  0 0.74108104E+03</rscale>
<asrwt>0</asrwt>
<pdfrwt beam="1">  1        2 0.26166958E+00 0.74108104E+03</pdfrwt>
<pdfrwt beam="2">  1       -2 0.10708339E-01 0.74108104E+03</pdfrwt>
<totfact> 0.61154418E+02</totfact>
</mgrwt>
</event>
<event>
 4    1  0.3541639E-005  0.4634462E+03  0.7818608E-02  0.1023786E+00
         -2   -1    0    0    0  501 -0.00000000000E+00  0.00000000000E+00  0.50092634577E+02  0.50092634642E+02  0.25500000000E-02 0. -1.
          2   -1    0    0  501    0  0.00000000000E+00 -0.00000000000E+00 -0.10719258524E+04  0.10719258524E+04  0.25500000000E-02 0.  1.
    5000001    1    1    2    0    0  0.12758402105E+03  0.81114409910E+01 -0.75455376265E+03  0.78289198402E+03  0.16500000000E+03 0.  0.
   -5000001    1    1    2    0    0 -0.12758402105E+03 -0.81114409910E+01 -0.26727945519E+03  0.33912650304E+03  0.16500000000E+03 0.  0.
<mgrwt>
<rscale>  0 0.46344618E+03</rscale>
<asrwt>0</asrwt>
<pdfrwt beam="1">  1        2 0.15313225E+00 0.46344618E+03</pdfrwt>
<pdfrwt beam="2">  1       -2 0.71560913E-02 0.46344618E+03</pdfrwt>
<totfact> 0.29875452E+03</totfact>
</mgrwt>
</event>
<event>
 4    1  0.3541639E-005  0.6116194E+03  0.7818608E-02  0.9881588E-01
          2   -1    0    0  501    0  0.00000000000E+00  0.00000000000E+00  0.89398491901E+03  0.89398491901E+03  0.25500000000E-02 0.  1.
         -2   -1    0    0    0  501 -0.00000000000E+00 -0.00000000000E+00 -0.10460980372E+03  0.10460980375E+03  0.25500000000E-02 0. -1.
    5000001    1    1    2    0    0 -0.93235981233E+02  0.23591642298E+03  0.46669489063E+03  0.55621814765E+03  0.16500000000E+03 0.  0.
   -5000001    1    1    2    0    0  0.93235981233E+02 -0.23591642298E+03  0.32268022466E+03  0.44237657512E+03  0.16500000000E+03 0.  0.
<mgrwt>
<rscale>  0 0.61161945E+03</rscale>
<asrwt>0</asrwt>
<pdfrwt beam="1">  1        2 0.12771213E+00 0.61161945E+03</pdfrwt>
<pdfrwt beam="2">  1       -2 0.14944258E-01 0.61161945E+03</pdfrwt>
<totfact> 0.11608520E+03</totfact>
</mgrwt>
</event>
<event>
 4    1  0.3541639E-005  0.1308714E+04  0.7818608E-02  0.9022683E-01
          2   -1    0    0  501    0  0.00000000000E+00  0.00000000000E+00  0.25355209311E+04  0.25355209311E+04  0.25500000000E-02 0.  1.
         -2   -1    0    0    0  501 -0.00000000000E+00 -0.00000000000E+00 -0.16887376378E+03  0.16887376380E+03  0.25500000000E-02 0. -1.
    5000001    1    1    2    0    0  0.83933507088E+02  0.48515205725E+03  0.36052099125E+03  0.63215325468E+03  0.16500000000E+03 0.  0.
   -5000001    1    1    2    0    0 -0.83933507088E+02 -0.48515205725E+03  0.20061261761E+04  0.20722414403E+04  0.16500000000E+03 0.  0.
<mgrwt>
<rscale>  0 0.13087138E+04</rscale>
<asrwt>0</asrwt>
<pdfrwt beam="1">  1        2 0.36221727E+00 0.13087138E+04</pdfrwt>
<pdfrwt beam="2">  1       -2 0.24124824E-01 0.13087138E+04</pdfrwt>
<totfact> 0.63530847E+01</totfact>
</mgrwt>
</event>
<event>
 4    1  0.3541639E-005  0.5426938E+03  0.7818608E-02  0.1003199E+00
         -2   -1    0    0    0  501 -0.00000000000E+00  0.00000000000E+00  0.88964849920E+02  0.88964849957E+02  0.25500000000E-02 0. -1.
          2   -1    0    0  501    0  0.00000000000E+00 -0.00000000000E+00 -0.82762070038E+03  0.82762070038E+03  0.25500000000E-02 0.  1.
    5000001    1    1    2    0    0  0.44832238206E+02 -0.20992172996E+03 -0.33878214890E+03  0.43367661535E+03  0.16500000000E+03 0.  0.
   -5000001    1    1    2    0    0 -0.44832238206E+02  0.20992172996E+03 -0.39987370156E+03  0.48290893499E+03  0.16500000000E+03 0.  0.
<mgrwt>
<rscale>  0 0.54269384E+03</rscale>
<asrwt>0</asrwt>
<pdfrwt beam="1">  1        2 0.11823152E+00 0.54269384E+03</pdfrwt>
<pdfrwt beam="2">  1       -2 0.12709265E-01 0.54269384E+03</pdfrwt>
<totfact> 0.16843227E+03</totfact>
</mgrwt>
</event>
<event>
 4    1  0.3541639E-005  0.9041279E+03  0.7818608E-02  0.9420436E-01
          2   -1    0    0  501    0  0.00000000000E+00  0.00000000000E+00  0.70968296361E+03  0.70968296362E+03  0.25500000000E-02 0.  1.
         -2   -1    0    0    0  501 -0.00000000000E+00 -0.00000000000E+00 -0.28796212658E+03  0.28796212659E+03  0.25500000000E-02 0. -1.
    5000001    1    1    2    0    0  0.17520592102E+03  0.36813182908E+03  0.32616081770E+03  0.54756190275E+03  0.16500000000E+03 0.  0.
   -5000001    1    1    2    0    0 -0.17520592102E+03 -0.36813182908E+03  0.95560019326E+02  0.45008318746E+03  0.16500000000E+03 0.  0.
<mgrwt>
<rscale>  0 0.90412790E+03</rscale>
<asrwt>0</asrwt>
<pdfrwt beam="1">  1        2 0.10138328E+00 0.90412790E+03</pdfrwt>
<pdfrwt beam="2">  1       -2 0.41137446E-01 0.90412790E+03</pdfrwt>
<totfact> 0.24800090E+02</totfact>
</mgrwt>
</event>
<event>
 4    1  0.3541639E-005  0.4457010E+03  0.7818608E-02  0.1029012E+00
         -2   -1    0    0    0  501 -0.00000000000E+00  0.00000000000E+00  0.18789135105E+03  0.18789135107E+03  0.25500000000E-02 0. -1.
          2   -1    0    0  501    0  0.00000000000E+00 -0.00000000000E+00 -0.26431421051E+03  0.26431421053E+03  0.25500000000E-02 0.  1.
    5000001    1    1    2    0    0  0.11252694960E+03 -0.92881670372E+02 -0.72588576244E+02  0.23191252765E+03  0.16500000000E+03 0.  0.
   -5000001    1    1    2    0    0 -0.11252694960E+03  0.92881670372E+02 -0.38342832211E+01  0.22029303395E+03  0.16500000000E+03 0.  0.
<mgrwt>
<rscale>  0 0.44570104E+03</rscale>
<asrwt>0</asrwt>
<pdfrwt beam="1">  1        2 0.37759173E-01 0.44570104E+03</pdfrwt>
<pdfrwt beam="2">  1       -2 0.26841622E-01 0.44570104E+03</pdfrwt>
<totfact> 0.17176759E+03</totfact>
</mgrwt>
</event>
<event>
 4    1  0.3541639E-005  0.4801161E+03  0.7818608E-02  0.1019103E+00
         -2   -1    0    0    0  501 -0.00000000000E+00  0.00000000000E+00  0.37155669775E+02  0.37155669863E+02  0.25500000000E-02 0. -1.
          2   -1    0    0  501    0  0.00000000000E+00 -0.00000000000E+00 -0.15509844472E+04  0.15509844473E+04  0.25500000000E-02 0.  1.
    5000001    1    1    2    0    0 -0.11213863716E+03 -0.12968272012E+03 -0.86204830281E+03  0.89428460694E+03  0.16500000000E+03 0.  0.
   -5000001    1    1    2    0    0  0.11213863716E+03  0.12968272012E+03 -0.65178047466E+03  0.69385551017E+03  0.16500000000E+03 0.  0.
<mgrwt>
<rscale>  0 0.48011609E+03</rscale>
<asrwt>0</asrwt>
<pdfrwt beam="1">  1        2 0.22156917E+00 0.48011609E+03</pdfrwt>
<pdfrwt beam="2">  1       -2 0.53079538E-02 0.48011609E+03</pdfrwt>
<totfact> 0.26216236E+03</totfact>
</mgrwt>
</event>
<event>
 4    1  0.3541639E-005  0.4270602E+03  0.7818608E-02  0.1034793E+00
          2   -1    0    0  501    0  0.00000000000E+00  0.00000000000E+00  0.41740783876E+03  0.41740783876E+03  0.25500000000E-02 0.  1.
         -2   -1    0    0    0  501 -0.00000000000E+00 -0.00000000000E+00 -0.10923392909E+03  0.10923392912E+03  0.25500000000E-02 0. -1.
    5000001    1    1    2    0    0  0.10444044803E+03  0.22448881884E+02  0.51219259205E+02  0.20312600030E+03  0.16500000000E+03 0.  0.
   -5000001    1    1    2    0    0 -0.10444044803E+03 -0.22448881884E+02  0.25695465046E+03  0.32351576759E+03  0.16500000000E+03 0.  0.
<mgrwt>
<rscale>  0 0.42706018E+03</rscale>
<asrwt>0</asrwt>
<pdfrwt beam="1">  1        2 0.59629692E-01 0.42706018E+03</pdfrwt>
<pdfrwt beam="2">  1       -2 0.15604847E-01 0.42706018E+03</pdfrwt>
<totfact> 0.26687540E+03</totfact>
</mgrwt>
</event>
<event>
 4    1  0.3541639E-005  0.4933095E+03  0.7818608E-02  0.1015540E+00
         -2   -1    0    0    0  501 -0.00000000000E+00  0.00000000000E+00  0.28469357064E+02  0.28469357178E+02  0.25500000000E-02 0. -1.
          2   -1    0    0  501    0  0.00000000000E+00 -0.00000000000E+00 -0.21369837620E+04  0.21369837620E+04  0.25500000000E-02 0.  1.
    5000001    1    1    2    0    0 -0.11350434720E+03 -0.14098496688E+03 -0.92601073790E+03  0.95785222473E+03  0.16500000000E+03 0.  0.
   -5000001    1    1    2    0    0  0.11350434720E+03  0.14098496688E+03 -0.11825036671E+04  0.12076008945E+04  0.16500000000E+03 0.  0.
<mgrwt>
<rscale>  0 0.49330945E+03</rscale>
<asrwt>0</asrwt>
<pdfrwt beam="1">  1        2 0.30528329E+00 0.49330945E+03</pdfrwt>
<pdfrwt beam="2">  1       -2 0.40670524E-02 0.49330945E+03</pdfrwt>
<totfact> 0.20048139E+03</totfact>
</mgrwt>
</event>
<event>
 4    1  0.3541639E-005  0.4158958E+03  0.7818608E-02  0.1038410E+00
         -2   -1    0    0    0  501 -0.00000000000E+00  0.00000000000E+00  0.12446880911E+03  0.12446880914E+03  0.25500000000E-02 0. -1.
          2   -1    0    0  501    0  0.00000000000E+00 -0.00000000000E+00 -0.34741496533E+03  0.34741496534E+03  0.25500000000E-02 0.  1.
    5000001    1    1    2    0    0  0.97138080884E+02  0.80637434539E+01 -0.19881066607E+02  0.19266833556E+03  0.16500000000E+03 0.  0.
   -5000001    1    1    2    0    0 -0.97138080884E+02 -0.80637434539E+01 -0.20306508961E+03  0.27921543893E+03  0.16500000000E+03 0.  0.
<mgrwt>
<rscale>  0 0.41589579E+03</rscale>
<asrwt>0</asrwt>
<pdfrwt beam="1">  1        2 0.49630709E-01 0.41589579E+03</pdfrwt>
<pdfrwt beam="2">  1       -2 0.17781259E-01 0.41589579E+03</pdfrwt>
<totfact> 0.26169596E+03</totfact>
</mgrwt>
</event>
<event>
 4    1  0.3541639E-005  0.5753473E+03  0.7818608E-02  0.9957915E-01
          2   -1    0    0  501    0  0.00000000000E+00  0.00000000000E+00  0.20222448105E+04  0.20222448105E+04  0.25500000000E-02 0.  1.
         -2   -1    0    0    0  501 -0.00000000000E+00 -0.00000000000E+00 -0.40922905756E+02  0.40922905836E+02  0.25500000000E-02 0. -1.
    5000001    1    1    2    0    0 -0.16247658835E+03 -0.16712386061E+03  0.11149909897E+04  0.11509817261E+04  0.16500000000E+03 0.  0.
   -5000001    1    1    2    0    0  0.16247658835E+03  0.16712386061E+03  0.86633091500E+03  0.91218599027E+03  0.16500000000E+03 0.  0.
<mgrwt>
<rscale>  0 0.57534732E+03</rscale>
<asrwt>0</asrwt>
<pdfrwt beam="1">  1        2 0.28889215E+00 0.57534732E+03</pdfrwt>
<pdfrwt beam="2">  1       -2 0.58461287E-02 0.57534732E+03</pdfrwt>
<totfact> 0.13005073E+03</totfact>
</mgrwt>
</event>
<event>
 4    1  0.3541639E-005  0.3560327E+03  0.7818608E-02  0.1060166E+00
         -2   -1    0    0    0  501 -0.00000000000E+00  0.00000000000E+00  0.10448324588E+02  0.10448324900E+02  0.25500000000E-02 0. -1.
          2   -1    0    0  501    0  0.00000000000E+00 -0.00000000000E+00 -0.30330044489E+04  0.30330044489E+04  0.25500000000E-02 0.  1.
    5000001    1    1    2    0    0 -0.40988569682E+02 -0.46186471882E+02 -0.12930780725E+04  0.13050245801E+04  0.16500000000E+03 0.  0.
   -5000001    1    1    2    0    0  0.40988569682E+02  0.46186471882E+02 -0.17294780518E+04  0.17384281937E+04  0.16500000000E+03 0.  0.
<mgrwt>
<rscale>  0 0.35603267E+03</rscale>
<asrwt>0</asrwt>
<pdfrwt beam="1">  1        2 0.43328578E+00 0.35603267E+03</pdfrwt>
<pdfrwt beam="2">  1       -2 0.14926198E-02 0.35603267E+03</pdfrwt>
<totfact> 0.31489947E+03</totfact>
</mgrwt>
</event>
<event>
 4    1  0.3541639E-005  0.5681329E+03  0.7818608E-02  0.9973819E-01
          2   -1    0    0  501    0  0.00000000000E+00  0.00000000000E+00  0.33188122775E+03  0.33188122776E+03  0.25500000000E-02 0.  1.
         -2   -1    0    0    0  501 -0.00000000000E+00 -0.00000000000E+00 -0.24314046020E+03  0.24314046021E+03  0.25500000000E-02 0. -1.
    5000001    1    1    2    0    0  0.19152486007E+03  0.11883508865E+03  0.96621973395E+02  0.29557462013E+03  0.16500000000E+03 0.  0.
   -5000001    1    1    2    0    0 -0.19152486007E+03 -0.11883508865E+03 -0.78812058454E+01  0.27944706785E+03  0.16500000000E+03 0.  0.
<mgrwt>
<rscale>  0 0.56813292E+03</rscale>
<asrwt>0</asrwt>
<pdfrwt beam="1">  1        2 0.47411604E-01 0.56813292E+03</pdfrwt>
<pdfrwt beam="2">  1       -2 0.34734351E-01 0.56813292E+03</pdfrwt>
<totfact> 0.83139220E+02</totfact>
</mgrwt>
</event>
<event>
 4    1  0.3541639E-005  0.4110403E+03  0.7818608E-02  0.1040022E+00
          2   -1    0    0  501    0  0.00000000000E+00  0.00000000000E+00  0.77416345696E+03  0.77416345697E+03  0.25500000000E-02 0.  1.
         -2   -1    0    0    0  501 -0.00000000000E+00 -0.00000000000E+00 -0.54560215998E+02  0.54560216058E+02  0.25500000000E-02 0. -1.
    5000001    1    1    2    0    0 -0.76251145657E+02 -0.51660703226E+02  0.52273019629E+03  0.55583713765E+03  0.16500000000E+03 0.  0.
   -5000001    1    1    2    0    0  0.76251145657E+02  0.51660703226E+02  0.19687304467E+03  0.27288653538E+03  0.16500000000E+03 0.  0.
<mgrwt>
<rscale>  0 0.41104027E+03</rscale>
<asrwt>0</asrwt>
<pdfrwt beam="1">  1        2 0.11059478E+00 0.41104027E+03</pdfrwt>
<pdfrwt beam="2">  1       -2 0.77943165E-02 0.41104027E+03</pdfrwt>
<totfact> 0.40257601E+03</totfact>
</mgrwt>
</event>
<event>
 4    1  0.3541639E-005  0.6127299E+03  0.7818608E-02  0.9879342E-01
          2   -1    0    0  501    0  0.00000000000E+00  0.00000000000E+00  0.30349806610E+03  0.30349806611E+03  0.25500000000E-02 0.  1.
         -2   -1    0    0    0  501 -0.00000000000E+00 -0.00000000000E+00 -0.30925892987E+03  0.30925892988E+03  0.25500000000E-02 0. -1.
    5000001    1    1    2    0    0 -0.25548790059E+03  0.26450886713E+02 -0.28587022484E+02  0.30662017972E+03  0.16500000000E+03 0.  0.
   -5000001    1    1    2    0    0  0.25548790059E+03 -0.26450886713E+02  0.22826158709E+02  0.30613681627E+03  0.16500000000E+03 0.  0.
<mgrwt>
<rscale>  0 0.61272991E+03</rscale>
<asrwt>0</asrwt>
<pdfrwt beam="1">  1        2 0.43356867E-01 0.61272991E+03</pdfrwt>
<pdfrwt beam="2">  1       -2 0.44179847E-01 0.61272991E+03</pdfrwt>
<totfact> 0.57597333E+02</totfact>
</mgrwt>
</event>
<event>
 4    1  0.3541639E-005  0.8309094E+03  0.7818608E-02  0.9516324E-01
         -2   -1    0    0    0  501 -0.00000000000E+00  0.00000000000E+00  0.13785111034E+03  0.13785111036E+03  0.25500000000E-02 0. -1.
          2   -1    0    0  501    0  0.00000000000E+00 -0.00000000000E+00 -0.12520945700E+04  0.12520945700E+04  0.25500000000E-02 0.  1.
    5000001    1    1    2    0    0 -0.28033252005E+03  0.11617941929E+03 -0.94329468415E+03  0.10045465845E+04  0.16500000000E+03 0.  0.
   -5000001    1    1    2    0    0  0.28033252005E+03 -0.11617941929E+03 -0.17094877555E+03  0.38539909591E+03  0.16500000000E+03 0.  0.
<mgrwt>
<rscale>  0 0.83090945E+03</rscale>
<asrwt>0</asrwt>
<pdfrwt beam="1">  1        2 0.17887065E+00 0.83090945E+03</pdfrwt>
<pdfrwt beam="2">  1       -2 0.19693017E-01 0.83090945E+03</pdfrwt>
<totfact> 0.43912299E+02</totfact>
</mgrwt>
</event>
<event>
 4    1  0.3541639E-005  0.4997543E+03  0.7818608E-02  0.1013843E+00
         -2   -1    0    0    0  501 -0.00000000000E+00  0.00000000000E+00  0.28848137101E+02  0.28848137214E+02  0.25500000000E-02 0. -1.
          2   -1    0    0  501    0  0.00000000000E+00 -0.00000000000E+00 -0.21643891103E+04  0.21643891103E+04  0.25500000000E-02 0.  1.
    5000001    1    1    2    0    0  0.11826795937E+03  0.14482256189E+03 -0.11375358160E+04  0.11645486753E+04  0.16500000000E+03 0.  0.
   -5000001    1    1    2    0    0 -0.11826795937E+03 -0.14482256189E+03 -0.99800515724E+03  0.10286885722E+04  0.16500000000E+03 0.  0.
<mgrwt>
<rscale>  0 0.49975432E+03</rscale>
<asrwt>0</asrwt>
<pdfrwt beam="1">  1        2 0.30919834E+00 0.49975432E+03</pdfrwt>
<pdfrwt beam="2">  1       -2 0.41211638E-02 0.49975432E+03</pdfrwt>
<totfact> 0.19030929E+03</totfact>
</mgrwt>
</event>
<event>
 4    1  0.3541639E-005  0.5714981E+03  0.7818608E-02  0.9966369E-01
          2   -1    0    0  501    0  0.00000000000E+00  0.00000000000E+00  0.36718640365E+03  0.36718640366E+03  0.25500000000E-02 0.  1.
         -2   -1    0    0    0  501 -0.00000000000E+00 -0.00000000000E+00 -0.22237349517E+03  0.22237349519E+03  0.25500000000E-02 0. -1.
    5000001    1    1    2    0    0  0.11545326289E+02 -0.19899842645E+03 -0.52642774674E+02  0.26406425357E+03  0.16500000000E+03 0.  0.
   -5000001    1    1    2    0    0 -0.11545326289E+02  0.19899842645E+03  0.19745568315E+03  0.32549564528E+03  0.16500000000E+03 0.  0.
<mgrwt>
<rscale>  0 0.57149812E+03</rscale>
<asrwt>0</asrwt>
<pdfrwt beam="1">  1        2 0.52455200E-01 0.57149812E+03</pdfrwt>
<pdfrwt beam="2">  1       -2 0.31767642E-01 0.57149812E+03</pdfrwt>
<totfact> 0.87922854E+02</totfact>
</mgrwt>
</event>
<event>
 4    1  0.3541639E-005  0.4822687E+03  0.7818608E-02  0.1018514E+00
          2   -1    0    0  501    0  0.00000000000E+00  0.00000000000E+00  0.34073059325E+03  0.34073059326E+03  0.25500000000E-02 0.  1.
         -2   -1    0    0    0  501 -0.00000000000E+00 -0.00000000000E+00 -0.17065030894E+03  0.17065030896E+03  0.25500000000E-02 0. -1.
    5000001    1    1    2    0    0 -0.16399204101E+03  0.50941288951E+02  0.44908769911E+02  0.24234314938E+03  0.16500000000E+03 0.  0.
   -5000001    1    1    2    0    0  0.16399204101E+03 -0.50941288951E+02  0.12517151440E+03  0.26903775284E+03  0.16500000000E+03 0.  0.
<mgrwt>
<rscale>  0 0.48226873E+03</rscale>
<asrwt>0</asrwt>
<pdfrwt beam="1">  1        2 0.48675799E-01 0.48226873E+03</pdfrwt>
<pdfrwt beam="2">  1       -2 0.24378616E-01 0.48226873E+03</pdfrwt>
<totfact> 0.15459566E+03</totfact>
</mgrwt>
</event>
<event>
 4    1  0.3541639E-005  0.5844234E+03  0.7818608E-02  0.9938260E-01
         -2   -1    0    0    0  501 -0.00000000000E+00  0.00000000000E+00  0.28634627973E+03  0.28634627974E+03  0.25500000000E-02 0. -1.
          2   -1    0    0  501    0  0.00000000000E+00 -0.00000000000E+00 -0.29819722420E+03  0.29819722421E+03  0.25500000000E-02 0.  1.
    5000001    1    1    2    0    0 -0.17227799011E+03  0.10743641972E+03 -0.13610742747E+03  0.29491104078E+03  0.16500000000E+03 0.  0.
   -5000001    1    1    2    0    0  0.17227799011E+03 -0.10743641972E+03  0.12425648301E+03  0.28963246318E+03  0.16500000000E+03 0.  0.
<mgrwt>
<rscale>  0 0.58442336E+03</rscale>
<asrwt>0</asrwt>
<pdfrwt beam="1">  1        2 0.42599603E-01 0.58442336E+03</pdfrwt>
<pdfrwt beam="2">  1       -2 0.40906612E-01 0.58442336E+03</pdfrwt>
<totfact> 0.68337438E+02</totfact>
</mgrwt>
</event>
<event>
 4    1  0.3541639E-005  0.5544229E+03  0.7818608E-02  0.1000475E+00
          2   -1    0    0  501    0  0.00000000000E+00  0.00000000000E+00  0.13750865691E+04  0.13750865691E+04  0.25500000000E-02 0.  1.
         -2   -1    0    0    0  501 -0.00000000000E+00 -0.00000000000E+00 -0.55884608848E+02  0.55884608906E+02  0.25500000000E-02 0. -1.
    5000001    1    1    2    0    0 -0.13119935629E+03  0.14519815023E+03  0.93427435269E+03  0.96870498090E+03  0.16500000000E+03 0.  0.
   -5000001    1    1    2    0    0  0.13119935629E+03 -0.14519815023E+03  0.38492760751E+03  0.46226619706E+03  0.16500000000E+03 0.  0.
<mgrwt>
<rscale>  0 0.55442285E+03</rscale>
<asrwt>0</asrwt>
<pdfrwt beam="1">  1        2 0.19644097E+00 0.55442285E+03</pdfrwt>
<pdfrwt beam="2">  1       -2 0.79835143E-02 0.55442285E+03</pdfrwt>
<totfact> 0.17047169E+03</totfact>
</mgrwt>
</event>
<event>
 4    1  0.3541639E-005  0.4836825E+03  0.7818608E-02  0.1018128E+00
          2   -1    0    0  501    0  0.00000000000E+00  0.00000000000E+00  0.25552468793E+04  0.25552468793E+04  0.25500000000E-02 0.  1.
         -2   -1    0    0    0  501 -0.00000000000E+00 -0.00000000000E+00 -0.22889054148E+02  0.22889054290E+02  0.25500000000E-02 0. -1.
    5000001    1    1    2    0    0  0.11537091601E+03 -0.29084457450E+02  0.56904286392E+03  0.60431046235E+03  0.16500000000E+03 0.  0.
   -5000001    1    1    2    0    0 -0.11537091601E+03  0.29084457450E+02  0.19633149613E+04  0.19738254713E+04  0.16500000000E+03 0.  0.
<mgrwt>
<rscale>  0 0.48368248E+03</rscale>
<asrwt>0</asrwt>
<pdfrwt beam="1">  1        2 0.36503507E+00 0.48368248E+03</pdfrwt>
<pdfrwt beam="2">  1       -2 0.32698667E-02 0.48368248E+03</pdfrwt>
<totfact> 0.17204612E+03</totfact>
</mgrwt>
</event>
<event>
 4    1  0.3541639E-005  0.8829372E+03  0.7818608E-02  0.9447166E-01
         -2   -1    0    0    0  501 -0.00000000000E+00  0.00000000000E+00  0.16949249250E+03  0.16949249252E+03  0.25500000000E-02 0. -1.
          2   -1    0    0  501    0  0.00000000000E+00 -0.00000000000E+00 -0.11498710625E+04  0.11498710625E+04  0.25500000000E-02 0.  1.
    5000001    1    1    2    0    0  0.25338431985E+03 -0.30031930195E+03 -0.66235200629E+03  0.78761061249E+03  0.16500000000E+03 0.  0.
   -5000001    1    1    2    0    0 -0.25338431985E+03  0.30031930195E+03 -0.31802656373E+03  0.53175294255E+03  0.16500000000E+03 0.  0.
<mgrwt>
<rscale>  0 0.88293717E+03</rscale>
<asrwt>0</asrwt>
<pdfrwt beam="1">  1        2 0.16426729E+00 0.88293717E+03</pdfrwt>
<pdfrwt beam="2">  1       -2 0.24213214E-01 0.88293717E+03</pdfrwt>
<totfact> 0.34704686E+02</totfact>
</mgrwt>
</event>
<event>
 4    1  0.3541639E-005  0.5017879E+03  0.7818608E-02  0.1013313E+00
          2   -1    0    0  501    0  0.00000000000E+00  0.00000000000E+00  0.11080527570E+04  0.11080527570E+04  0.25500000000E-02 0. -1.
         -2   -1    0    0    0  501 -0.00000000000E+00 -0.00000000000E+00 -0.56809367497E+02  0.56809367554E+02  0.25500000000E-02 0.  1.
    5000001    1    1    2    0    0 -0.71870163029E+02 -0.14611038777E+03  0.30284716589E+03  0.38138559443E+03  0.16500000000E+03 0.  0.
   -5000001    1    1    2    0    0  0.71870163029E+02  0.14611038777E+03  0.74839622366E+03  0.78347653017E+03  0.16500000000E+03 0.  0.
<mgrwt>
<rscale>  0 0.50178791E+03</rscale>
<asrwt>0</asrwt>
<pdfrwt beam="1">  1        2 0.15829326E+00 0.50178791E+03</pdfrwt>
<pdfrwt beam="2">  1       -2 0.81156232E-02 0.50178791E+03</pdfrwt>
<totfact> 0.23334647E+03</totfact>
</mgrwt>
</event>
<event>
 4    1  0.3541639E-005  0.3746523E+03  0.7818608E-02  0.1052928E+00
         -2   -1    0    0    0  501 -0.00000000000E+00  0.00000000000E+00  0.27299487170E+02  0.27299487289E+02  0.25500000000E-02 0. -1.
          2   -1    0    0  501    0  0.00000000000E+00 -0.00000000000E+00 -0.12854119540E+04  0.12854119540E+04  0.25500000000E-02 0.  1.
    5000001    1    1    2    0    0 -0.48209497614E+02  0.74128064078E+02 -0.65306736789E+03  0.67936817158E+03  0.16500000000E+03 0.  0.
   -5000001    1    1    2    0    0  0.48209497614E+02 -0.74128064078E+02 -0.60504509890E+03  0.63334326968E+03  0.16500000000E+03 0.  0.
<mgrwt>
<rscale>  0 0.37465230E+03</rscale>
<asrwt>0</asrwt>
<pdfrwt beam="1">  1        2 0.18363024E+00 0.37465230E+03</pdfrwt>
<pdfrwt beam="2">  1       -2 0.38999276E-02 0.37465230E+03</pdfrwt>
<totfact> 0.57846424E+03</totfact>
</mgrwt>
</event>
<event>
 4    1  0.3541639E-005  0.3863721E+03  0.7818608E-02  0.1048603E+00
         -2   -1    0    0    0  501 -0.00000000000E+00  0.00000000000E+00  0.13642594809E+04  0.13642594809E+04  0.25500000000E-02 0. -1.
          2   -1    0    0  501    0  0.00000000000E+00 -0.00000000000E+00 -0.27356122727E+02  0.27356122846E+02  0.25500000000E-02 0.  1.
    5000001    1    1    2    0    0  0.93973505161E+02 -0.23269818068E+02  0.57158230256E+03  0.60274690601E+03  0.16500000000E+03 0.  0.
   -5000001    1    1    2    0    0 -0.93973505161E+02  0.23269818068E+02  0.76532105557E+03  0.78886869769E+03  0.16500000000E+03 0.  0.
<mgrwt>
<rscale>  0 0.38637210E+03</rscale>
<asrwt>0</asrwt>
<pdfrwt beam="1">  1        2 0.39080166E-02 0.38637210E+03</pdfrwt>
<pdfrwt beam="2">  1       -2 0.19489426E+00 0.38637210E+03</pdfrwt>
<totfact> 0.34068102E+02</totfact>
</mgrwt>
</event>
<event>
 4    1  0.3541639E-005  0.5995566E+03  0.7818608E-02  0.9906326E-01
         -2   -1    0    0    0  501 -0.00000000000E+00  0.00000000000E+00  0.75772002020E+02  0.75772002063E+02  0.25500000000E-02 0.  1.
          2   -1    0    0  501    0  0.00000000000E+00 -0.00000000000E+00 -0.11860189502E+04  0.11860189502E+04  0.25500000000E-02 0. -1.
    5000001    1    1    2    0    0  0.23782618717E+02 -0.22105227014E+03 -0.79702946034E+03  0.84374799540E+03  0.16500000000E+03 0.  0.
   -5000001    1    1    2    0    0 -0.23782618717E+02  0.22105227014E+03 -0.31321748779E+03  0.41804295682E+03  0.16500000000E+03 0.  0.
<mgrwt>
<rscale>  0 0.59955660E+03</rscale>
<asrwt>0</asrwt>
<pdfrwt beam="1">  1        2 0.16943127E+00 0.59955660E+03</pdfrwt>
<pdfrwt beam="2">  1       -2 0.10824572E-01 0.59955660E+03</pdfrwt>
<totfact> 0.13229942E+03</totfact>
</mgrwt>
</event>
<event>
 4    1  0.3541639E-005  0.4150280E+03  0.7818608E-02  0.1038697E+00
          2   -1    0    0  501    0  0.00000000000E+00  0.00000000000E+00  0.41938985788E+03  0.41938985789E+03  0.25500000000E-02 0.  1.
         -2   -1    0    0    0  501 -0.00000000000E+00 -0.00000000000E+00 -0.10267788244E+03  0.10267788247E+03  0.25500000000E-02 0. -1.
    5000001    1    1    2    0    0  0.24838120191E+02 -0.11538139220E+03  0.10342025406E+03  0.22770715147E+03  0.16500000000E+03 0.  0.
   -5000001    1    1    2    0    0 -0.24838120191E+02  0.11538139220E+03  0.21329172138E+03  0.29436058889E+03  0.16500000000E+03 0.  0.
<mgrwt>
<rscale>  0 0.41502801E+03</rscale>
<asrwt>0</asrwt>
<pdfrwt beam="1">  1        2 0.59912836E-01 0.41502801E+03</pdfrwt>
<pdfrwt beam="2">  1       -2 0.14668269E-01 0.41502801E+03</pdfrwt>
<totfact> 0.29430495E+03</totfact>
</mgrwt>
</event>
<event>
 4    1  0.3541639E-005  0.4820332E+03  0.7818608E-02  0.1018578E+00
         -2   -1    0    0    0  501 -0.00000000000E+00  0.00000000000E+00  0.20726034996E+03  0.20726034997E+03  0.25500000000E-02 0. -1.
          2   -1    0    0  501    0  0.00000000000E+00 -0.00000000000E+00 -0.28027072461E+03  0.28027072462E+03  0.25500000000E-02 0.  1.
    5000001    1    1    2    0    0 -0.15749101259E+03 -0.83165451231E+01 -0.11479231702E+03  0.25548945187E+03  0.16500000000E+03 0.  0.
   -5000001    1    1    2    0    0  0.15749101259E+03  0.83165451231E+01  0.41781942364E+02  0.23204162273E+03  0.16500000000E+03 0.  0.
<mgrwt>
<rscale>  0 0.48203323E+03</rscale>
<asrwt>0</asrwt>
<pdfrwt beam="1">  1        2 0.40038675E-01 0.48203323E+03</pdfrwt>
<pdfrwt beam="2">  1       -2 0.29608622E-01 0.48203323E+03</pdfrwt>
<totfact> 0.13479892E+03</totfact>
</mgrwt>
</event>
<event>
 4    1  0.3541639E-005  0.5325500E+03  0.7818608E-02  0.1005616E+00
         -2   -1    0    0    0  501 -0.00000000000E+00  0.00000000000E+00  0.57000808086E+03  0.57000808086E+03  0.25500000000E-02 0. -1.
          2   -1    0    0  501    0  0.00000000000E+00 -0.00000000000E+00 -0.12438838385E+03  0.12438838387E+03  0.25500000000E-02 0.  1.
    5000001    1    1    2    0    0  0.19684462391E+03  0.66700856786E+02  0.19422557946E+03  0.32885465782E+03  0.16500000000E+03 0.  0.
   -5000001    1    1    2    0    0 -0.19684462391E+03 -0.66700856786E+02  0.25139411756E+03  0.36554180691E+03  0.16500000000E+03 0.  0.
<mgrwt>
<rscale>  0 0.53255003E+03</rscale>
<asrwt>0</asrwt>
<pdfrwt beam="1">  1        2 0.17769769E-01 0.53255003E+03</pdfrwt>
<pdfrwt beam="2">  1       -2 0.81429727E-01 0.53255003E+03</pdfrwt>
<totfact> 0.43832897E+02</totfact>
</mgrwt>
</event>
<event>
 4    1  0.3541639E-005  0.4336266E+03  0.7818608E-02  0.1032720E+00
          2   -1    0    0  501    0  0.00000000000E+00  0.00000000000E+00  0.23290180809E+03  0.23290180810E+03  0.25500000000E-02 0.  1.
         -2   -1    0    0    0  501 -0.00000000000E+00 -0.00000000000E+00 -0.20183613964E+03  0.20183613966E+03  0.25500000000E-02 0. -1.
    5000001    1    1    2    0    0  0.39521352144E+02 -0.12683000913E+03 -0.30793965518E+02  0.21405853593E+03  0.16500000000E+03 0.  0.
   -5000001    1    1    2    0    0 -0.39521352144E+02  0.12683000913E+03  0.61859633966E+02  0.22067941183E+03  0.16500000000E+03 0.  0.
<mgrwt>
<rscale>  0 0.43362658E+03</rscale>
<asrwt>0</asrwt>
<pdfrwt beam="1">  1        2 0.33271687E-01 0.43362658E+03</pdfrwt>
<pdfrwt beam="2">  1       -2 0.28833734E-01 0.43362658E+03</pdfrwt>
<totfact> 0.17338279E+03</totfact>
</mgrwt>
</event>
<event>
 4    1  0.3541639E-005  0.1354194E+04  0.7818608E-02  0.8987660E-01
          2   -1    0    0  501    0  0.00000000000E+00  0.00000000000E+00  0.26541470696E+04  0.26541470696E+04  0.25500000000E-02 0.  1.
         -2   -1    0    0    0  501 -0.00000000000E+00 -0.00000000000E+00 -0.17273348695E+03  0.17273348697E+03  0.25500000000E-02 0. -1.
    5000001    1    1    2    0    0  0.53600043819E+03  0.34157791967E+03  0.15853856009E+04  0.17159966341E+04  0.16500000000E+03 0.  0.
   -5000001    1    1    2    0    0 -0.53600043819E+03 -0.34157791967E+03  0.89602798176E+03  0.11108839224E+04  0.16500000000E+03 0.  0.
<mgrwt>
<rscale>  0 0.13541936E+04</rscale>
<asrwt>0</asrwt>
<pdfrwt beam="1">  1        2 0.37916388E+00 0.13541936E+04</pdfrwt>
<pdfrwt beam="2">  1       -2 0.24676211E-01 0.13541936E+04</pdfrwt>
<totfact> 0.52589615E+01</totfact>
</mgrwt>
</event>
<event>
 4    1  0.3541639E-005  0.6683755E+03  0.7818608E-02  0.9772897E-01
          2   -1    0    0  501    0  0.00000000000E+00  0.00000000000E+00  0.28751668766E+04  0.28751668766E+04  0.25500000000E-02 0.  1.
         -2   -1    0    0    0  501 -0.00000000000E+00 -0.00000000000E+00 -0.38843467616E+02  0.38843467700E+02  0.25500000000E-02 0. -1.
    5000001    1    1    2    0    0  0.10146491133E+03 -0.15834845123E+03  0.45221265873E+03  0.51680813553E+03  0.16500000000E+03 0.  0.
   -5000001    1    1    2    0    0 -0.10146491133E+03  0.15834845123E+03  0.23841107502E+04  0.23972022087E+04  0.16500000000E+03 0.  0.
<mgrwt>
<rscale>  0 0.66837550E+03</rscale>
<asrwt>0</asrwt>
<pdfrwt beam="1">  1        2 0.41073808E+00 0.66837550E+03</pdfrwt>
<pdfrwt beam="2">  1       -2 0.55490674E-02 0.66837550E+03</pdfrwt>
<totfact> 0.51067674E+02</totfact>
</mgrwt>
</event>
<event>
 4    1  0.3541639E-005  0.5962101E+03  0.7818608E-02  0.9913300E-01
         -2   -1    0    0    0  501 -0.00000000000E+00  0.00000000000E+00  0.46530181060E+02  0.46530181130E+02  0.25500000000E-02 0. -1.
          2   -1    0    0  501    0  0.00000000000E+00 -0.00000000000E+00 -0.19098703477E+04  0.19098703477E+04  0.25500000000E-02 0.  1.
    5000001    1    1    2    0    0  0.22771669266E+03  0.66610879885E+02 -0.69166322553E+03  0.74960984451E+03  0.16500000000E+03 0.  0.
   -5000001    1    1    2    0    0 -0.22771669266E+03 -0.66610879885E+02 -0.11716769411E+04  0.12067906843E+04  0.16500000000E+03 0.  0.
<mgrwt>
<rscale>  0 0.59621007E+03</rscale>
<asrwt>0</asrwt>
<pdfrwt beam="1">  1        2 0.27283857E+00 0.59621007E+03</pdfrwt>
<pdfrwt beam="2">  1       -2 0.66471699E-02 0.59621007E+03</pdfrwt>
<totfact> 0.12093842E+03</totfact>
</mgrwt>
</event>
<event>
 4    1  0.3541639E-005  0.6494665E+03  0.7818608E-02  0.9807781E-01
         -2   -1    0    0    0  501 -0.00000000000E+00  0.00000000000E+00  0.12173663947E+03  0.12173663949E+03  0.25500000000E-02 0. -1.
          2   -1    0    0  501    0  0.00000000000E+00 -0.00000000000E+00 -0.86622795046E+03  0.86622795046E+03  0.25500000000E-02 0.  1.
    5000001    1    1    2    0    0 -0.19168550373E+03 -0.20185160375E+03 -0.41360640112E+03  0.52515012837E+03  0.16500000000E+03 0.  0.
   -5000001    1    1    2    0    0  0.19168550373E+03  0.20185160375E+03 -0.33088490987E+03  0.46281446159E+03  0.16500000000E+03 0.  0.
<mgrwt>
<rscale>  0 0.64946649E+03</rscale>
<asrwt>0</asrwt>
<pdfrwt beam="1">  1        2 0.12374685E+00 0.64946649E+03</pdfrwt>
<pdfrwt beam="2">  1       -2 0.17390949E-01 0.64946649E+03</pdfrwt>
<totfact> 0.93488204E+02</totfact>
</mgrwt>
</event>
<event>
 4    1  0.3541639E-005  0.5248119E+03  0.7818608E-02  0.1007498E+00
          2   -1    0    0  501    0  0.00000000000E+00  0.00000000000E+00  0.94056896095E+03  0.94056896095E+03  0.25500000000E-02 0.  1.
         -2   -1    0    0    0  501 -0.00000000000E+00 -0.00000000000E+00 -0.73207685109E+02  0.73207685154E+02  0.25500000000E-02 0. -1.
    5000001    1    1    2    0    0  0.13272583541E+03 -0.10341996206E+03  0.21073889135E+03  0.31614508736E+03  0.16500000000E+03 0.  0.
   -5000001    1    1    2    0    0 -0.13272583541E+03  0.10341996206E+03  0.65662238449E+03  0.69763155874E+03  0.16500000000E+03 0.  0.
<mgrwt>
<rscale>  0 0.52481188E+03</rscale>
<asrwt>0</asrwt>
<pdfrwt beam="1">  1        2 0.13436698E+00 0.52481188E+03</pdfrwt>
<pdfrwt beam="2">  1       -2 0.10458242E-01 0.52481188E+03</pdfrwt>
<totfact> 0.19568805E+03</totfact>
</mgrwt>
</event>
<event>
 4    1  0.3541639E-005  0.3654676E+03  0.7818608E-02  0.1056440E+00
          2   -1    0    0  501    0  0.00000000000E+00  0.00000000000E+00  0.12810019584E+04  0.12810019584E+04  0.25500000000E-02 0.  1.
         -2   -1    0    0    0  501 -0.00000000000E+00 -0.00000000000E+00 -0.26066815364E+02  0.26066815488E+02  0.25500000000E-02 0. -1.
    5000001    1    1    2    0    0 -0.54244952431E+02  0.56215741164E+02  0.65606048534E+03  0.68098684630E+03  0.16500000000E+03 0.  0.
   -5000001    1    1    2    0    0  0.54244952431E+02 -0.56215741164E+02  0.59887465775E+03  0.62608192764E+03  0.16500000000E+03 0.  0.
<mgrwt>
<rscale>  0 0.36546760E+03</rscale>
<asrwt>0</asrwt>
<pdfrwt beam="1">  1        2 0.18300027E+00 0.36546760E+03</pdfrwt>
<pdfrwt beam="2">  1       -2 0.37238310E-02 0.36546760E+03</pdfrwt>
<totfact> 0.62357098E+03</totfact>
</mgrwt>
</event>
<event>
 4    1  0.3541639E-005  0.4885595E+03  0.7818608E-02  0.1016809E+00
         -2   -1    0    0    0  501 -0.00000000000E+00  0.00000000000E+00  0.76970115783E+02  0.76970115825E+02  0.25500000000E-02 0. -1.
          2   -1    0    0  501    0  0.00000000000E+00 -0.00000000000E+00 -0.77526961009E+03  0.77526961010E+03  0.25500000000E-02 0.  1.
    5000001    1    1    2    0    0 -0.22287858579E+02 -0.16950590936E+03 -0.44811372391E+03  0.50720795686E+03  0.16500000000E+03 0.  0.
   -5000001    1    1    2    0    0  0.22287858579E+02  0.16950590936E+03 -0.25018577040E+03  0.34503176906E+03  0.16500000000E+03 0.  0.
<mgrwt>
<rscale>  0 0.48855948E+03</rscale>
<asrwt>0</asrwt>
<pdfrwt beam="1">  1        2 0.11075280E+00 0.48855948E+03</pdfrwt>
<pdfrwt beam="2">  1       -2 0.10995731E-01 0.48855948E+03</pdfrwt>
<totfact> 0.23204113E+03</totfact>
</mgrwt>
</event>
<event>
 4    1  0.3541639E-005  0.4185740E+03  0.7818608E-02  0.1037531E+00
          2   -1    0    0  501    0  0.00000000000E+00  0.00000000000E+00  0.37265880419E+03  0.37265880420E+03  0.25500000000E-02 0.  1.
         -2   -1    0    0    0  501 -0.00000000000E+00 -0.00000000000E+00 -0.11753657942E+03  0.11753657945E+03  0.25500000000E-02 0. -1.
    5000001    1    1    2    0    0 -0.93826077772E+02  0.62865082407E+02  0.55172894035E+02  0.20742323807E+03  0.16500000000E+03 0.  0.
   -5000001    1    1    2    0    0  0.93826077772E+02 -0.62865082407E+02  0.19994933073E+03  0.28277214558E+03  0.16500000000E+03 0.  0.
<mgrwt>
<rscale>  0 0.41857397E+03</rscale>
<asrwt>0</asrwt>
<pdfrwt beam="1">  1        2 0.53236973E-01 0.41857397E+03</pdfrwt>
<pdfrwt beam="2">  1       -2 0.16790940E-01 0.41857397E+03</pdfrwt>
<totfact> 0.26713128E+03</totfact>
</mgrwt>
</event>
<event>
 4    1  0.3541639E-005  0.5941498E+03  0.7818608E-02  0.9917618E-01
          2   -1    0    0  501    0  0.00000000000E+00  0.00000000000E+00  0.59982638964E+03  0.59982638965E+03  0.25500000000E-02 0.  1.
         -2   -1    0    0    0  501 -0.00000000000E+00 -0.00000000000E+00 -0.14713172258E+03  0.14713172261E+03  0.25500000000E-02 0. -1.
    5000001    1    1    2    0    0  0.74529550408E+02 -0.22877362288E+03  0.15593956670E+03  0.33080836276E+03  0.16500000000E+03 0.  0.
   -5000001    1    1    2    0    0 -0.74529550408E+02  0.22877362288E+03  0.29675510036E+03  0.41614974949E+03  0.16500000000E+03 0.  0.
<mgrwt>
<rscale>  0 0.59414978E+03</rscale>
<asrwt>0</asrwt>
<pdfrwt beam="1">  1        2 0.85689484E-01 0.59414978E+03</pdfrwt>
<pdfrwt beam="2">  1       -2 0.21018818E-01 0.59414978E+03</pdfrwt>
<totfact> 0.10629742E+03</totfact>
</mgrwt>
</event>
<event>
 4    1  0.3541639E-005  0.5166318E+03  0.7818608E-02  0.1009527E+00
         -2   -1    0    0    0  501 -0.00000000000E+00  0.00000000000E+00  0.69653823743E+02  0.69653823790E+02  0.25500000000E-02 0. -1.
          2   -1    0    0  501    0  0.00000000000E+00 -0.00000000000E+00 -0.95798196715E+03  0.95798196715E+03  0.25500000000E-02 0.  1.
    5000001    1    1    2    0    0 -0.12499663453E+03 -0.12695406077E+03 -0.26893500619E+03  0.36234311053E+03  0.16500000000E+03 0.  0.
   -5000001    1    1    2    0    0  0.12499663453E+03  0.12695406077E+03 -0.61939313721E+03  0.66529268041E+03  0.16500000000E+03 0.  0.
<mgrwt>
<rscale>  0 0.51663181E+03</rscale>
<asrwt>0</asrwt>
<pdfrwt beam="1">  1        2 0.13685456E+00 0.51663181E+03</pdfrwt>
<pdfrwt beam="2">  1       -2 0.99505468E-02 0.51663181E+03</pdfrwt>
<totfact> 0.20687464E+03</totfact>
</mgrwt>
</event>
<event>
 4    1  0.3541639E-005  0.3768828E+03  0.7818608E-02  0.1052092E+00
         -2   -1    0    0    0  501 -0.00000000000E+00  0.00000000000E+00  0.70108178757E+02  0.70108178803E+02  0.25500000000E-02 0. -1.
          2   -1    0    0  501    0  0.00000000000E+00 -0.00000000000E+00 -0.50650531665E+03  0.50650531665E+03  0.25500000000E-02 0.  1.
    5000001    1    1    2    0    0 -0.70346584039E+02 -0.41569110242E+02 -0.27955970306E+03  0.33474656143E+03  0.16500000000E+03 0.  0.
   -5000001    1    1    2    0    0  0.70346584039E+02  0.41569110242E+02 -0.15683743483E+03  0.24186693403E+03  0.16500000000E+03 0.  0.
<mgrwt>
<rscale>  0 0.37688282E+03</rscale>
<asrwt>0</asrwt>
<pdfrwt beam="1">  1        2 0.72357900E-01 0.37688282E+03</pdfrwt>
<pdfrwt beam="2">  1       -2 0.10015454E-01 0.37688282E+03</pdfrwt>
<totfact> 0.44411745E+03</totfact>
</mgrwt>
</event>
<event>
 4    1  0.3541639E-005  0.3690347E+03  0.7818608E-02  0.1055063E+00
         -2   -1    0    0    0  501 -0.00000000000E+00  0.00000000000E+00  0.39292803700E+02  0.39292803783E+02  0.25500000000E-02 0. -1.
          2   -1    0    0  501    0  0.00000000000E+00 -0.00000000000E+00 -0.86648553780E+03  0.86648553780E+03  0.25500000000E-02 0.  1.
    5000001    1    1    2    0    0  0.46374163651E+02 -0.13437095068E+02 -0.24912001968E+03  0.30268284190E+03  0.16500000000E+03 0.  0.
   -5000001    1    1    2    0    0 -0.46374163651E+02  0.13437095068E+02 -0.57807271442E+03  0.60309549968E+03  0.16500000000E+03 0.  0.
<mgrwt>
<rscale>  0 0.36903467E+03</rscale>
<asrwt>0</asrwt>
<pdfrwt beam="1">  1        2 0.12378364E+00 0.36903467E+03</pdfrwt>
<pdfrwt beam="2">  1       -2 0.56132582E-02 0.36903467E+03</pdfrwt>
<totfact> 0.58097253E+03</totfact>
</mgrwt>
</event>
<event>
 4    1  0.3541639E-005  0.6900790E+03  0.7818608E-02  0.9734350E-01
          2   -1    0    0  501    0  0.00000000000E+00  0.00000000000E+00  0.41510168669E+03  0.41510168670E+03  0.25500000000E-02 0.  1.
         -2   -1    0    0    0  501 -0.00000000000E+00 -0.00000000000E+00 -0.28680265656E+03  0.28680265657E+03  0.25500000000E-02 0. -1.
    5000001    1    1    2    0    0  0.26703716063E+03 -0.11410644510E+03 -0.23926141195E+02  0.33485308152E+03  0.16500000000E+03 0.  0.
   -5000001    1    1    2    0    0 -0.26703716063E+03  0.11410644510E+03  0.15222517132E+03  0.36705126175E+03  0.16500000000E+03 0.  0.
<mgrwt>
<rscale>  0 0.69007903E+03</rscale>
<asrwt>0</asrwt>
<pdfrwt beam="1">  1        2 0.59300241E-01 0.69007903E+03</pdfrwt>
<pdfrwt beam="2">  1       -2 0.40971808E-01 0.69007903E+03</pdfrwt>
<totfact> 0.47119631E+02</totfact>
</mgrwt>
</event>
<event>
 4    1  0.3541639E-005  0.9164050E+03  0.7818608E-02  0.9405304E-01
          2   -1    0    0  501    0  0.00000000000E+00  0.00000000000E+00  0.33184693725E+03  0.33184693726E+03  0.25500000000E-02 0.  1.
         -2   -1    0    0    0  501 -0.00000000000E+00 -0.00000000000E+00 -0.63266974374E+03  0.63266974374E+03  0.25500000000E-02 0. -1.
    5000001    1    1    2    0    0 -0.15034589416E+03  0.48367074921E+02  0.26765956540E+03  0.35186631663E+03  0.16500000000E+03 0.  0.
   -5000001    1    1    2    0    0  0.15034589416E+03 -0.48367074921E+02 -0.56848237189E+03  0.61265036438E+03  0.16500000000E+03 0.  0.
<mgrwt>
<rscale>  0 0.91640497E+03</rscale>
<asrwt>0</asrwt>
<pdfrwt beam="1">  1        2 0.47406706E-01 0.91640497E+03</pdfrwt>
<pdfrwt beam="2">  1       -2 0.90381391E-01 0.91640497E+03</pdfrwt>
<totfact> 0.11187555E+02</totfact>
</mgrwt>
</event>
<event>
 4    1  0.3541639E-005  0.3634912E+03  0.7818608E-02  0.1057210E+00
          2   -1    0    0  501    0  0.00000000000E+00  0.00000000000E+00  0.12665734331E+04  0.12665734331E+04  0.25500000000E-02 0.  1.
         -2   -1    0    0    0  501 -0.00000000000E+00 -0.00000000000E+00 -0.26079396055E+02  0.26079396180E+02  0.25500000000E-02 0. -1.
    5000001    1    1    2    0    0  0.39973023041E+02  0.57389169466E+02  0.72782535513E+03  0.74956394451E+03  0.16500000000E+03 0.  0.
   -5000001    1    1    2    0    0 -0.39973023041E+02 -0.57389169466E+02  0.51266868190E+03  0.54308888476E+03  0.16500000000E+03 0.  0.
<mgrwt>
<rscale>  0 0.36349124E+03</rscale>
<asrwt>0</asrwt>
<pdfrwt beam="1">  1        2 0.18093907E+00 0.36349124E+03</pdfrwt>
<pdfrwt beam="2">  1       -2 0.37256278E-02 0.36349124E+03</pdfrwt>
<totfact> 0.63428527E+03</totfact>
</mgrwt>
</event>
<event>
 4    1  0.3541639E-005  0.7288791E+03  0.7818608E-02  0.9669081E-01
         -2   -1    0    0    0  501 -0.00000000000E+00  0.00000000000E+00  0.31866223666E+02  0.31866223768E+02  0.25500000000E-02 0. -1.
          2   -1    0    0  501    0  0.00000000000E+00 -0.00000000000E+00 -0.41679294523E+04  0.41679294523E+04  0.25500000000E-02 0.  1.
    5000001    1    1    2    0    0 -0.86428012224E+02  0.18459932140E+03 -0.60984376217E+03  0.66383817683E+03  0.16500000000E+03 0.  0.
   -5000001    1    1    2    0    0  0.86428012224E+02 -0.18459932140E+03 -0.35262194665E+04  0.35359574993E+04  0.16500000000E+03 0.  0.
<mgrwt>
<rscale>  0 0.72887906E+03</rscale>
<asrwt>0</asrwt>
<pdfrwt beam="1">  1        2 0.59541815E+00 0.72887906E+03</pdfrwt>
<pdfrwt beam="2">  1       -2 0.45523203E-02 0.72887906E+03</pdfrwt>
<totfact> 0.11376060E+02</totfact>
</mgrwt>
</event>
<event>
 4    1  0.3541639E-005  0.4409097E+03  0.7818608E-02  0.1030468E+00
          2   -1    0    0  501    0  0.00000000000E+00  0.00000000000E+00  0.10053323529E+04  0.10053323529E+04  0.25500000000E-02 0.  1.
         -2   -1    0    0    0  501 -0.00000000000E+00 -0.00000000000E+00 -0.48342571189E+02  0.48342571256E+02  0.25500000000E-02 0. -1.
    5000001    1    1    2    0    0  0.13387110891E+03 -0.59134535981E+01  0.33876135044E+03  0.39992586223E+03  0.16500000000E+03 0.  0.
   -5000001    1    1    2    0    0 -0.13387110891E+03  0.59134535981E+01  0.61822843127E+03  0.65374906193E+03  0.16500000000E+03 0.  0.
<mgrwt>
<rscale>  0 0.44090975E+03</rscale>
<asrwt>0</asrwt>
<pdfrwt beam="1">  1        2 0.14361890E+00 0.44090975E+03</pdfrwt>
<pdfrwt beam="2">  1       -2 0.69060821E-02 0.44090975E+03</pdfrwt>
<totfact> 0.34582245E+03</totfact>
</mgrwt>
</event>
<event>
 4    1  0.3541639E-005  0.3631287E+03  0.7818608E-02  0.1057352E+00
          2   -1    0    0  501    0  0.00000000000E+00  0.00000000000E+00  0.25943653930E+04  0.25943653930E+04  0.25500000000E-02 0.  1.
         -2   -1    0    0    0  501 -0.00000000000E+00 -0.00000000000E+00 -0.12706620985E+02  0.12706621241E+02  0.25500000000E-02 0. -1.
    5000001    1    1    2    0    0  0.15007792470E+02 -0.59248024568E+02  0.16123106415E+04  0.16218835245E+04  0.16500000000E+03 0.  0.
   -5000001    1    1    2    0    0 -0.15007792470E+02  0.59248024568E+02  0.96934813052E+03  0.98518848977E+03  0.16500000000E+03 0.  0.
<mgrwt>
<rscale>  0 0.36312873E+03</rscale>
<asrwt>0</asrwt>
<pdfrwt beam="1">  1        2 0.37062406E+00 0.36312873E+03</pdfrwt>
<pdfrwt beam="2">  1       -2 0.18152295E-02 0.36312873E+03</pdfrwt>
<totfact> 0.39946091E+03</totfact>
</mgrwt>
</event>
<event>
 4    1  0.3541639E-005  0.5006214E+03  0.7818608E-02  0.1013617E+00
         -2   -1    0    0    0  501 -0.00000000000E+00  0.00000000000E+00  0.39883518947E+02  0.39883519028E+02  0.25500000000E-02 0. -1.
          2   -1    0    0  501    0  0.00000000000E+00 -0.00000000000E+00 -0.15709610701E+04  0.15709610701E+04  0.25500000000E-02 0.  1.
    5000001    1    1    2    0    0 -0.14759646070E+03  0.56971567819E+02 -0.43739779479E+03  0.49353045057E+03  0.16500000000E+03 0.  0.
   -5000001    1    1    2    0    0  0.14759646070E+03 -0.56971567819E+02 -0.10936797563E+04  0.11173141385E+04  0.16500000000E+03 0.  0.
<mgrwt>
<rscale>  0 0.50062144E+03</rscale>
<asrwt>0</asrwt>
<pdfrwt beam="1">  1        2 0.22442297E+00 0.50062144E+03</pdfrwt>
<pdfrwt beam="2">  1       -2 0.56976465E-02 0.50062144E+03</pdfrwt>
<totfact> 0.22930575E+03</totfact>
</mgrwt>
</event>
<event>
 4    1  0.3541639E-005  0.1243830E+04  0.7818608E-02  0.9075334E-01
          2   -1    0    0  501    0  0.00000000000E+00  0.00000000000E+00  0.21209308417E+04  0.21209308417E+04  0.25500000000E-02 0.  1.
         -2   -1    0    0    0  501 -0.00000000000E+00 -0.00000000000E+00 -0.18236264233E+03  0.18236264234E+03  0.25500000000E-02 0. -1.
    5000001    1    1    2    0    0 -0.10634181049E+03 -0.58449989895E+03  0.11197781191E+04  0.12783101144E+04  0.16500000000E+03 0.  0.
   -5000001    1    1    2    0    0  0.10634181049E+03  0.58449989895E+03  0.81879008025E+03  0.10249833696E+04  0.16500000000E+03 0.  0.
<mgrwt>
<rscale>  0 0.12438305E+04</rscale>
<asrwt>0</asrwt>
<pdfrwt beam="1">  1        2 0.30299008E+00 0.12438305E+04</pdfrwt>
<pdfrwt beam="2">  1       -2 0.26051810E-01 0.12438305E+04</pdfrwt>
<totfact> 0.91103346E+01</totfact>
</mgrwt>
</event>
<event>
 4    1  0.3541639E-005  0.4345631E+03  0.7818608E-02  0.1032428E+00
         -2   -1    0    0    0  501 -0.00000000000E+00  0.00000000000E+00  0.64713627700E+03  0.64713627701E+03  0.25500000000E-02 0. -1.
          2   -1    0    0  501    0  0.00000000000E+00 -0.00000000000E+00 -0.72954126698E+02  0.72954126743E+02  0.25500000000E-02 0.  1.
    5000001    1    1    2    0    0 -0.82673356802E+02 -0.10025036859E+03  0.19481225655E+03  0.28646437061E+03  0.16500000000E+03 0.  0.
   -5000001    1    1    2    0    0  0.82673356802E+02  0.10025036859E+03  0.37936989375E+03  0.43362603314E+03  0.16500000000E+03 0.  0.
<mgrwt>
<rscale>  0 0.43456305E+03</rscale>
<asrwt>0</asrwt>
<pdfrwt beam="1">  1        2 0.10422018E-01 0.43456305E+03</pdfrwt>
<pdfrwt beam="2">  1       -2 0.92448040E-01 0.43456305E+03</pdfrwt>
<totfact> 0.63014630E+02</totfact>
</mgrwt>
</event>
<event>
 4    1  0.3541639E-005  0.4579520E+03  0.7818608E-02  0.1025377E+00
          2   -1    0    0  501    0  0.00000000000E+00  0.00000000000E+00  0.59708553986E+03  0.59708553987E+03  0.25500000000E-02 0.  1.
         -2   -1    0    0    0  501 -0.00000000000E+00 -0.00000000000E+00 -0.87809893608E+02  0.87809893645E+02  0.25500000000E-02 0. -1.
    5000001    1    1    2    0    0 -0.13382781268E+03  0.85323343594E+02  0.24883370791E+03  0.33813188344E+03  0.16500000000E+03 0.  0.
   -5000001    1    1    2    0    0  0.13382781268E+03 -0.85323343594E+02  0.26044193834E+03  0.34676355007E+03  0.16500000000E+03 0.  0.
<mgrwt>
<rscale>  0 0.45795204E+03</rscale>
<asrwt>0</asrwt>
<pdfrwt beam="1">  1        2 0.85297937E-01 0.45795204E+03</pdfrwt>
<pdfrwt beam="2">  1       -2 0.12544270E-01 0.45795204E+03</pdfrwt>
<totfact> 0.25620307E+03</totfact>
</mgrwt>
</event>
<event>
 4    1  0.3541639E-005  0.4142492E+03  0.7818608E-02  0.1038954E+00
          2   -1    0    0  501    0  0.00000000000E+00  0.00000000000E+00  0.14462209346E+04  0.14462209346E+04  0.25500000000E-02 0.  1.
         -2   -1    0    0    0  501 -0.00000000000E+00 -0.00000000000E+00 -0.29663931988E+02  0.29663932097E+02  0.25500000000E-02 0. -1.
    5000001    1    1    2    0    0 -0.82253609040E+02 -0.75811771867E+02  0.90863680471E+03  0.93024670052E+03  0.16500000000E+03 0.  0.
   -5000001    1    1    2    0    0  0.82253609040E+02  0.75811771867E+02  0.50792019788E+03  0.54563816616E+03  0.16500000000E+03 0.  0.
<mgrwt>
<rscale>  0 0.41424920E+03</rscale>
<asrwt>0</asrwt>
<pdfrwt beam="1">  1        2 0.20660301E+00 0.41424920E+03</pdfrwt>
<pdfrwt beam="2">  1       -2 0.42377042E-02 0.41424920E+03</pdfrwt>
<totfact> 0.41981071E+03</totfact>
</mgrwt>
</event>
<event>
 4    1  0.3541639E-005  0.4143922E+03  0.7818608E-02  0.1038907E+00
         -2   -1    0    0    0  501 -0.00000000000E+00  0.00000000000E+00  0.97133744050E+01  0.97133747397E+01  0.25500000000E-02 0. -1.
          2   -1    0    0  501    0  0.00000000000E+00 -0.00000000000E+00 -0.44197019070E+04  0.44197019070E+04  0.25500000000E-02 0.  1.
    5000001    1    1    2    0    0  0.38134054019E+02 -0.11547823594E+03 -0.25284635518E+04  0.25367582387E+04  0.16500000000E+03 0.  0.
   -5000001    1    1    2    0    0 -0.38134054019E+02  0.11547823594E+03 -0.18815249808E+04  0.18926570430E+04  0.16500000000E+03 0.  0.
<mgrwt>
<rscale>  0 0.41439218E+03</rscale>
<asrwt>0</asrwt>
<pdfrwt beam="1">  1        2 0.63138470E+00 0.41439218E+03</pdfrwt>
<pdfrwt beam="2">  1       -2 0.13876278E-02 0.41439218E+03</pdfrwt>
<totfact> 0.47408684E+02</totfact>
</mgrwt>
</event>
<event>
 4    1  0.3541639E-005  0.4486590E+03  0.7818608E-02  0.1028123E+00
         -2   -1    0    0    0  501 -0.00000000000E+00  0.00000000000E+00  0.74546770906E+02  0.74546770950E+02  0.25500000000E-02 0. -1.
          2   -1    0    0  501    0  0.00000000000E+00 -0.00000000000E+00 -0.67506243586E+03  0.67506243587E+03  0.25500000000E-02 0.  1.
    5000001    1    1    2    0    0 -0.12161942969E+03 -0.24149695172E+02 -0.44709843662E+03  0.49243934193E+03  0.16500000000E+03 0.  0.
   -5000001    1    1    2    0    0  0.12161942969E+03  0.24149695172E+02 -0.15341722834E+03  0.25716986489E+03  0.16500000000E+03 0.  0.
<mgrwt>
<rscale>  0 0.44865900E+03</rscale>
<asrwt>0</asrwt>
<pdfrwt beam="1">  1        2 0.96437487E-01 0.44865900E+03</pdfrwt>
<pdfrwt beam="2">  1       -2 0.10649539E-01 0.44865900E+03</pdfrwt>
<totfact> 0.28939664E+03</totfact>
</mgrwt>
</event>
<event>
 4    1  0.3541639E-005  0.6865894E+03  0.7818608E-02  0.9740445E-01
         -2   -1    0    0    0  501 -0.00000000000E+00  0.00000000000E+00  0.20472245912E+03  0.20472245913E+03  0.25500000000E-02 0. -1.
          2   -1    0    0  501    0  0.00000000000E+00 -0.00000000000E+00 -0.57566358598E+03  0.57566358599E+03  0.25500000000E-02 0.  1.
    5000001    1    1    2    0    0 -0.58811381373E+02  0.18746273559E+03  0.73779751274E+02  0.26696349472E+03  0.16500000000E+03 0.  0.
   -5000001    1    1    2    0    0  0.58811381373E+02 -0.18746273559E+03 -0.44472087814E+03  0.51342255040E+03  0.16500000000E+03 0.  0.
<mgrwt>
<rscale>  0 0.68658944E+03</rscale>
<asrwt>0</asrwt>
<pdfrwt beam="1">  1        2 0.82237654E-01 0.68658944E+03</pdfrwt>
<pdfrwt beam="2">  1       -2 0.29246066E-01 0.68658944E+03</pdfrwt>
<totfact> 0.61517892E+02</totfact>
</mgrwt>
</event>
<event>
 4    1  0.3541639E-005  0.3864961E+03  0.7818608E-02  0.1048559E+00
         -2   -1    0    0    0  501 -0.00000000000E+00  0.00000000000E+00  0.17273484497E+03  0.17273484499E+03  0.25500000000E-02 0. -1.
          2   -1    0    0  501    0  0.00000000000E+00 -0.00000000000E+00 -0.21619726245E+03  0.21619726246E+03  0.25500000000E-02 0.  1.
    5000001    1    1    2    0    0  0.50403629955E+02  0.24842421470E+02 -0.10569649162E+03  0.20384901314E+03  0.16500000000E+03 0.  0.
   -5000001    1    1    2    0    0 -0.50403629955E+02 -0.24842421470E+02  0.62234074143E+02  0.18508309432E+03  0.16500000000E+03 0.  0.
<mgrwt>
<rscale>  0 0.38649606E+03</rscale>
<asrwt>0</asrwt>
<pdfrwt beam="1">  1        2 0.30885323E-01 0.38649606E+03</pdfrwt>
<pdfrwt beam="2">  1       -2 0.24676406E-01 0.38649606E+03</pdfrwt>
<totfact> 0.24871515E+03</totfact>
</mgrwt>
</event>
<event>
 4    1  0.3541639E-005  0.5066092E+03  0.7818608E-02  0.1012068E+00
         -2   -1    0    0    0  501 -0.00000000000E+00  0.00000000000E+00  0.12393412127E+03  0.12393412130E+03  0.25500000000E-02 0. -1.
          2   -1    0    0  501    0  0.00000000000E+00 -0.00000000000E+00 -0.51772047013E+03  0.51772047014E+03  0.25500000000E-02 0.  1.
    5000001    1    1    2    0    0  0.13120116226E+03  0.13618436122E+03 -0.15341640158E+03  0.29414540196E+03  0.16500000000E+03 0.  0.
   -5000001    1    1    2    0    0 -0.13120116226E+03 -0.13618436122E+03 -0.24036994728E+03  0.34750918948E+03  0.16500000000E+03 0.  0.
<mgrwt>
<rscale>  0 0.50660924E+03</rscale>
<asrwt>0</asrwt>
<pdfrwt beam="1">  1        2 0.73960066E-01 0.50660924E+03</pdfrwt>
<pdfrwt beam="2">  1       -2 0.17704875E-01 0.50660924E+03</pdfrwt>
<totfact> 0.16963269E+03</totfact>
</mgrwt>
</event>
<event>
 4    1  0.3541639E-005  0.6269699E+03  0.7818608E-02  0.9850980E-01
         -2   -1    0    0    0  501 -0.00000000000E+00  0.00000000000E+00  0.38459579068E+03  0.38459579069E+03  0.25500000000E-02 0. -1.
          2   -1    0    0  501    0  0.00000000000E+00 -0.00000000000E+00 -0.25552231317E+03  0.25552231318E+03  0.25500000000E-02 0.  1.
    5000001    1    1    2    0    0 -0.22462047965E+02 -0.26550190063E+03  0.71899295050E+02  0.32154363851E+03  0.16500000000E+03 0.  0.
   -5000001    1    1    2    0    0  0.22462047965E+02  0.26550190063E+03  0.57174182456E+02  0.31857446536E+03  0.16500000000E+03 0.  0.
<mgrwt>
<rscale>  0 0.62696988E+03</rscale>
<asrwt>0</asrwt>
<pdfrwt beam="1">  1        2 0.36503188E-01 0.62696988E+03</pdfrwt>
<pdfrwt beam="2">  1       -2 0.54942256E-01 0.62696988E+03</pdfrwt>
<totfact> 0.44833771E+02</totfact>
</mgrwt>
</event>
<event>
 4    1  0.3541639E-005  0.6296015E+03  0.7818608E-02  0.9845827E-01
         -2   -1    0    0    0  501 -0.00000000000E+00  0.00000000000E+00  0.35040428706E+02  0.35040428798E+02  0.25500000000E-02 0. -1.
          2   -1    0    0  501    0  0.00000000000E+00 -0.00000000000E+00 -0.28281480399E+04  0.28281480399E+04  0.25500000000E-02 0.  1.
    5000001    1    1    2    0    0 -0.25933789908E+03 -0.67958325886E+02 -0.13974626539E+04  0.14324808373E+04  0.16500000000E+03 0.  0.
   -5000001    1    1    2    0    0  0.25933789908E+03  0.67958325886E+02 -0.13956449572E+04  0.14307076314E+04  0.16500000000E+03 0.  0.
<mgrwt>
<rscale>  0 0.62960152E+03</rscale>
<asrwt>0</asrwt>
<pdfrwt beam="1">  1        2 0.40402100E+00 0.62960152E+03</pdfrwt>
<pdfrwt beam="2">  1       -2 0.50057773E-02 0.62960152E+03</pdfrwt>
<totfact> 0.63752036E+02</totfact>
</mgrwt>
</event>
<event>
 4    1  0.3541639E-005  0.4259348E+03  0.7818608E-02  0.1035152E+00
          2   -1    0    0  501    0  0.00000000000E+00  0.00000000000E+00  0.19993865198E+04  0.19993865198E+04  0.25500000000E-02 0.  1.
         -2   -1    0    0    0  501 -0.00000000000E+00 -0.00000000000E+00 -0.22684518759E+02  0.22684518902E+02  0.25500000000E-02 0. -1.
    5000001    1    1    2    0    0 -0.84736825617E+02  0.10441419927E+03  0.95564352576E+03  0.97906189945E+03  0.16500000000E+03 0.  0.
   -5000001    1    1    2    0    0  0.84736825617E+02 -0.10441419927E+03  0.10210584752E+04  0.10430091392E+04  0.16500000000E+03 0.  0.
<mgrwt>
<rscale>  0 0.42593484E+03</rscale>
<asrwt>0</asrwt>
<pdfrwt beam="1">  1        2 0.28562669E+00 0.42593484E+03</pdfrwt>
<pdfrwt beam="2">  1       -2 0.32406451E-02 0.42593484E+03</pdfrwt>
<totfact> 0.33237220E+03</totfact>
</mgrwt>
</event>
<event>
 4    1  0.3541639E-005  0.8139087E+03  0.7818608E-02  0.9540100E-01
          2   -1    0    0  501    0  0.00000000000E+00  0.00000000000E+00  0.55389466253E+03  0.55389466254E+03  0.25500000000E-02 0. -1.
         -2   -1    0    0    0  501 -0.00000000000E+00 -0.00000000000E+00 -0.29899518514E+03  0.29899518516E+03  0.25500000000E-02 0.  1.
    5000001    1    1    2    0    0  0.32951292135E+03 -0.48990512944E+02  0.30093234826E+03  0.47829291645E+03  0.16500000000E+03 0.  0.
   -5000001    1    1    2    0    0 -0.32951292135E+03  0.48990512944E+02 -0.46032870869E+02  0.37459693124E+03  0.16500000000E+03 0.  0.
<mgrwt>
<rscale>  0 0.81390869E+03</rscale>
<asrwt>0</asrwt>
<pdfrwt beam="1">  1        2 0.79127808E-01 0.81390869E+03</pdfrwt>
<pdfrwt beam="2">  1       -2 0.42713598E-01 0.81390869E+03</pdfrwt>
<totfact> 0.31134484E+02</totfact>
</mgrwt>
</event>
<event>
 4    1  0.3541639E-005  0.5815699E+03  0.7818608E-02  0.9944398E-01
         -2   -1    0    0    0  501 -0.00000000000E+00  0.00000000000E+00  0.18341815552E+03  0.18341815554E+03  0.25500000000E-02 0. -1.
          2   -1    0    0  501    0  0.00000000000E+00 -0.00000000000E+00 -0.46100066792E+03  0.46100066793E+03  0.25500000000E-02 0.  1.
    5000001    1    1    2    0    0  0.52422260384E+02 -0.12855798978E+03 -0.35495149464E+03  0.41532013396E+03  0.16500000000E+03 0.  0.
   -5000001    1    1    2    0    0 -0.52422260384E+02  0.12855798978E+03  0.77368982247E+02  0.22909868951E+03  0.16500000000E+03 0.  0.
<mgrwt>
<rscale>  0 0.58156992E+03</rscale>
<asrwt>0</asrwt>
<pdfrwt beam="1">  1        2 0.65857238E-01 0.58156992E+03</pdfrwt>
<pdfrwt beam="2">  1       -2 0.26202594E-01 0.58156992E+03</pdfrwt>
<totfact> 0.97158617E+02</totfact>
</mgrwt>
</event>
<event>
 4    1  0.3541639E-005  0.5021717E+03  0.7818608E-02  0.1013214E+00
          2   -1    0    0  501    0  0.00000000000E+00  0.00000000000E+00  0.32118387619E+04  0.32118387619E+04  0.25500000000E-02 0. -1.
         -2   -1    0    0    0  501 -0.00000000000E+00 -0.00000000000E+00 -0.19628664288E+02  0.19628664453E+02  0.25500000000E-02 0.  1.
    5000001    1    1    2    0    0 -0.84653166871E+02 -0.11567846512E+03  0.80088462178E+03  0.83017398379E+03  0.16500000000E+03 0.  0.
   -5000001    1    1    2    0    0  0.84653166871E+02  0.11567846512E+03  0.23913254758E+04  0.24012934426E+04  0.16500000000E+03 0.  0.
<mgrwt>
<rscale>  0 0.50217170E+03</rscale>
<asrwt>0</asrwt>
<pdfrwt beam="1">  1        2 0.45883378E+00 0.50217170E+03</pdfrwt>
<pdfrwt beam="2">  1       -2 0.28040969E-02 0.50217170E+03</pdfrwt>
<totfact> 0.96801053E+02</totfact>
</mgrwt>
</event>
<event>
 4    1  0.3541639E-005  0.5744541E+03  0.7818608E-02  0.9959870E-01
         -2   -1    0    0    0  501 -0.00000000000E+00  0.00000000000E+00  0.30214439051E+02  0.30214439158E+02  0.25500000000E-02 0. -1.
          2   -1    0    0  501    0  0.00000000000E+00 -0.00000000000E+00 -0.27304621923E+04  0.27304621923E+04  0.25500000000E-02 0.  1.
    5000001    1    1    2    0    0  0.18328622870E+02  0.23141513515E+03 -0.11712444508E+04  0.12053744094E+04  0.16500000000E+03 0.  0.
   -5000001    1    1    2    0    0 -0.18328622870E+02 -0.23141513515E+03 -0.15290033024E+04  0.15553022221E+04  0.16500000000E+03 0.  0.
<mgrwt>
<rscale>  0 0.57445412E+03</rscale>
<asrwt>0</asrwt>
<pdfrwt beam="1">  1        2 0.39006587E+00 0.57445412E+03</pdfrwt>
<pdfrwt beam="2">  1       -2 0.43163502E-02 0.57445412E+03</pdfrwt>
<totfact> 0.90711283E+02</totfact>
</mgrwt>
</event>
<event>
 4    1  0.3541639E-005  0.1741040E+04  0.7818608E-02  0.8738298E-01
          2   -1    0    0  501    0  0.00000000000E+00  0.00000000000E+00  0.30068627098E+04  0.30068627098E+04  0.25500000000E-02 0.  1.
         -2   -1    0    0    0  501 -0.00000000000E+00 -0.00000000000E+00 -0.25202511227E+03  0.25202511228E+03  0.25500000000E-02 0. -1.
    5000001    1    1    2    0    0 -0.50119857486E+03  0.69177523854E+03  0.13235927573E+04  0.15839431111E+04  0.16500000000E+03 0.  0.
   -5000001    1    1    2    0    0  0.50119857486E+03 -0.69177523854E+03  0.14312448402E+04  0.16749447110E+04  0.16500000000E+03 0.  0.
<mgrwt>
<rscale>  0 0.17410398E+04</rscale>
<asrwt>0</asrwt>
<pdfrwt beam="1">  1        2 0.42955180E+00 0.17410398E+04</pdfrwt>
<pdfrwt beam="2">  1       -2 0.36003589E-01 0.17410398E+04</pdfrwt>
<totfact> 0.16171831E+01</totfact>
</mgrwt>
</event>
<event>
 4    1  0.3541639E-005  0.1019908E+04  0.7818608E-02  0.9286976E-01
          2   -1    0    0  501    0  0.00000000000E+00  0.00000000000E+00  0.89004781110E+03  0.89004781110E+03  0.25500000000E-02 0.  1.
         -2   -1    0    0    0  501 -0.00000000000E+00 -0.00000000000E+00 -0.29217879662E+03  0.29217879663E+03  0.25500000000E-02 0. -1.
    5000001    1    1    2    0    0 -0.20934671976E+03 -0.20627314888E+03 -0.14466341398E+03  0.36677944921E+03  0.16500000000E+03 0.  0.
   -5000001    1    1    2    0    0  0.20934671976E+03  0.20627314888E+03  0.74253242846E+03  0.81544715852E+03  0.16500000000E+03 0.  0.
<mgrwt>
<rscale>  0 0.10199080E+04</rscale>
<asrwt>0</asrwt>
<pdfrwt beam="1">  1        2 0.12714969E+00 0.10199080E+04</pdfrwt>
<pdfrwt beam="2">  1       -2 0.41739828E-01 0.10199080E+04</pdfrwt>
<totfact> 0.17884358E+02</totfact>
</mgrwt>
</event>
<event>
 4    1  0.3541639E-005  0.1010054E+04  0.7818608E-02  0.9297586E-01
          2   -1    0    0  501    0  0.00000000000E+00  0.00000000000E+00  0.12641186610E+04  0.12641186610E+04  0.25500000000E-02 0.  1.
         -2   -1    0    0    0  501 -0.00000000000E+00 -0.00000000000E+00 -0.20176287645E+03  0.20176287647E+03  0.25500000000E-02 0. -1.
    5000001    1    1    2    0    0  0.39760131453E+03  0.25713764614E+03  0.61850461685E+03  0.79622831867E+03  0.16500000000E+03 0.  0.
   -5000001    1    1    2    0    0 -0.39760131453E+03 -0.25713764614E+03  0.44385116768E+03  0.66965321879E+03  0.16500000000E+03 0.  0.
<mgrwt>
<rscale>  0 0.10100539E+04</rscale>
<asrwt>0</asrwt>
<pdfrwt beam="1">  1        2 0.18058837E+00 0.10100539E+04</pdfrwt>
<pdfrwt beam="2">  1       -2 0.28823269E-01 0.10100539E+04</pdfrwt>
<totfact> 0.21612128E+02</totfact>
</mgrwt>
</event>
<event>
 4    1  0.3541639E-005  0.4338213E+03  0.7818608E-02  0.1032660E+00
          2   -1    0    0  501    0  0.00000000000E+00  0.00000000000E+00  0.23102855445E+04  0.23102855445E+04  0.25500000000E-02 0.  1.
         -2   -1    0    0    0  501 -0.00000000000E+00 -0.00000000000E+00 -0.20365551580E+02  0.20365551739E+02  0.25500000000E-02 0. -1.
    5000001    1    1    2    0    0 -0.12023036932E+03 -0.60699762736E+02  0.92440211998E+03  0.94862220211E+03  0.16500000000E+03 0.  0.
   -5000001    1    1    2    0    0  0.12023036932E+03  0.60699762736E+02  0.13655178729E+04  0.13820288941E+04  0.16500000000E+03 0.  0.
<mgrwt>
<rscale>  0 0.43382134E+03</rscale>
<asrwt>0</asrwt>
<pdfrwt beam="1">  1        2 0.33004066E+00 0.43382134E+03</pdfrwt>
<pdfrwt beam="2">  1       -2 0.29093656E-02 0.43382134E+03</pdfrwt>
<totfact> 0.27384651E+03</totfact>
</mgrwt>
</event>
<event>
 4    1  0.3541639E-005  0.3648069E+03  0.7818608E-02  0.1056697E+00
         -2   -1    0    0    0  501 -0.00000000000E+00  0.00000000000E+00  0.17053736829E+03  0.17053736831E+03  0.25500000000E-02 0. -1.
          2   -1    0    0  501    0  0.00000000000E+00 -0.00000000000E+00 -0.19509521844E+03  0.19509521846E+03  0.25500000000E-02 0.  1.
    5000001    1    1    2    0    0  0.27946230860E+02  0.69009222645E+02  0.10194143724E+02  0.18130688127E+03  0.16500000000E+03 0.  0.
   -5000001    1    1    2    0    0 -0.27946230860E+02 -0.69009222645E+02 -0.34751993876E+02  0.18432570550E+03  0.16500000000E+03 0.  0.
<mgrwt>
<rscale>  0 0.36480694E+03</rscale>
<asrwt>0</asrwt>
<pdfrwt beam="1">  1        2 0.27870745E-01 0.36480694E+03</pdfrwt>
<pdfrwt beam="2">  1       -2 0.24362481E-01 0.36480694E+03</pdfrwt>
<totfact> 0.28485853E+03</totfact>
</mgrwt>
</event>
<event>
 4    1  0.3541639E-005  0.4265979E+03  0.7818608E-02  0.1034940E+00
         -2   -1    0    0    0  501 -0.00000000000E+00  0.00000000000E+00  0.71323766980E+02  0.71323767025E+02  0.25500000000E-02 0.  1.
          2   -1    0    0  501    0  0.00000000000E+00 -0.00000000000E+00 -0.63788614187E+03  0.63788614188E+03  0.25500000000E-02 0. -1.
    5000001    1    1    2    0    0  0.12597346954E+03 -0.47802970668E+02 -0.26529846022E+03  0.34023919825E+03  0.16500000000E+03 0.  0.
   -5000001    1    1    2    0    0 -0.12597346954E+03  0.47802970668E+02 -0.30126391468E+03  0.36897071065E+03  0.16500000000E+03 0.  0.
<mgrwt>
<rscale>  0 0.42659790E+03</rscale>
<asrwt>0</asrwt>
<pdfrwt beam="1">  1        2 0.91126588E-01 0.42659790E+03</pdfrwt>
<pdfrwt beam="2">  1       -2 0.10189110E-01 0.42659790E+03</pdfrwt>
<totfact> 0.33225416E+03</totfact>
</mgrwt>
</event>
<event>
 4    1  0.3541639E-005  0.5219829E+03  0.7818608E-02  0.1008195E+00
          2   -1    0    0  501    0  0.00000000000E+00  0.00000000000E+00  0.23326112856E+04  0.23326112856E+04  0.25500000000E-02 0.  1.
         -2   -1    0    0    0  501 -0.00000000000E+00 -0.00000000000E+00 -0.29201832704E+02  0.29201832816E+02  0.25500000000E-02 0. -1.
    5000001    1    1    2    0    0 -0.18168386578E+03 -0.19559893475E+02  0.15435523939E+04  0.15630644930E+04  0.16500000000E+03 0.  0.
   -5000001    1    1    2    0    0  0.18168386578E+03  0.19559893475E+02  0.75985705895E+03  0.79874862538E+03  0.16500000000E+03 0.  0.
<mgrwt>
<rscale>  0 0.52198285E+03</rscale>
<asrwt>0</asrwt>
<pdfrwt beam="1">  1        2 0.33323031E+00 0.52198285E+03</pdfrwt>
<pdfrwt beam="2">  1       -2 0.41716888E-02 0.52198285E+03</pdfrwt>
<totfact> 0.15358874E+03</totfact>
</mgrwt>
</event>
<event>
 4    1  0.3541639E-005  0.5392381E+03  0.7818608E-02  0.1004016E+00
          2   -1    0    0  501    0  0.00000000000E+00  0.00000000000E+00  0.11528165825E+04  0.11528165825E+04  0.25500000000E-02 0.  1.
         -2   -1    0    0    0  501 -0.00000000000E+00 -0.00000000000E+00 -0.63058097395E+02  0.63058097447E+02  0.25500000000E-02 0. -1.
    5000001    1    1    2    0    0  0.11333124669E+03  0.70921480385E+02  0.17031342505E+03  0.27222323672E+03  0.16500000000E+03 0.  0.
   -5000001    1    1    2    0    0 -0.11333124669E+03 -0.70921480385E+02  0.91944506008E+03  0.94365144326E+03  0.16500000000E+03 0.  0.
<mgrwt>
<rscale>  0 0.53923806E+03</rscale>
<asrwt>0</asrwt>
<pdfrwt beam="1">  1        2 0.16468808E+00 0.53923806E+03</pdfrwt>
<pdfrwt beam="2">  1       -2 0.90082999E-02 0.53923806E+03</pdfrwt>
<totfact> 0.18616189E+03</totfact>
</mgrwt>
</event>
<event>
 4    1  0.3541639E-005  0.4520106E+03  0.7818608E-02  0.1027124E+00
         -2   -1    0    0    0  501 -0.00000000000E+00  0.00000000000E+00  0.32716803937E+03  0.32716803938E+03  0.25500000000E-02 0. -1.
          2   -1    0    0  501    0  0.00000000000E+00 -0.00000000000E+00 -0.15612279801E+03  0.15612279803E+03  0.25500000000E-02 0.  1.
    5000001    1    1    2    0    0 -0.39022663260E+02 -0.11701625509E+03 -0.13848910081E+02  0.20647606281E+03  0.16500000000E+03 0.  0.
   -5000001    1    1    2    0    0  0.39022663260E+02  0.11701625509E+03  0.18489415144E+03  0.27681477460E+03  0.16500000000E+03 0.  0.
<mgrwt>
<rscale>  0 0.45201057E+03</rscale>
<asrwt>0</asrwt>
<pdfrwt beam="1">  1        2 0.22303257E-01 0.45201057E+03</pdfrwt>
<pdfrwt beam="2">  1       -2 0.46738290E-01 0.45201057E+03</pdfrwt>
<totfact> 0.10855011E+03</totfact>
</mgrwt>
</event>
<event>
 4    1  0.3541639E-005  0.3913428E+03  0.7818608E-02  0.1046819E+00
          2   -1    0    0  501    0  0.00000000000E+00  0.00000000000E+00  0.12325832054E+04  0.12325832054E+04  0.25500000000E-02 0.  1.
         -2   -1    0    0    0  501 -0.00000000000E+00 -0.00000000000E+00 -0.31062654473E+02  0.31062654577E+02  0.25500000000E-02 0. -1.
    5000001    1    1    2    0    0  0.67731954799E+02  0.80454541439E+02  0.60503836092E+03  0.63589068960E+03  0.16500000000E+03 0.  0.
   -5000001    1    1    2    0    0 -0.67731954799E+02 -0.80454541439E+02  0.59648219000E+03  0.62775517037E+03  0.16500000000E+03 0.  0.
<mgrwt>
<rscale>  0 0.39134285E+03</rscale>
<asrwt>0</asrwt>
<pdfrwt beam="1">  1        2 0.17608326E+00 0.39134285E+03</pdfrwt>
<pdfrwt beam="2">  1       -2 0.44375234E-02 0.39134285E+03</pdfrwt>
<totfact> 0.50784475E+03</totfact>
</mgrwt>
</event>
<event>
 4    1  0.3541639E-005  0.6579871E+03  0.7818608E-02  0.9791906E-01
         -2   -1    0    0    0  501 -0.00000000000E+00  0.00000000000E+00  0.88087030115E+02  0.88087030152E+02  0.25500000000E-02 0. -1.
          2   -1    0    0  501    0  0.00000000000E+00 -0.00000000000E+00 -0.12287478972E+04  0.12287478972E+04  0.25500000000E-02 0.  1.
    5000001    1    1    2    0    0 -0.21776347968E+03  0.13942808354E+03 -0.80839888306E+03  0.86463569073E+03  0.16500000000E+03 0.  0.
   -5000001    1    1    2    0    0  0.21776347968E+03 -0.13942808354E+03 -0.33226198400E+03  0.45219923659E+03  0.16500000000E+03 0.  0.
<mgrwt>
<rscale>  0 0.65798709E+03</rscale>
<asrwt>0</asrwt>
<pdfrwt beam="1">  1        2 0.17553540E+00 0.65798709E+03</pdfrwt>
<pdfrwt beam="2">  1       -2 0.12583862E-01 0.65798709E+03</pdfrwt>
<totfact> 0.97578406E+02</totfact>
</mgrwt>
</event>
<event>
 4    1  0.3541639E-005  0.4302164E+03  0.7818608E-02  0.1033792E+00
         -2   -1    0    0    0  501 -0.00000000000E+00  0.00000000000E+00  0.10513484001E+03  0.10513484004E+03  0.25500000000E-02 0. -1.
          2   -1    0    0  501    0  0.00000000000E+00 -0.00000000000E+00 -0.44011612951E+03  0.44011612952E+03  0.25500000000E-02 0.  1.
    5000001    1    1    2    0    0 -0.48008522142E+02 -0.12406714321E+03 -0.21404130660E+03  0.30122442656E+03  0.16500000000E+03 0.  0.
   -5000001    1    1    2    0    0  0.48008522142E+02  0.12406714321E+03 -0.12093998291E+03  0.24402654300E+03  0.16500000000E+03 0.  0.
<mgrwt>
<rscale>  0 0.43021641E+03</rscale>
<asrwt>0</asrwt>
<pdfrwt beam="1">  1        2 0.62873732E-01 0.43021641E+03</pdfrwt>
<pdfrwt beam="2">  1       -2 0.15019263E-01 0.43021641E+03</pdfrwt>
<totfact> 0.26837436E+03</totfact>
</mgrwt>
</event>
<event>
 4    1  0.3541639E-005  0.8659833E+03  0.7818608E-02  0.9469132E-01
          2   -1    0    0  501    0  0.00000000000E+00  0.00000000000E+00  0.34529220723E+04  0.34529220723E+04  0.25500000000E-02 0.  1.
         -2   -1    0    0    0  501 -0.00000000000E+00 -0.00000000000E+00 -0.54296556595E+02  0.54296556655E+02  0.25500000000E-02 0. -1.
    5000001    1    1    2    0    0 -0.33324532121E+03 -0.21806223391E+03  0.15346423369E+04  0.15940375417E+04  0.16500000000E+03 0.  0.
   -5000001    1    1    2    0    0  0.33324532121E+03  0.21806223391E+03  0.18639831787E+04  0.19131810873E+04  0.16500000000E+03 0.  0.
<mgrwt>
<rscale>  0 0.86598332E+03</rscale>
<asrwt>0</asrwt>
<pdfrwt beam="1">  1        2 0.49327465E+00 0.86598332E+03</pdfrwt>
<pdfrwt beam="2">  1       -2 0.77566499E-02 0.86598332E+03</pdfrwt>
<totfact> 0.13932316E+02</totfact>
</mgrwt>
</event>
<event>
 4    1  0.3541639E-005  0.4726207E+03  0.7818608E-02  0.1021183E+00
         -2   -1    0    0    0  501 -0.00000000000E+00  0.00000000000E+00  0.41521521703E+02  0.41521521781E+02  0.25500000000E-02 0. -1.
          2   -1    0    0  501    0  0.00000000000E+00 -0.00000000000E+00 -0.13449066335E+04  0.13449066335E+04  0.25500000000E-02 0.  1.
    5000001    1    1    2    0    0 -0.90250997931E+02 -0.13993287381E+03 -0.73926194859E+03  0.77553831655E+03  0.16500000000E+03 0.  0.
   -5000001    1    1    2    0    0  0.90250997931E+02  0.13993287381E+03 -0.56412316318E+03  0.61088983871E+03  0.16500000000E+03 0.  0.
<mgrwt>
<rscale>  0 0.47262065E+03</rscale>
<asrwt>0</asrwt>
<pdfrwt beam="1">  1        2 0.19212949E+00 0.47262065E+03</pdfrwt>
<pdfrwt beam="2">  1       -2 0.59316468E-02 0.47262065E+03</pdfrwt>
<totfact> 0.28268062E+03</totfact>
</mgrwt>
</event>
<event>
 4    1  0.3541639E-005  0.4428447E+03  0.7818608E-02  0.1029878E+00
         -2   -1    0    0    0  501 -0.00000000000E+00  0.00000000000E+00  0.13751093312E+02  0.13751093549E+02  0.25500000000E-02 0. -1.
          2   -1    0    0  501    0  0.00000000000E+00 -0.00000000000E+00 -0.35653794348E+04  0.35653794348E+04  0.25500000000E-02 0.  1.
    5000001    1    1    2    0    0 -0.13973194967E+03 -0.59823020761E+01 -0.13931219222E+04  0.14098136387E+04  0.16500000000E+03 0.  0.
   -5000001    1    1    2    0    0  0.13973194967E+03  0.59823020761E+01 -0.21585064192E+04  0.21693168896E+04  0.16500000000E+03 0.  0.
<mgrwt>
<rscale>  0 0.44284474E+03</rscale>
<asrwt>0</asrwt>
<pdfrwt beam="1">  1        2 0.50933933E+00 0.44284474E+03</pdfrwt>
<pdfrwt beam="2">  1       -2 0.19644442E-02 0.44284474E+03</pdfrwt>
<totfact> 0.10391605E+03</totfact>
</mgrwt>
</event>
<event>
 4    1  0.3541639E-005  0.8235575E+03  0.7818608E-02  0.9526531E-01
          2   -1    0    0  501    0  0.00000000000E+00  0.00000000000E+00  0.84145579470E+03  0.84145579470E+03  0.25500000000E-02 0.  1.
         -2   -1    0    0    0  501 -0.00000000000E+00 -0.00000000000E+00 -0.20150999829E+03  0.20150999831E+03  0.25500000000E-02 0. -1.
    5000001    1    1    2    0    0 -0.18455455977E+03 -0.31084892182E+03  0.18328616390E+03  0.43761427720E+03  0.16500000000E+03 0.  0.
   -5000001    1    1    2    0    0  0.18455455977E+03  0.31084892182E+03  0.45665963251E+03  0.60535151581E+03  0.16500000000E+03 0.  0.
<mgrwt>
<rscale>  0 0.82355754E+03</rscale>
<asrwt>0</asrwt>
<pdfrwt beam="1">  1        2 0.12020797E+00 0.82355754E+03</pdfrwt>
<pdfrwt beam="2">  1       -2 0.28787142E-01 0.82355754E+03</pdfrwt>
<totfact> 0.39467609E+02</totfact>
</mgrwt>
</event>
<event>
 4    1  0.3541639E-005  0.6029391E+03  0.7818608E-02  0.9899327E-01
         -2   -1    0    0    0  501 -0.00000000000E+00  0.00000000000E+00  0.39859847356E+02  0.39859847438E+02  0.25500000000E-02 0. -1.
          2   -1    0    0  501    0  0.00000000000E+00 -0.00000000000E+00 -0.22800861611E+04  0.22800861611E+04  0.25500000000E-02 0.  1.
    5000001    1    1    2    0    0 -0.16879047598E+03  0.17958128255E+03 -0.91222095799E+03  0.95922455037E+03  0.16500000000E+03 0.  0.
   -5000001    1    1    2    0    0  0.16879047598E+03 -0.17958128255E+03 -0.13280053557E+04  0.13607214581E+04  0.16500000000E+03 0.  0.
<mgrwt>
<rscale>  0 0.60293909E+03</rscale>
<asrwt>0</asrwt>
<pdfrwt beam="1">  1        2 0.32572651E+00 0.60293909E+03</pdfrwt>
<pdfrwt beam="2">  1       -2 0.56942653E-02 0.60293909E+03</pdfrwt>
<totfact> 0.10036086E+03</totfact>
</mgrwt>
</event>
<event>
 4    1  0.3541639E-005  0.1031911E+04  0.7818608E-02  0.9274221E-01
          2   -1    0    0  501    0  0.00000000000E+00  0.00000000000E+00  0.13196537233E+04  0.13196537233E+04  0.25500000000E-02 0.  1.
         -2   -1    0    0    0  501 -0.00000000000E+00 -0.00000000000E+00 -0.20172737570E+03  0.20172737572E+03  0.25500000000E-02 0. -1.
    5000001    1    1    2    0    0  0.28447745222E+03 -0.23138722771E+03  0.10356034784E+04  0.11109307064E+04  0.16500000000E+03 0.  0.
   -5000001    1    1    2    0    0 -0.28447745222E+03  0.23138722771E+03  0.82322869145E+02  0.41045039256E+03  0.16500000000E+03 0.  0.
<mgrwt>
<rscale>  0 0.10319114E+04</rscale>
<asrwt>0</asrwt>
<pdfrwt beam="1">  1        2 0.18852197E+00 0.10319114E+04</pdfrwt>
<pdfrwt beam="2">  1       -2 0.28818196E-01 0.10319114E+04</pdfrwt>
<totfact> 0.20115718E+02</totfact>
</mgrwt>
</event>
<event>
 4    1  0.3541639E-005  0.5385519E+03  0.7818608E-02  0.1004179E+00
         -2   -1    0    0    0  501 -0.00000000000E+00  0.00000000000E+00  0.41557771430E+02  0.41557771508E+02  0.25500000000E-02 0. -1.
          2   -1    0    0  501    0  0.00000000000E+00 -0.00000000000E+00 -0.17447885740E+04  0.17447885740E+04  0.25500000000E-02 0.  1.
    5000001    1    1    2    0    0 -0.73678774521E+02  0.17906253498E+03 -0.11444204364E+04  0.11723545063E+04  0.16500000000E+03 0.  0.
   -5000001    1    1    2    0    0  0.73678774521E+02 -0.17906253498E+03 -0.55881036619E+03  0.61399183921E+03  0.16500000000E+03 0.  0.
<mgrwt>
<rscale>  0 0.53855185E+03</rscale>
<asrwt>0</asrwt>
<pdfrwt beam="1">  1        2 0.24925546E+00 0.53855185E+03</pdfrwt>
<pdfrwt beam="2">  1       -2 0.59368256E-02 0.53855185E+03</pdfrwt>
<totfact> 0.17529040E+03</totfact>
</mgrwt>
</event>
<event>
 4    1  0.3541639E-005  0.5667264E+03  0.7818608E-02  0.9976949E-01
          2   -1    0    0  501    0  0.00000000000E+00  0.00000000000E+00  0.26736155145E+04  0.26736155145E+04  0.25500000000E-02 0.  1.
         -2   -1    0    0    0  501 -0.00000000000E+00 -0.00000000000E+00 -0.30032258423E+02  0.30032258531E+02  0.25500000000E-02 0. -1.
    5000001    1    1    2    0    0  0.82282077689E+02 -0.77971665071E+02  0.22785373958E+04  0.22873144919E+04  0.16500000000E+03 0.  0.
   -5000001    1    1    2    0    0 -0.82282077689E+02  0.77971665071E+02  0.36504586029E+03  0.41633328113E+03  0.16500000000E+03 0.  0.
<mgrwt>
<rscale>  0 0.56672643E+03</rscale>
<asrwt>0</asrwt>
<pdfrwt beam="1">  1        2 0.38194500E+00 0.56672643E+03</pdfrwt>
<pdfrwt beam="2">  1       -2 0.42903234E-02 0.56672643E+03</pdfrwt>
<totfact> 0.98104469E+02</totfact>
</mgrwt>
</event>
<event>
 4    1  0.3541639E-005  0.3626106E+03  0.7818608E-02  0.1057555E+00
         -2   -1    0    0    0  501 -0.00000000000E+00  0.00000000000E+00  0.27324496460E+03  0.27324496461E+03  0.25500000000E-02 0. -1.
          2   -1    0    0  501    0  0.00000000000E+00 -0.00000000000E+00 -0.12030085809E+03  0.12030085812E+03  0.25500000000E-02 0.  1.
    5000001    1    1    2    0    0  0.32385694366E+02  0.63029052512E+02  0.10360723665E+03  0.20731848481E+03  0.16500000000E+03 0.  0.
   -5000001    1    1    2    0    0 -0.32385694366E+02 -0.63029052512E+02  0.49336869864E+02  0.18622733792E+03  0.16500000000E+03 0.  0.
<mgrwt>
<rscale>  0 0.36261056E+03</rscale>
<asrwt>0</asrwt>
<pdfrwt beam="1">  1        2 0.17185837E-01 0.36261056E+03</pdfrwt>
<pdfrwt beam="2">  1       -2 0.39034994E-01 0.36261056E+03</pdfrwt>
<totfact> 0.20825984E+03</totfact>
</mgrwt>
</event>
<event>
 4    1  0.3541639E-005  0.4426733E+03  0.7818608E-02  0.1029930E+00
          2   -1    0    0  501    0  0.00000000000E+00  0.00000000000E+00  0.85006286308E+03  0.85006286308E+03  0.25500000000E-02 0.  1.
         -2   -1    0    0    0  501 -0.00000000000E+00 -0.00000000000E+00 -0.57630938059E+02  0.57630938115E+02  0.25500000000E-02 0. -1.
    5000001    1    1    2    0    0  0.11808818916E+03 -0.11492351049E+02  0.57600508822E+03  0.61080582529E+03  0.16500000000E+03 0.  0.
   -5000001    1    1    2    0    0 -0.11808818916E+03  0.11492351049E+02  0.21642683680E+03  0.29688797591E+03  0.16500000000E+03 0.  0.
<mgrwt>
<rscale>  0 0.44267333E+03</rscale>
<asrwt>0</asrwt>
<pdfrwt beam="1">  1        2 0.12143755E+00 0.44267333E+03</pdfrwt>
<pdfrwt beam="2">  1       -2 0.82329910E-02 0.44267333E+03</pdfrwt>
<totfact> 0.32817521E+03</totfact>
</mgrwt>
</event>
<event>
 4    1  0.3541639E-005  0.5750605E+03  0.7818608E-02  0.9958543E-01
          2   -1    0    0  501    0  0.00000000000E+00  0.00000000000E+00  0.32555505781E+03  0.32555505782E+03  0.25500000000E-02 0.  1.
         -2   -1    0    0    0  501 -0.00000000000E+00 -0.00000000000E+00 -0.25394673858E+03  0.25394673859E+03  0.25500000000E-02 0. -1.
    5000001    1    1    2    0    0 -0.16027651995E+03  0.12719909303E+03  0.15323946910E+03  0.30426223395E+03  0.16500000000E+03 0.  0.
   -5000001    1    1    2    0    0  0.16027651995E+03 -0.12719909303E+03 -0.81631149869E+02  0.27523956246E+03  0.16500000000E+03 0.  0.
<mgrwt>
<rscale>  0 0.57506050E+03</rscale>
<asrwt>0</asrwt>
<pdfrwt beam="1">  1        2 0.46507865E-01 0.57506050E+03</pdfrwt>
<pdfrwt beam="2">  1       -2 0.36278106E-01 0.57506050E+03</pdfrwt>
<totfact> 0.78188881E+02</totfact>
</mgrwt>
</event>
<event>
 4    1  0.3541639E-005  0.8683197E+03  0.7818608E-02  0.9466073E-01
          2   -1    0    0  501    0  0.00000000000E+00  0.00000000000E+00  0.28067820004E+03  0.28067820005E+03  0.25500000000E-02 0.  1.
         -2   -1    0    0    0  501 -0.00000000000E+00 -0.00000000000E+00 -0.67156895893E+03  0.67156895894E+03  0.25500000000E-02 0. -1.
    5000001    1    1    2    0    0  0.52684759907E+02  0.27205728404E+03  0.12330022906E+03  0.34528074985E+03  0.16500000000E+03 0.  0.
   -5000001    1    1    2    0    0 -0.52684759907E+02 -0.27205728404E+03 -0.51419098796E+03  0.60696640914E+03  0.16500000000E+03 0.  0.
<mgrwt>
<rscale>  0 0.86831968E+03</rscale>
<asrwt>0</asrwt>
<pdfrwt beam="1">  1        2 0.40096886E-01 0.86831968E+03</pdfrwt>
<pdfrwt beam="2">  1       -2 0.95938422E-01 0.86831968E+03</pdfrwt>
<totfact> 0.11756436E+02</totfact>
</mgrwt>
</event>
<event>
 4    1  0.3541639E-005  0.5601335E+03  0.7818608E-02  0.9991753E-01
          2   -1    0    0  501    0  0.00000000000E+00  0.00000000000E+00  0.85815860454E+03  0.85815860454E+03  0.25500000000E-02 0.  1.
         -2   -1    0    0    0  501 -0.00000000000E+00 -0.00000000000E+00 -0.91401962612E+02  0.91401962647E+02  0.25500000000E-02 0. -1.
    5000001    1    1    2    0    0 -0.16239843575E+03 -0.10350527548E+03  0.58486087924E+03  0.63747458149E+03  0.16500000000E+03 0.  0.
   -5000001    1    1    2    0    0  0.16239843575E+03  0.10350527548E+03  0.18189576269E+03  0.31208598570E+03  0.16500000000E+03 0.  0.
<mgrwt>
<rscale>  0 0.56013349E+03</rscale>
<asrwt>0</asrwt>
<pdfrwt beam="1">  1        2 0.12259409E+00 0.56013349E+03</pdfrwt>
<pdfrwt beam="2">  1       -2 0.13057423E-01 0.56013349E+03</pdfrwt>
<totfact> 0.15363983E+03</totfact>
</mgrwt>
</event>
<event>
 4    1  0.3541639E-005  0.1003169E+04  0.7818608E-02  0.9305076E-01
         -2   -1    0    0    0  501 -0.00000000000E+00  0.00000000000E+00  0.94322002074E+03  0.94322002074E+03  0.25500000000E-02 0. -1.
          2   -1    0    0  501    0  0.00000000000E+00 -0.00000000000E+00 -0.26673203207E+03  0.26673203208E+03  0.25500000000E-02 0.  1.
    5000001    1    1    2    0    0 -0.29016109377E+03  0.35596286969E+03  0.19831750065E+03  0.52674268481E+03  0.16500000000E+03 0.  0.
   -5000001    1    1    2    0    0  0.29016109377E+03 -0.35596286969E+03  0.47817048802E+03  0.68320936802E+03  0.16500000000E+03 0.  0.
<mgrwt>
<rscale>  0 0.10031690E+04</rscale>
<asrwt>0</asrwt>
<pdfrwt beam="1">  1        2 0.38104576E-01 0.10031690E+04</pdfrwt>
<pdfrwt beam="2">  1       -2 0.13474572E+00 0.10031690E+04</pdfrwt>
<totfact> 0.53804585E+01</totfact>
</mgrwt>
</event>
<event>
 4    1  0.3541639E-005  0.5032897E+03  0.7818608E-02  0.1012924E+00
         -2   -1    0    0    0  501 -0.00000000000E+00  0.00000000000E+00  0.76508803102E+02  0.76508803145E+02  0.25500000000E-02 0. -1.
          2   -1    0    0  501    0  0.00000000000E+00 -0.00000000000E+00 -0.82768433535E+03  0.82768433536E+03  0.25500000000E-02 0.  1.
    5000001    1    1    2    0    0 -0.14343386696E+03 -0.12277540269E+03 -0.41382821645E+03  0.48386554581E+03  0.16500000000E+03 0.  0.
   -5000001    1    1    2    0    0  0.14343386696E+03  0.12277540269E+03 -0.33734731580E+03  0.42032759269E+03  0.16500000000E+03 0.  0.
<mgrwt>
<rscale>  0 0.50328973E+03</rscale>
<asrwt>0</asrwt>
<pdfrwt beam="1">  1        2 0.11824061E+00 0.50328973E+03</pdfrwt>
<pdfrwt beam="2">  1       -2 0.10929830E-01 0.50328973E+03</pdfrwt>
<totfact> 0.21566074E+03</totfact>
</mgrwt>
</event>
<event>
 4    1  0.3541639E-005  0.7257271E+03  0.7818608E-02  0.9674220E-01
         -2   -1    0    0    0  501 -0.00000000000E+00  0.00000000000E+00  0.53278054639E+02  0.53278054700E+02  0.25500000000E-02 0. -1.
          2   -1    0    0  501    0  0.00000000000E+00 -0.00000000000E+00 -0.24713729266E+04  0.24713729266E+04  0.25500000000E-02 0.  1.
    5000001    1    1    2    0    0 -0.31924906515E+03 -0.49006758751E+02 -0.12476782654E+04  0.12993258567E+04  0.16500000000E+03 0.  0.
   -5000001    1    1    2    0    0  0.31924906515E+03  0.49006758751E+02 -0.11704166066E+04  0.12253251246E+04  0.16500000000E+03 0.  0.
<mgrwt>
<rscale>  0 0.72572706E+03</rscale>
<asrwt>0</asrwt>
<pdfrwt beam="1">  1        2 0.35305320E+00 0.72572706E+03</pdfrwt>
<pdfrwt beam="2">  1       -2 0.76111522E-02 0.72572706E+03</pdfrwt>
<totfact> 0.50270673E+02</totfact>
</mgrwt>
</event>
<event>
 4    1  0.3541639E-005  0.3958177E+03  0.7818608E-02  0.1045238E+00
         -2   -1    0    0    0  501 -0.00000000000E+00  0.00000000000E+00  0.91802353076E+02  0.91802353111E+02  0.25500000000E-02 0. -1.
          2   -1    0    0  501    0  0.00000000000E+00 -0.00000000000E+00 -0.42665484656E+03  0.42665484657E+03  0.25500000000E-02 0.  1.
    5000001    1    1    2    0    0  0.98979549840E+02 -0.28312512921E+02 -0.11940018850E+03  0.22821032993E+03  0.16500000000E+03 0.  0.
   -5000001    1    1    2    0    0 -0.98979549840E+02  0.28312512921E+02 -0.21545230498E+03  0.29024686974E+03  0.16500000000E+03 0.  0.
<mgrwt>
<rscale>  0 0.39581773E+03</rscale>
<asrwt>0</asrwt>
<pdfrwt beam="1">  1        2 0.60950691E-01 0.39581773E+03</pdfrwt>
<pdfrwt beam="2">  1       -2 0.13114622E-01 0.39581773E+03</pdfrwt>
<totfact> 0.34728506E+03</totfact>
</mgrwt>
</event>
<event>
 4    1  0.3541639E-005  0.6418335E+03  0.7818608E-02  0.9822225E-01
          2   -1    0    0  501    0  0.00000000000E+00  0.00000000000E+00  0.16375010522E+04  0.16375010522E+04  0.25500000000E-02 0.  1.
         -2   -1    0    0    0  501 -0.00000000000E+00 -0.00000000000E+00 -0.62893118236E+02  0.62893118288E+02  0.25500000000E-02 0. -1.
    5000001    1    1    2    0    0  0.25873560631E+03  0.66745808152E+02  0.61230266357E+03  0.68814145980E+03  0.16500000000E+03 0.  0.
   -5000001    1    1    2    0    0 -0.25873560631E+03 -0.66745808152E+02  0.96230527043E+03  0.10122527107E+04  0.16500000000E+03 0.  0.
<mgrwt>
<rscale>  0 0.64183346E+03</rscale>
<asrwt>0</asrwt>
<pdfrwt beam="1">  1        2 0.23392868E+00 0.64183346E+03</pdfrwt>
<pdfrwt beam="2">  1       -2 0.89847326E-02 0.64183346E+03</pdfrwt>
<totfact> 0.10265710E+03</totfact>
</mgrwt>
</event>
<event>
 4    1  0.3541639E-005  0.4403028E+03  0.7818608E-02  0.1030654E+00
          2   -1    0    0  501    0  0.00000000000E+00  0.00000000000E+00  0.14669864319E+04  0.14669864319E+04  0.25500000000E-02 0.  1.
         -2   -1    0    0    0  501 -0.00000000000E+00 -0.00000000000E+00 -0.33038227552E+02  0.33038227650E+02  0.25500000000E-02 0. -1.
    5000001    1    1    2    0    0 -0.81667526979E+02  0.12024383032E+03  0.68068438663E+03  0.71532118513E+03  0.16500000000E+03 0.  0.
   -5000001    1    1    2    0    0  0.81667526979E+02 -0.12024383032E+03  0.75326381774E+03  0.78470347445E+03  0.16500000000E+03 0.  0.
<mgrwt>
<rscale>  0 0.44030277E+03</rscale>
<asrwt>0</asrwt>
<pdfrwt beam="1">  1        2 0.20956944E+00 0.44030277E+03</pdfrwt>
<pdfrwt beam="2">  1       -2 0.47197480E-02 0.44030277E+03</pdfrwt>
<totfact> 0.34728172E+03</totfact>
</mgrwt>
</event>
<event>
 4    1  0.3541639E-005  0.4194230E+03  0.7818608E-02  0.1037254E+00
          2   -1    0    0  501    0  0.00000000000E+00  0.00000000000E+00  0.14545493056E+04  0.14545493056E+04  0.25500000000E-02 0.  1.
         -2   -1    0    0    0  501 -0.00000000000E+00 -0.00000000000E+00 -0.30235421528E+02  0.30235421636E+02  0.25500000000E-02 0. -1.
    5000001    1    1    2    0    0 -0.13222936514E+01  0.12640661359E+03  0.81061474335E+03  0.83684027303E+03  0.16500000000E+03 0.  0.
   -5000001    1    1    2    0    0  0.13222936514E+01 -0.12640661359E+03  0.61369914069E+03  0.64794445418E+03  0.16500000000E+03 0.  0.
<mgrwt>
<rscale>  0 0.41942299E+03</rscale>
<asrwt>0</asrwt>
<pdfrwt beam="1">  1        2 0.20779276E+00 0.41942299E+03</pdfrwt>
<pdfrwt beam="2">  1       -2 0.43193459E-02 0.41942299E+03</pdfrwt>
<totfact> 0.40373265E+03</totfact>
</mgrwt>
</event>
<event>
 4    1  0.3541639E-005  0.9068374E+03  0.7818608E-02  0.9417074E-01
         -2   -1    0    0    0  501 -0.00000000000E+00  0.00000000000E+00  0.21903665180E+03  0.21903665182E+03  0.25500000000E-02 0. -1.
          2   -1    0    0  501    0  0.00000000000E+00 -0.00000000000E+00 -0.93860331739E+03  0.93860331739E+03  0.25500000000E-02 0.  1.
    5000001    1    1    2    0    0 -0.18061880337E+03 -0.38002294387E+03 -0.31335171369E+03  0.54995898617E+03  0.16500000000E+03 0.  0.
   -5000001    1    1    2    0    0  0.18061880337E+03  0.38002294387E+03 -0.40621495190E+03  0.60768098304E+03  0.16500000000E+03 0.  0.
<mgrwt>
<rscale>  0 0.90683742E+03</rscale>
<asrwt>0</asrwt>
<pdfrwt beam="1">  1        2 0.13408619E+00 0.90683742E+03</pdfrwt>
<pdfrwt beam="2">  1       -2 0.31290951E-01 0.90683742E+03</pdfrwt>
<totfact> 0.29074773E+02</totfact>
</mgrwt>
</event>
<event>
 4    1  0.3541639E-005  0.4275282E+03  0.7818608E-02  0.1034644E+00
          2   -1    0    0  501    0  0.00000000000E+00  0.00000000000E+00  0.27127752735E+03  0.27127752737E+03  0.25500000000E-02 0.  1.
         -2   -1    0    0    0  501 -0.00000000000E+00 -0.00000000000E+00 -0.16844408987E+03  0.16844408988E+03  0.25500000000E-02 0. -1.
    5000001    1    1    2    0    0  0.68428401021E+02 -0.88580113166E+02  0.13069433979E+03  0.23840069834E+03  0.16500000000E+03 0.  0.
   -5000001    1    1    2    0    0 -0.68428401021E+02  0.88580113166E+02 -0.27860902301E+02  0.20132091891E+03  0.16500000000E+03 0.  0.
<mgrwt>
<rscale>  0 0.42752823E+03</rscale>
<asrwt>0</asrwt>
<pdfrwt beam="1">  1        2 0.38753932E-01 0.42752823E+03</pdfrwt>
<pdfrwt beam="2">  1       -2 0.24063442E-01 0.42752823E+03</pdfrwt>
<totfact> 0.20285522E+03</totfact>
</mgrwt>
</event>
<event>
 4    1  0.3541639E-005  0.4358618E+03  0.7818608E-02  0.1032024E+00
         -2   -1    0    0    0  501 -0.00000000000E+00  0.00000000000E+00  0.25485885074E+03  0.25485885076E+03  0.25500000000E-02 0. -1.
          2   -1    0    0  501    0  0.00000000000E+00 -0.00000000000E+00 -0.18635368608E+03  0.18635368610E+03  0.25500000000E-02 0.  1.
    5000001    1    1    2    0    0 -0.10701694515E+03 -0.17254248680E+02  0.12768161427E+03  0.23511259062E+03  0.16500000000E+03 0.  0.
   -5000001    1    1    2    0    0  0.10701694515E+03  0.17254248680E+02 -0.59176449613E+02  0.20609994623E+03  0.16500000000E+03 0.  0.
<mgrwt>
<rscale>  0 0.43586184E+03</rscale>
<asrwt>0</asrwt>
<pdfrwt beam="1">  1        2 0.26621955E-01 0.43586184E+03</pdfrwt>
<pdfrwt beam="2">  1       -2 0.36408407E-01 0.43586184E+03</pdfrwt>
<totfact> 0.14410731E+03</totfact>
</mgrwt>
</event>
<event>
 4    1  0.3541639E-005  0.5012353E+03  0.7818608E-02  0.1013457E+00
          2   -1    0    0  501    0  0.00000000000E+00  0.00000000000E+00  0.29792043604E+03  0.29792043605E+03  0.25500000000E-02 0.  1.
         -2   -1    0    0    0  501 -0.00000000000E+00 -0.00000000000E+00 -0.21082546030E+03  0.21082546032E+03  0.25500000000E-02 0. -1.
    5000001    1    1    2    0    0 -0.12559802980E+03 -0.14071853483E+03  0.46353314878E+02  0.25485329296E+03  0.16500000000E+03 0.  0.
   -5000001    1    1    2    0    0  0.12559802980E+03  0.14071853483E+03  0.40741660862E+02  0.25389260340E+03  0.16500000000E+03 0.  0.
<mgrwt>
<rscale>  0 0.50123533E+03</rscale>
<asrwt>0</asrwt>
<pdfrwt beam="1">  1        2 0.42560062E-01 0.50123533E+03</pdfrwt>
<pdfrwt beam="2">  1       -2 0.30117923E-01 0.50123533E+03</pdfrwt>
<totfact> 0.12218354E+03</totfact>
</mgrwt>
</event>
<event>
 4    1  0.3541639E-005  0.4042565E+03  0.7818608E-02  0.1042316E+00
         -2   -1    0    0    0  501 -0.00000000000E+00  0.00000000000E+00  0.39961562044E+02  0.39961562125E+02  0.25500000000E-02 0. -1.
          2   -1    0    0  501    0  0.00000000000E+00 -0.00000000000E+00 -0.10223780312E+04  0.10223780312E+04  0.25500000000E-02 0.  1.
    5000001    1    1    2    0    0  0.76887480792E+02  0.84967513239E+02 -0.54994956139E+03  0.58549183008E+03  0.16500000000E+03 0.  0.
   -5000001    1    1    2    0    0 -0.76887480792E+02 -0.84967513239E+02 -0.43246690776E+03  0.47684776325E+03  0.16500000000E+03 0.  0.
<mgrwt>
<rscale>  0 0.40425647E+03</rscale>
<asrwt>0</asrwt>
<pdfrwt beam="1">  1        2 0.14605399E+00 0.40425647E+03</pdfrwt>
<pdfrwt beam="2">  1       -2 0.57087952E-02 0.40425647E+03</pdfrwt>
<totfact> 0.45400042E+03</totfact>
</mgrwt>
</event>
<event>
 4    1  0.3541639E-005  0.3801986E+03  0.7818608E-02  0.1050860E+00
          2   -1    0    0  501    0  0.00000000000E+00  0.00000000000E+00  0.27229485687E+03  0.27229485689E+03  0.25500000000E-02 0.  1.
         -2   -1    0    0    0  501 -0.00000000000E+00 -0.00000000000E+00 -0.13271551029E+03  0.13271551032E+03  0.25500000000E-02 0. -1.
    5000001    1    1    2    0    0 -0.91434282895E+02  0.22016102036E+02  0.78562012719E+02  0.20552840845E+03  0.16500000000E+03 0.  0.
   -5000001    1    1    2    0    0  0.91434282895E+02 -0.22016102036E+02  0.61017333862E+02  0.19948195876E+03  0.16500000000E+03 0.  0.
<mgrwt>
<rscale>  0 0.38019864E+03</rscale>
<asrwt>0</asrwt>
<pdfrwt beam="1">  1        2 0.38899266E-01 0.38019864E+03</pdfrwt>
<pdfrwt beam="2">  1       -2 0.18959358E-01 0.38019864E+03</pdfrwt>
<totfact> 0.30543940E+03</totfact>
</mgrwt>
</event>
<event>
 4    1  0.3541639E-005  0.4414862E+03  0.7818608E-02  0.1030292E+00
         -2   -1    0    0    0  501 -0.00000000000E+00  0.00000000000E+00  0.56312424868E+02  0.56312424926E+02  0.25500000000E-02 0. -1.
          2   -1    0    0  501    0  0.00000000000E+00 -0.00000000000E+00 -0.86530663521E+03  0.86530663521E+03  0.25500000000E-02 0.  1.
    5000001    1    1    2    0    0 -0.12099923644E+03  0.76697297972E+02 -0.33917271197E+03  0.40346799040E+03  0.16500000000E+03 0.  0.
   -5000001    1    1    2    0    0  0.12099923644E+03 -0.76697297972E+02 -0.46982149837E+03  0.51815106973E+03  0.16500000000E+03 0.  0.
<mgrwt>
<rscale>  0 0.44148619E+03</rscale>
<asrwt>0</asrwt>
<pdfrwt beam="1">  1        2 0.12361523E+00 0.44148619E+03</pdfrwt>
<pdfrwt beam="2">  1       -2 0.80446327E-02 0.44148619E+03</pdfrwt>
<totfact> 0.33266705E+03</totfact>
</mgrwt>
</event>
<event>
 4    1  0.3541639E-005  0.4695189E+03  0.7818608E-02  0.1022056E+00
          2   -1    0    0  501    0  0.00000000000E+00  0.00000000000E+00  0.21653027590E+04  0.21653027590E+04  0.25500000000E-02 0.  1.
         -2   -1    0    0    0  501 -0.00000000000E+00 -0.00000000000E+00 -0.25452333945E+02  0.25452334073E+02  0.25500000000E-02 0. -1.
    5000001    1    1    2    0    0 -0.14500592481E+03 -0.34401693744E+02  0.14214800324E+04  0.14387635933E+04  0.16500000000E+03 0.  0.
   -5000001    1    1    2    0    0  0.14500592481E+03  0.34401693744E+02  0.71837039269E+03  0.75199149986E+03  0.16500000000E+03 0.  0.
<mgrwt>
<rscale>  0 0.46951894E+03</rscale>
<asrwt>0</asrwt>
<pdfrwt beam="1">  1        2 0.30932904E+00 0.46951894E+03</pdfrwt>
<pdfrwt beam="2">  1       -2 0.36360469E-02 0.46951894E+03</pdfrwt>
<totfact> 0.23048731E+03</totfact>
</mgrwt>
</event>
<event>
 4    1  0.3541639E-005  0.8180697E+03  0.7818608E-02  0.9534224E-01
          2   -1    0    0  501    0  0.00000000000E+00  0.00000000000E+00  0.31029139032E+04  0.31029139032E+04  0.25500000000E-02 0.  1.
         -2   -1    0    0    0  501 -0.00000000000E+00 -0.00000000000E+00 -0.53920127303E+02  0.53920127364E+02  0.25500000000E-02 0. -1.
    5000001    1    1    2    0    0  0.36004769627E+03  0.99525239090E+02  0.14344189924E+04  0.14914162606E+04  0.16500000000E+03 0.  0.
   -5000001    1    1    2    0    0 -0.36004769627E+03 -0.99525239090E+02  0.16145747835E+04  0.16654177699E+04  0.16500000000E+03 0.  0.
<mgrwt>
<rscale>  0 0.81806971E+03</rscale>
<asrwt>0</asrwt>
<pdfrwt beam="1">  1        2 0.44327330E+00 0.81806971E+03</pdfrwt>
<pdfrwt beam="2">  1       -2 0.77028774E-02 0.81806971E+03</pdfrwt>
<totfact> 0.22506789E+02</totfact>
</mgrwt>
</event>
<event>
 4    1  0.3541639E-005  0.5688840E+03  0.7818608E-02  0.9972151E-01
          2   -1    0    0  501    0  0.00000000000E+00  0.00000000000E+00  0.89486858502E+03  0.89486858502E+03  0.25500000000E-02 0.  1.
         -2   -1    0    0    0  501 -0.00000000000E+00 -0.00000000000E+00 -0.90412423588E+02  0.90412423624E+02  0.25500000000E-02 0. -1.
    5000001    1    1    2    0    0  0.14821935358E+03  0.17589582447E+03  0.45041003294E+03  0.53197980753E+03  0.16500000000E+03 0.  0.
   -5000001    1    1    2    0    0 -0.14821935358E+03 -0.17589582447E+03  0.35404612849E+03  0.45330120112E+03  0.16500000000E+03 0.  0.
<mgrwt>
<rscale>  0 0.56888395E+03</rscale>
<asrwt>0</asrwt>
<pdfrwt beam="1">  1        2 0.12783835E+00 0.56888395E+03</pdfrwt>
<pdfrwt beam="2">  1       -2 0.12916062E-01 0.56888395E+03</pdfrwt>
<totfact> 0.14800437E+03</totfact>
</mgrwt>
</event>
<event>
 4    1  0.3541639E-005  0.4403466E+03  0.7818608E-02  0.1030641E+00
         -2   -1    0    0    0  501 -0.00000000000E+00  0.00000000000E+00  0.31708390732E+02  0.31708390835E+02  0.25500000000E-02 0. -1.
          2   -1    0    0  501    0  0.00000000000E+00 -0.00000000000E+00 -0.15288152684E+04  0.15288152684E+04  0.25500000000E-02 0.  1.
    5000001    1    1    2    0    0 -0.95410038454E+01 -0.10838913477E+03 -0.40474418597E+03  0.45042434589E+03  0.16500000000E+03 0.  0.
   -5000001    1    1    2    0    0  0.95410038454E+01  0.10838913477E+03 -0.10923626917E+04  0.11100993134E+04  0.16500000000E+03 0.  0.
<mgrwt>
<rscale>  0 0.44034655E+03</rscale>
<asrwt>0</asrwt>
<pdfrwt beam="1">  1        2 0.21840213E+00 0.44034655E+03</pdfrwt>
<pdfrwt beam="2">  1       -2 0.45297711E-02 0.44034655E+03</pdfrwt>
<totfact> 0.34371211E+03</totfact>
</mgrwt>
</event>
<event>
 4    1  0.3541639E-005  0.5518973E+03  0.7818608E-02  0.1001056E+00
         -2   -1    0    0    0  501 -0.00000000000E+00  0.00000000000E+00  0.28344939182E+02  0.28344939297E+02  0.25500000000E-02 0. -1.
          2   -1    0    0  501    0  0.00000000000E+00 -0.00000000000E+00 -0.26864636306E+04  0.26864636306E+04  0.25500000000E-02 0.  1.
    5000001    1    1    2    0    0  0.12326468362E+03 -0.33428135416E+02 -0.44075211204E+03  0.48764643620E+03  0.16500000000E+03 0.  0.
   -5000001    1    1    2    0    0 -0.12326468362E+03  0.33428135416E+02 -0.22173665794E+04  0.22271621338E+04  0.16500000000E+03 0.  0.
<mgrwt>
<rscale>  0 0.55189727E+03</rscale>
<asrwt>0</asrwt>
<pdfrwt beam="1">  1        2 0.38378036E+00 0.55189727E+03</pdfrwt>
<pdfrwt beam="2">  1       -2 0.40492787E-02 0.55189727E+03</pdfrwt>
<totfact> 0.10570407E+03</totfact>
</mgrwt>
</event>
<event>
 4    1  0.3541639E-005  0.3850805E+03  0.7818608E-02  0.1049072E+00
          2   -1    0    0  501    0  0.00000000000E+00  0.00000000000E+00  0.68578717932E+03  0.68578717932E+03  0.25500000000E-02 0.  1.
         -2   -1    0    0    0  501 -0.00000000000E+00 -0.00000000000E+00 -0.54057217356E+02  0.54057217416E+02  0.25500000000E-02 0. -1.
    5000001    1    1    2    0    0  0.74519749720E+02  0.34689388387E+02  0.42266766187E+03  0.46111766303E+03  0.16500000000E+03 0.  0.
   -5000001    1    1    2    0    0 -0.74519749720E+02 -0.34689388387E+02  0.20906230008E+03  0.27872673370E+03  0.16500000000E+03 0.  0.
<mgrwt>
<rscale>  0 0.38508049E+03</rscale>
<asrwt>0</asrwt>
<pdfrwt beam="1">  1        2 0.97969598E-01 0.38508049E+03</pdfrwt>
<pdfrwt beam="2">  1       -2 0.77224596E-02 0.38508049E+03</pdfrwt>
<totfact> 0.47306178E+03</totfact>
</mgrwt>
</event>
<event>
 4    1  0.3541639E-005  0.4455562E+03  0.7818608E-02  0.1029056E+00
         -2   -1    0    0    0  501 -0.00000000000E+00  0.00000000000E+00  0.26443325158E+02  0.26443325281E+02  0.25500000000E-02 0. -1.
          2   -1    0    0  501    0  0.00000000000E+00 -0.00000000000E+00 -0.18768469187E+04  0.18768469187E+04  0.25500000000E-02 0.  1.
    5000001    1    1    2    0    0  0.90091342935E+02 -0.30937614626E+02 -0.43198044411E+03  0.47212889147E+03  0.16500000000E+03 0.  0.
   -5000001    1    1    2    0    0 -0.90091342935E+02  0.30937614626E+02 -0.14184231494E+04  0.14311613525E+04  0.16500000000E+03 0.  0.
<mgrwt>
<rscale>  0 0.44555616E+03</rscale>
<asrwt>0</asrwt>
<pdfrwt beam="1">  1        2 0.26812090E+00 0.44555616E+03</pdfrwt>
<pdfrwt beam="2">  1       -2 0.37776191E-02 0.44555616E+03</pdfrwt>
<totfact> 0.30290635E+03</totfact>
</mgrwt>
</event>
<event>
 4    1  0.3541639E-005  0.5447388E+03  0.7818608E-02  0.1002719E+00
          2   -1    0    0  501    0  0.00000000000E+00  0.00000000000E+00  0.25142244406E+04  0.25142244406E+04  0.25500000000E-02 0. -1.
         -2   -1    0    0    0  501 -0.00000000000E+00 -0.00000000000E+00 -0.29506150155E+02  0.29506150265E+02  0.25500000000E-02 0.  1.
    5000001    1    1    2    0    0 -0.17838630277E+03 -0.11952727254E+03  0.13786326374E+04  0.14049773631E+04  0.16500000000E+03 0.  0.
   -5000001    1    1    2    0    0  0.17838630277E+03  0.11952727254E+03  0.11060856530E+04  0.11387532278E+04  0.16500000000E+03 0.  0.
<mgrwt>
<rscale>  0 0.54473878E+03</rscale>
<asrwt>0</asrwt>
<pdfrwt beam="1">  1        2 0.35917504E+00 0.54473878E+03</pdfrwt>
<pdfrwt beam="2">  1       -2 0.42151629E-02 0.54473878E+03</pdfrwt>
<totfact> 0.12204313E+03</totfact>
</mgrwt>
</event>
<event>
 4    1  0.3541639E-005  0.4749216E+03  0.7818608E-02  0.1020540E+00
          2   -1    0    0  501    0  0.00000000000E+00  0.00000000000E+00  0.17636622303E+04  0.17636622303E+04  0.25500000000E-02 0.  1.
         -2   -1    0    0    0  501 -0.00000000000E+00 -0.00000000000E+00 -0.31971898609E+02  0.31971898711E+02  0.25500000000E-02 0. -1.
    5000001    1    1    2    0    0 -0.15242955382E+03  0.20984256878E+02  0.11459264436E+04  0.11679244505E+04  0.16500000000E+03 0.  0.
   -5000001    1    1    2    0    0  0.15242955382E+03 -0.20984256878E+02  0.58576388805E+03  0.62770967848E+03  0.16500000000E+03 0.  0.
<mgrwt>
<rscale>  0 0.47492159E+03</rscale>
<asrwt>0</asrwt>
<pdfrwt beam="1">  1        2 0.25195176E+00 0.47492159E+03</pdfrwt>
<pdfrwt beam="2">  1       -2 0.45674138E-02 0.47492159E+03</pdfrwt>
<totfact> 0.25791932E+03</totfact>
</mgrwt>
</event>
<event>
 4    1  0.3541639E-005  0.4228972E+03  0.7818608E-02  0.1036127E+00
         -2   -1    0    0    0  501 -0.00000000000E+00  0.00000000000E+00  0.17655975130E+02  0.17655975314E+02  0.25500000000E-02 0. -1.
          2   -1    0    0  501    0  0.00000000000E+00 -0.00000000000E+00 -0.25323163783E+04  0.25323163783E+04  0.25500000000E-02 0.  1.
    5000001    1    1    2    0    0  0.49369749791E+02 -0.84996803917E+02 -0.17906729014E+04  0.18009431608E+04  0.16500000000E+03 0.  0.
   -5000001    1    1    2    0    0 -0.49369749791E+02  0.84996803917E+02 -0.72398750183E+03  0.74902919280E+03  0.16500000000E+03 0.  0.
<mgrwt>
<rscale>  0 0.42289722E+03</rscale>
<asrwt>0</asrwt>
<pdfrwt beam="1">  1        2 0.36175925E+00 0.42289722E+03</pdfrwt>
<pdfrwt beam="2">  1       -2 0.25222838E-02 0.42289722E+03</pdfrwt>
<totfact> 0.26239373E+03</totfact>
</mgrwt>
</event>
<event>
 4    1  0.3541639E-005  0.4143952E+03  0.7818608E-02  0.1038906E+00
          2   -1    0    0  501    0  0.00000000000E+00  0.00000000000E+00  0.23213776105E+04  0.23213776105E+04  0.25500000000E-02 0.  1.
         -2   -1    0    0    0  501 -0.00000000000E+00 -0.00000000000E+00 -0.18493689739E+02  0.18493689915E+02  0.25500000000E-02 0. -1.
    5000001    1    1    2    0    0  0.11531035232E+03 -0.47228085546E+02  0.12269587853E+04  0.12442587473E+04  0.16500000000E+03 0.  0.
   -5000001    1    1    2    0    0 -0.11531035232E+03  0.47228085546E+02  0.10759251354E+04  0.10956125530E+04  0.16500000000E+03 0.  0.
<mgrwt>
<rscale>  0 0.41439516E+03</rscale>
<asrwt>0</asrwt>
<pdfrwt beam="1">  1        2 0.33162537E+00 0.41439516E+03</pdfrwt>
<pdfrwt beam="2">  1       -2 0.26419557E-02 0.41439516E+03</pdfrwt>
<totfact> 0.31279284E+03</totfact>
</mgrwt>
</event>
<event>
 4    1  0.3541639E-005  0.3359931E+03  0.7818608E-02  0.1068515E+00
          2   -1    0    0  501    0  0.00000000000E+00  0.00000000000E+00  0.26383656582E+04  0.26383656582E+04  0.25500000000E-02 0.  1.
         -2   -1    0    0    0  501 -0.00000000000E+00 -0.00000000000E+00 -0.10697089736E+02  0.10697090040E+02  0.25500000000E-02 0. -1.
    5000001    1    1    2    0    0  0.27597259954E+02 -0.15166508568E+02  0.12941980500E+04  0.13050537247E+04  0.16500000000E+03 0.  0.
   -5000001    1    1    2    0    0 -0.27597259954E+02  0.15166508568E+02  0.13334705184E+04  0.13440090235E+04  0.16500000000E+03 0.  0.
<mgrwt>
<rscale>  0 0.33599306E+03</rscale>
<asrwt>0</asrwt>
<pdfrwt beam="1">  1        2 0.37690937E+00 0.33599306E+03</pdfrwt>
<pdfrwt beam="2">  1       -2 0.15281558E-02 0.33599306E+03</pdfrwt>
<totfact> 0.48961223E+03</totfact>
</mgrwt>
</event>
<event>
 4    1  0.3541639E-005  0.6382493E+03  0.7818608E-02  0.9829082E-01
         -2   -1    0    0    0  501 -0.00000000000E+00  0.00000000000E+00  0.26342886204E+03  0.26342886205E+03  0.25500000000E-02 0. -1.
          2   -1    0    0  501    0  0.00000000000E+00 -0.00000000000E+00 -0.38659597159E+03  0.38659597159E+03  0.25500000000E-02 0.  1.
    5000001    1    1    2    0    0  0.25693421444E+03 -0.90526353418E+02 -0.82087699593E+02  0.32889755493E+03  0.16500000000E+03 0.  0.
   -5000001    1    1    2    0    0 -0.25693421444E+03  0.90526353418E+02 -0.41079409954E+02  0.32112727872E+03  0.16500000000E+03 0.  0.
<mgrwt>
<rscale>  0 0.63824928E+03</rscale>
<asrwt>0</asrwt>
<pdfrwt beam="1">  1        2 0.55227996E-01 0.63824928E+03</pdfrwt>
<pdfrwt beam="2">  1       -2 0.37632695E-01 0.63824928E+03</pdfrwt>
<totfact> 0.60213189E+02</totfact>
</mgrwt>
</event>
<event>
 4    1  0.3541639E-005  0.5527274E+03  0.7818608E-02  0.1000865E+00
          2   -1    0    0  501    0  0.00000000000E+00  0.00000000000E+00  0.25401022488E+03  0.25401022490E+03  0.25500000000E-02 0.  1.
         -2   -1    0    0    0  501 -0.00000000000E+00 -0.00000000000E+00 -0.30068436557E+03  0.30068436558E+03  0.25500000000E-02 0. -1.
    5000001    1    1    2    0    0  0.22146063727E+03  0.20146427004E+01 -0.13150542153E+02  0.27649016149E+03  0.16500000000E+03 0.  0.
   -5000001    1    1    2    0    0 -0.22146063727E+03 -0.20146427004E+01 -0.33523598529E+02  0.27820442898E+03  0.16500000000E+03 0.  0.
<mgrwt>
<rscale>  0 0.55272743E+03</rscale>
<asrwt>0</asrwt>
<pdfrwt beam="1">  1        2 0.36287175E-01 0.55272743E+03</pdfrwt>
<pdfrwt beam="2">  1       -2 0.42954909E-01 0.55272743E+03</pdfrwt>
<totfact> 0.74174871E+02</totfact>
</mgrwt>
</event>
<event>
 4    1  0.3541639E-005  0.3647697E+03  0.7818608E-02  0.1056711E+00
          2   -1    0    0  501    0  0.00000000000E+00  0.00000000000E+00  0.11339559245E+03  0.11339559248E+03  0.25500000000E-02 0.  1.
         -2   -1    0    0    0  501 -0.00000000000E+00 -0.00000000000E+00 -0.29334684167E+03  0.29334684168E+03  0.25500000000E-02 0. -1.
    5000001    1    1    2    0    0  0.62505110838E+02 -0.14812640075E+02 -0.13874541412E+03  0.22494797871E+03  0.16500000000E+03 0.  0.
   -5000001    1    1    2    0    0 -0.62505110838E+02  0.14812640075E+02 -0.41205835098E+02  0.18179445545E+03  0.16500000000E+03 0.  0.
<mgrwt>
<rscale>  0 0.36476973E+03</rscale>
<asrwt>0</asrwt>
<pdfrwt beam="1">  1        2 0.16199370E-01 0.36476973E+03</pdfrwt>
<pdfrwt beam="2">  1       -2 0.41906691E-01 0.36476973E+03</pdfrwt>
<totfact> 0.19479916E+03</totfact>
</mgrwt>
</event>
<event>
 4    1  0.3541639E-005  0.7092776E+03  0.7818608E-02  0.9701496E-01
          2   -1    0    0  501    0  0.00000000000E+00  0.00000000000E+00  0.20506330378E+04  0.20506330378E+04  0.25500000000E-02 0.  1.
         -2   -1    0    0    0  501 -0.00000000000E+00 -0.00000000000E+00 -0.61331641496E+02  0.61331641549E+02  0.25500000000E-02 0. -1.
    5000001    1    1    2    0    0  0.51868800243E+02 -0.30851676342E+03  0.10717663458E+04  0.11286190968E+04  0.16500000000E+03 0.  0.
   -5000001    1    1    2    0    0 -0.51868800243E+02  0.30851676342E+03  0.91753505047E+03  0.98334558248E+03  0.16500000000E+03 0.  0.
<mgrwt>
<rscale>  0 0.70927763E+03</rscale>
<asrwt>0</asrwt>
<pdfrwt beam="1">  1        2 0.29294760E+00 0.70927763E+03</pdfrwt>
<pdfrwt beam="2">  1       -2 0.87616622E-02 0.70927763E+03</pdfrwt>
<totfact> 0.65751950E+02</totfact>
</mgrwt>
</event>
<event>
 4    1  0.3541639E-005  0.4335905E+03  0.7818608E-02  0.1032732E+00
         -2   -1    0    0    0  501 -0.00000000000E+00  0.00000000000E+00  0.25087356010E+02  0.25087356140E+02  0.25500000000E-02 0. -1.
          2   -1    0    0  501    0  0.00000000000E+00 -0.00000000000E+00 -0.18734612966E+04  0.18734612966E+04  0.25500000000E-02 0.  1.
    5000001    1    1    2    0    0 -0.11539189485E+03  0.52870558933E+02 -0.65912005440E+03  0.69121258055E+03  0.16500000000E+03 0.  0.
   -5000001    1    1    2    0    0  0.11539189485E+03 -0.52870558933E+02 -0.11892538862E+04  0.12073360722E+04  0.16500000000E+03 0.  0.
<mgrwt>
<rscale>  0 0.43359055E+03</rscale>
<asrwt>0</asrwt>
<pdfrwt beam="1">  1        2 0.26763724E+00 0.43359055E+03</pdfrwt>
<pdfrwt beam="2">  1       -2 0.35839092E-02 0.43359055E+03</pdfrwt>
<totfact> 0.32949539E+03</totfact>
</mgrwt>
</event>
<event>
 4    1  0.3541639E-005  0.5172022E+03  0.7818608E-02  0.1009384E+00
          2   -1    0    0  501    0  0.00000000000E+00  0.00000000000E+00  0.67878065579E+03  0.67878065580E+03  0.25500000000E-02 0.  1.
         -2   -1    0    0    0  501 -0.00000000000E+00 -0.00000000000E+00 -0.98521569459E+02  0.98521569492E+02  0.25500000000E-02 0. -1.
    5000001    1    1    2    0    0 -0.92733877586E+02 -0.17581830269E+03  0.27248165885E+03  0.37547689945E+03  0.16500000000E+03 0.  0.
   -5000001    1    1    2    0    0  0.92733877586E+02  0.17581830269E+03  0.30777742748E+03  0.40182532584E+03  0.16500000000E+03 0.  0.
<mgrwt>
<rscale>  0 0.51720223E+03</rscale>
<asrwt>0</asrwt>
<pdfrwt beam="1">  1        2 0.96968665E-01 0.51720223E+03</pdfrwt>
<pdfrwt beam="2">  1       -2 0.14074510E-01 0.51720223E+03</pdfrwt>
<totfact> 0.18203638E+03</totfact>
</mgrwt>
</event>
<event>
 4    1  0.3541639E-005  0.4689964E+03  0.7818608E-02  0.1022204E+00
         -2   -1    0    0    0  501 -0.00000000000E+00  0.00000000000E+00  0.16530766150E+02  0.16530766347E+02  0.25500000000E-02 0. -1.
          2   -1    0    0  501    0  0.00000000000E+00 -0.00000000000E+00 -0.33264890945E+04  0.33264890945E+04  0.25500000000E-02 0.  1.
    5000001    1    1    2    0    0 -0.12791044828E+03  0.10203689293E+03 -0.18794615156E+04  0.18937722141E+04  0.16500000000E+03 0.  0.
   -5000001    1    1    2    0    0  0.12791044828E+03 -0.10203689293E+03 -0.14304968127E+04  0.14492476467E+04  0.16500000000E+03 0.  0.
<mgrwt>
<rscale>  0 0.46899643E+03</rscale>
<asrwt>0</asrwt>
<pdfrwt beam="1">  1        2 0.47521230E+00 0.46899643E+03</pdfrwt>
<pdfrwt beam="2">  1       -2 0.23615402E-02 0.46899643E+03</pdfrwt>
<totfact> 0.10838939E+03</totfact>
</mgrwt>
</event>
<event>
 4    1  0.3541639E-005  0.4302242E+03  0.7818608E-02  0.1033789E+00
         -2   -1    0    0    0  501 -0.00000000000E+00  0.00000000000E+00  0.40308543396E+02  0.40308543477E+02  0.25500000000E-02 0. -1.
          2   -1    0    0  501    0  0.00000000000E+00 -0.00000000000E+00 -0.11479753702E+04  0.11479753702E+04  0.25500000000E-02 0.  1.
    5000001    1    1    2    0    0  0.12232815588E+03  0.42421870853E+02 -0.42182136396E+03  0.47108603879E+03  0.16500000000E+03 0.  0.
   -5000001    1    1    2    0    0 -0.12232815588E+03 -0.42421870853E+02 -0.68584546289E+03  0.71719787494E+03  0.16500000000E+03 0.  0.
<mgrwt>
<rscale>  0 0.43022420E+03</rscale>
<asrwt>0</asrwt>
<pdfrwt beam="1">  1        2 0.16399646E+00 0.43022420E+03</pdfrwt>
<pdfrwt beam="2">  1       -2 0.57583641E-02 0.43022420E+03</pdfrwt>
<totfact> 0.37925637E+03</totfact>
</mgrwt>
</event>
<event>
 4    1  0.3541639E-005  0.4030955E+03  0.7818608E-02  0.1042713E+00
          2   -1    0    0  501    0  0.00000000000E+00  0.00000000000E+00  0.25093305132E+03  0.25093305133E+03  0.25500000000E-02 0.  1.
         -2   -1    0    0    0  501 -0.00000000000E+00 -0.00000000000E+00 -0.16188178289E+03  0.16188178291E+03  0.25500000000E-02 0. -1.
    5000001    1    1    2    0    0 -0.76682011887E+02 -0.59486885094E+02  0.10911510297E+03  0.22034047776E+03  0.16500000000E+03 0.  0.
   -5000001    1    1    2    0    0  0.76682011887E+02  0.59486885094E+02 -0.20063834539E+02  0.19247435648E+03  0.16500000000E+03 0.  0.
<mgrwt>
<rscale>  0 0.40309547E+03</rscale>
<asrwt>0</asrwt>
<pdfrwt beam="1">  1        2 0.35847578E-01 0.40309547E+03</pdfrwt>
<pdfrwt beam="2">  1       -2 0.23125969E-01 0.40309547E+03</pdfrwt>
<totfact> 0.23685839E+03</totfact>
</mgrwt>
</event>
<event>
 4    1  0.3541639E-005  0.4509555E+03  0.7818608E-02  0.1027437E+00
         -2   -1    0    0    0  501 -0.00000000000E+00  0.00000000000E+00  0.11446050786E+03  0.11446050789E+03  0.25500000000E-02 0. -1.
          2   -1    0    0  501    0  0.00000000000E+00 -0.00000000000E+00 -0.44417246601E+03  0.44417246602E+03  0.25500000000E-02 0.  1.
    5000001    1    1    2    0    0 -0.64063246018E+02 -0.75777359786E+02 -0.31021517644E+03  0.36510924864E+03  0.16500000000E+03 0.  0.
   -5000001    1    1    2    0    0  0.64063246018E+02  0.75777359786E+02 -0.19496781715E+02  0.19352372527E+03  0.16500000000E+03 0.  0.
<mgrwt>
<rscale>  0 0.45095546E+03</rscale>
<asrwt>0</asrwt>
<pdfrwt beam="1">  1        2 0.63453208E-01 0.45095546E+03</pdfrwt>
<pdfrwt beam="2">  1       -2 0.16351501E-01 0.45095546E+03</pdfrwt>
<totfact> 0.23044450E+03</totfact>
</mgrwt>
</event>
<event>
 4    1  0.3541639E-005  0.5420669E+03  0.7818608E-02  0.1003347E+00
         -2   -1    0    0    0  501 -0.00000000000E+00  0.00000000000E+00  0.32197039977E+02  0.32197040078E+02  0.25500000000E-02 0. -1.
          2   -1    0    0  501    0  0.00000000000E+00 -0.00000000000E+00 -0.22815493128E+04  0.22815493128E+04  0.25500000000E-02 0.  1.
    5000001    1    1    2    0    0  0.21186062740E+03 -0.14256755278E+02 -0.12691690163E+04  0.12973446622E+04  0.16500000000E+03 0.  0.
   -5000001    1    1    2    0    0 -0.21186062740E+03  0.14256755278E+02 -0.98018325652E+03  0.10164016907E+04  0.16500000000E+03 0.  0.
<mgrwt>
<rscale>  0 0.54206691E+03</rscale>
<asrwt>0</asrwt>
<pdfrwt beam="1">  1        2 0.32593552E+00 0.54206691E+03</pdfrwt>
<pdfrwt beam="2">  1       -2 0.45995786E-02 0.54206691E+03</pdfrwt>
<totfact> 0.14007613E+03</totfact>
</mgrwt>
</event>
<event>
 4    1  0.3541639E-005  0.6362307E+03  0.7818608E-02  0.9832965E-01
         -2   -1    0    0    0  501 -0.00000000000E+00  0.00000000000E+00  0.18647993817E+03  0.18647993819E+03  0.25500000000E-02 0. -1.
          2   -1    0    0  501    0  0.00000000000E+00 -0.00000000000E+00 -0.54267170267E+03  0.54267170268E+03  0.25500000000E-02 0.  1.
    5000001    1    1    2    0    0  0.24948148188E+03 -0.20393397836E+02 -0.56185749579E+02  0.30502252201E+03  0.16500000000E+03 0.  0.
   -5000001    1    1    2    0    0 -0.24948148188E+03  0.20393397836E+02 -0.30000601492E+03  0.42412911886E+03  0.16500000000E+03 0.  0.
<mgrwt>
<rscale>  0 0.63623073E+03</rscale>
<asrwt>0</asrwt>
<pdfrwt beam="1">  1        2 0.77524528E-01 0.63623073E+03</pdfrwt>
<pdfrwt beam="2">  1       -2 0.26639991E-01 0.63623073E+03</pdfrwt>
<totfact> 0.78241406E+02</totfact>
</mgrwt>
</event>
<event>
 4    1  0.3541639E-005  0.6317446E+03  0.7818608E-02  0.9841650E-01
         -2   -1    0    0    0  501 -0.00000000000E+00  0.00000000000E+00  0.24133046662E+02  0.24133046796E+02  0.25500000000E-02 0.  1.
          2   -1    0    0  501    0  0.00000000000E+00 -0.00000000000E+00 -0.41343857017E+04  0.41343857017E+04  0.25500000000E-02 0. -1.
    5000001    1    1    2    0    0 -0.40613452530E+02  0.26491071549E+03 -0.18781067134E+04  0.19042943487E+04  0.16500000000E+03 0.  0.
   -5000001    1    1    2    0    0  0.40613452530E+02 -0.26491071549E+03 -0.22321459417E+04  0.22542243998E+04  0.16500000000E+03 0.  0.
<mgrwt>
<rscale>  0 0.63174464E+03</rscale>
<asrwt>0</asrwt>
<pdfrwt beam="1">  1        2 0.59062608E+00 0.63174464E+03</pdfrwt>
<pdfrwt beam="2">  1       -2 0.34475807E-02 0.63174464E+03</pdfrwt>
<totfact> 0.18684323E+02</totfact>
</mgrwt>
</event>
<event>
 4    1  0.3541639E-005  0.4040832E+03  0.7818608E-02  0.1042375E+00
         -2   -1    0    0    0  501 -0.00000000000E+00  0.00000000000E+00  0.88568477005E+02  0.88568477042E+02  0.25500000000E-02 0. -1.
          2   -1    0    0  501    0  0.00000000000E+00 -0.00000000000E+00 -0.46089553300E+03  0.46089553300E+03  0.25500000000E-02 0.  1.
    5000001    1    1    2    0    0  0.10473353522E+03 -0.49404763099E+02 -0.16762502266E+03  0.26216996822E+03  0.16500000000E+03 0.  0.
   -5000001    1    1    2    0    0 -0.10473353522E+03  0.49404763099E+02 -0.20470203333E+03  0.28729404182E+03  0.16500000000E+03 0.  0.
<mgrwt>
<rscale>  0 0.40408324E+03</rscale>
<asrwt>0</asrwt>
<pdfrwt beam="1">  1        2 0.65842218E-01 0.40408324E+03</pdfrwt>
<pdfrwt beam="2">  1       -2 0.12652640E-01 0.40408324E+03</pdfrwt>
<totfact> 0.33833807E+03</totfact>
</mgrwt>
</event>
<event>
 4    1  0.3541639E-005  0.3571290E+03  0.7818608E-02  0.1059726E+00
          2   -1    0    0  501    0  0.00000000000E+00  0.00000000000E+00  0.35996536091E+02  0.35996536181E+02  0.25500000000E-02 0.  1.
         -2   -1    0    0    0  501 -0.00000000000E+00 -0.00000000000E+00 -0.88578745899E+03  0.88578745900E+03  0.25500000000E-02 0. -1.
    5000001    1    1    2    0    0 -0.52813587277E+02  0.37179152621E+02 -0.48195552851E+03  0.51349556556E+03  0.16500000000E+03 0.  0.
   -5000001    1    1    2    0    0  0.52813587277E+02 -0.37179152621E+02 -0.36783539439E+03  0.40828842961E+03  0.16500000000E+03 0.  0.
<mgrwt>
<rscale>  0 0.35712900E+03</rscale>
<asrwt>0</asrwt>
<pdfrwt beam="1">  1        2 0.51423628E-02 0.35712900E+03</pdfrwt>
<pdfrwt beam="2">  1       -2 0.12654105E+00 0.35712900E+03</pdfrwt>
<totfact> 0.74285235E+02</totfact>
</mgrwt>
</event>
<event>
 4    1  0.3541639E-005  0.8713318E+03  0.7818608E-02  0.9462145E-01
          2   -1    0    0  501    0  0.00000000000E+00  0.00000000000E+00  0.12397896091E+03  0.12397896094E+03  0.25500000000E-02 0.  1.
         -2   -1    0    0    0  501 -0.00000000000E+00 -0.00000000000E+00 -0.15309434615E+04  0.15309434615E+04  0.25500000000E-02 0. -1.
    5000001    1    1    2    0    0  0.23131152114E+03 -0.26279800745E+03 -0.32356499097E+03  0.50446716039E+03  0.16500000000E+03 0.  0.
   -5000001    1    1    2    0    0 -0.23131152114E+03  0.26279800745E+03 -0.10833995096E+04  0.11504552621E+04  0.16500000000E+03 0.  0.
<mgrwt>
<rscale>  0 0.87133181E+03</rscale>
<asrwt>0</asrwt>
<pdfrwt beam="1">  1        2 0.17711281E-01 0.87133181E+03</pdfrwt>
<pdfrwt beam="2">  1       -2 0.21870620E+00 0.87133181E+03</pdfrwt>
<totfact> 0.33473444E+01</totfact>
</mgrwt>
</event>
<event>
 4    1  0.3541639E-005  0.4580783E+03  0.7818608E-02  0.1025340E+00
         -2   -1    0    0    0  501 -0.00000000000E+00  0.00000000000E+00  0.36368702298E+02  0.36368702387E+02  0.25500000000E-02 0. -1.
          2   -1    0    0  501    0  0.00000000000E+00 -0.00000000000E+00 -0.14424199754E+04  0.14424199754E+04  0.25500000000E-02 0.  1.
    5000001    1    1    2    0    0  0.10835893654E+03 -0.11588037312E+03 -0.67719509688E+03  0.71483432992E+03  0.16500000000E+03 0.  0.
   -5000001    1    1    2    0    0 -0.10835893654E+03  0.11588037312E+03 -0.72885617622E+03  0.76395434786E+03  0.16500000000E+03 0.  0.
<mgrwt>
<rscale>  0 0.45807835E+03</rscale>
<asrwt>0</asrwt>
<pdfrwt beam="1">  1        2 0.20605996E+00 0.45807835E+03</pdfrwt>
<pdfrwt beam="2">  1       -2 0.51955298E-02 0.45807835E+03</pdfrwt>
<totfact> 0.30844169E+03</totfact>
</mgrwt>
</event>
<event>
 4    1  0.3541639E-005  0.1053633E+04  0.7818608E-02  0.9251601E-01
          2   -1    0    0  501    0  0.00000000000E+00  0.00000000000E+00  0.23070988659E+04  0.23070988659E+04  0.25500000000E-02 0. -1.
         -2   -1    0    0    0  501 -0.00000000000E+00 -0.00000000000E+00 -0.12029646190E+03  0.12029646192E+03  0.25500000000E-02 0.  1.
    5000001    1    1    2    0    0  0.39999633512E+03 -0.21171261333E+03  0.15847798350E+04  0.16563729726E+04  0.16500000000E+03 0.  0.
   -5000001    1    1    2    0    0 -0.39999633512E+03  0.21171261333E+03  0.60202256900E+03  0.77102235528E+03  0.16500000000E+03 0.  0.
<mgrwt>
<rscale>  0 0.10536334E+04</rscale>
<asrwt>0</asrwt>
<pdfrwt beam="1">  1        2 0.32958559E+00 0.10536334E+04</pdfrwt>
<pdfrwt beam="2">  1       -2 0.17185207E-01 0.10536334E+04</pdfrwt>
<totfact> 0.15492785E+02</totfact>
</mgrwt>
</event>
<event>
 4    1  0.3541639E-005  0.4962444E+03  0.7818608E-02  0.1014764E+00
         -2   -1    0    0    0  501 -0.00000000000E+00  0.00000000000E+00  0.11762996278E+03  0.11762996280E+03  0.25500000000E-02 0. -1.
          2   -1    0    0  501    0  0.00000000000E+00 -0.00000000000E+00 -0.52337534608E+03  0.52337534608E+03  0.25500000000E-02 0.  1.
    5000001    1    1    2    0    0  0.15822501449E+03  0.28294805393E+02 -0.83755523829E+02  0.24510352710E+03  0.16500000000E+03 0.  0.
   -5000001    1    1    2    0    0 -0.15822501449E+03 -0.28294805393E+02 -0.32198985947E+03  0.39590178179E+03  0.16500000000E+03 0.  0.
<mgrwt>
<rscale>  0 0.49624439E+03</rscale>
<asrwt>0</asrwt>
<pdfrwt beam="1">  1        2 0.74767905E-01 0.49624439E+03</pdfrwt>
<pdfrwt beam="2">  1       -2 0.16804281E-01 0.49624439E+03</pdfrwt>
<totfact> 0.18311461E+03</totfact>
</mgrwt>
</event>
<event>
 4    1  0.3541639E-005  0.3652795E+03  0.7818608E-02  0.1056513E+00
         -2   -1    0    0    0  501 -0.00000000000E+00  0.00000000000E+00  0.84026596450E+02  0.84026596488E+02  0.25500000000E-02 0. -1.
          2   -1    0    0  501    0  0.00000000000E+00 -0.00000000000E+00 -0.39698485062E+03  0.39698485063E+03  0.25500000000E-02 0.  1.
    5000001    1    1    2    0    0 -0.49564231520E+02 -0.38342043268E+02 -0.94636268948E+02  0.20026919066E+03  0.16500000000E+03 0.  0.
   -5000001    1    1    2    0    0  0.49564231520E+02  0.38342043268E+02 -0.21832198523E+03  0.28074225646E+03  0.16500000000E+03 0.  0.
<mgrwt>
<rscale>  0 0.36527954E+03</rscale>
<asrwt>0</asrwt>
<pdfrwt beam="1">  1        2 0.56712121E-01 0.36527954E+03</pdfrwt>
<pdfrwt beam="2">  1       -2 0.12003800E-01 0.36527954E+03</pdfrwt>
<totfact> 0.43364105E+03</totfact>
</mgrwt>
</event>
<event>
 4    1  0.3541639E-005  0.4159924E+03  0.7818608E-02  0.1038379E+00
          2   -1    0    0  501    0  0.00000000000E+00  0.00000000000E+00  0.66002174111E+02  0.66002174160E+02  0.25500000000E-02 0.  1.
         -2   -1    0    0    0  501 -0.00000000000E+00 -0.00000000000E+00 -0.65546953589E+03  0.65546953589E+03  0.25500000000E-02 0. -1.
    5000001    1    1    2    0    0  0.10029114988E+03 -0.77053025272E+02 -0.30596424470E+03  0.36991161442E+03  0.16500000000E+03 0.  0.
   -5000001    1    1    2    0    0 -0.10029114988E+03  0.77053025272E+02 -0.28350311708E+03  0.35156009564E+03  0.16500000000E+03 0.  0.
<mgrwt>
<rscale>  0 0.41599238E+03</rscale>
<asrwt>0</asrwt>
<pdfrwt beam="1">  1        2 0.94288824E-02 0.41599238E+03</pdfrwt>
<pdfrwt beam="2">  1       -2 0.93638502E-01 0.41599238E+03</pdfrwt>
<totfact> 0.69403668E+02</totfact>
</mgrwt>
</event>
<event>
 4    1  0.3541639E-005  0.6082012E+03  0.7818608E-02  0.9888536E-01
         -2   -1    0    0    0  501 -0.00000000000E+00  0.00000000000E+00  0.10519792966E+03  0.10519792969E+03  0.25500000000E-02 0. -1.
          2   -1    0    0  501    0  0.00000000000E+00 -0.00000000000E+00 -0.87907787111E+03  0.87907787111E+03  0.25500000000E-02 0.  1.
    5000001    1    1    2    0    0 -0.13755563845E+03  0.20110221770E+03 -0.26275401399E+03  0.39449756337E+03  0.16500000000E+03 0.  0.
   -5000001    1    1    2    0    0  0.13755563845E+03 -0.20110221770E+03 -0.51112592746E+03  0.58977823744E+03  0.16500000000E+03 0.  0.
<mgrwt>
<rscale>  0 0.60820119E+03</rscale>
<asrwt>0</asrwt>
<pdfrwt beam="1">  1        2 0.12558255E+00 0.60820119E+03</pdfrwt>
<pdfrwt beam="2">  1       -2 0.15028276E-01 0.60820119E+03</pdfrwt>
<totfact> 0.11760370E+03</totfact>
</mgrwt>
</event>
<event>
 4    1  0.3541639E-005  0.7158438E+03  0.7818608E-02  0.9690514E-01
         -2   -1    0    0    0  501 -0.00000000000E+00  0.00000000000E+00  0.42131343822E+03  0.42131343823E+03  0.25500000000E-02 0. -1.
          2   -1    0    0  501    0  0.00000000000E+00 -0.00000000000E+00 -0.30406834089E+03  0.30406834090E+03  0.25500000000E-02 0.  1.
    5000001    1    1    2    0    0 -0.31013248816E+03 -0.40336325311E+02  0.11480402821E+03  0.37177162915E+03  0.16500000000E+03 0.  0.
   -5000001    1    1    2    0    0  0.31013248816E+03  0.40336325311E+02  0.24410691238E+01  0.35361014998E+03  0.16500000000E+03 0.  0.
<mgrwt>
<rscale>  0 0.71584378E+03</rscale>
<asrwt>0</asrwt>
<pdfrwt beam="1">  1        2 0.43438335E-01 0.71584378E+03</pdfrwt>
<pdfrwt beam="2">  1       -2 0.60187633E-01 0.71584378E+03</pdfrwt>
<totfact> 0.30490559E+02</totfact>
</mgrwt>
</event>
<event>
 4    1  0.3541639E-005  0.7302322E+03  0.7818608E-02  0.9666884E-01
          2   -1    0    0  501    0  0.00000000000E+00  0.00000000000E+00  0.15462110016E+04  0.15462110016E+04  0.25500000000E-02 0.  1.
         -2   -1    0    0    0  501 -0.00000000000E+00 -0.00000000000E+00 -0.86217052285E+02  0.86217052323E+02  0.25500000000E-02 0. -1.
    5000001    1    1    2    0    0 -0.22505567592E+03  0.15666671527E+03  0.11228985005E+04  0.11676131891E+04  0.16500000000E+03 0.  0.
   -5000001    1    1    2    0    0  0.22505567592E+03 -0.15666671527E+03  0.33709544875E+03  0.46481486477E+03  0.16500000000E+03 0.  0.
<mgrwt>
<rscale>  0 0.73023217E+03</rscale>
<asrwt>0</asrwt>
<pdfrwt beam="1">  1        2 0.22088728E+00 0.73023217E+03</pdfrwt>
<pdfrwt beam="2">  1       -2 0.12316722E-01 0.73023217E+03</pdfrwt>
<totfact> 0.68102036E+02</totfact>
</mgrwt>
</event>
<event>
 4    1  0.3541639E-005  0.4564409E+03  0.7818608E-02  0.1025819E+00
         -2   -1    0    0    0  501 -0.00000000000E+00  0.00000000000E+00  0.26232703356E+02  0.26232703480E+02  0.25500000000E-02 0. -1.
          2   -1    0    0  501    0  0.00000000000E+00 -0.00000000000E+00 -0.19854821007E+04  0.19854821007E+04  0.25500000000E-02 0.  1.
    5000001    1    1    2    0    0  0.13432629904E+03  0.17137358015E+02 -0.13355697309E+04  0.13525194083E+04  0.16500000000E+03 0.  0.
   -5000001    1    1    2    0    0 -0.13432629904E+03 -0.17137358015E+02 -0.62367966643E+03  0.65919539589E+03  0.16500000000E+03 0.  0.
<mgrwt>
<rscale>  0 0.45644085E+03</rscale>
<asrwt>0</asrwt>
<pdfrwt beam="1">  1        2 0.28364021E+00 0.45644085E+03</pdfrwt>
<pdfrwt beam="2">  1       -2 0.37475303E-02 0.45644085E+03</pdfrwt>
<totfact> 0.27065807E+03</totfact>
</mgrwt>
</event>
<event>
 4    1  0.3541639E-005  0.4222252E+03  0.7818608E-02  0.1036345E+00
          2   -1    0    0  501    0  0.00000000000E+00  0.00000000000E+00  0.13514898375E+04  0.13514898375E+04  0.25500000000E-02 0.  1.
         -2   -1    0    0    0  501 -0.00000000000E+00 -0.00000000000E+00 -0.32977333106E+02  0.32977333205E+02  0.25500000000E-02 0. -1.
    5000001    1    1    2    0    0  0.10559061978E+03 -0.66970282128E+02  0.79481465158E+03  0.82133411475E+03  0.16500000000E+03 0.  0.
   -5000001    1    1    2    0    0 -0.10559061978E+03  0.66970282128E+02  0.52369785277E+03  0.56313305592E+03  0.16500000000E+03 0.  0.
<mgrwt>
<rscale>  0 0.42222520E+03</rscale>
<asrwt>0</asrwt>
<pdfrwt beam="1">  1        2 0.19306996E+00 0.42222520E+03</pdfrwt>
<pdfrwt beam="2">  1       -2 0.47110480E-02 0.42222520E+03</pdfrwt>
<totfact> 0.40027327E+03</totfact>
</mgrwt>
</event>
<event>
 4    1  0.3541639E-005  0.6441017E+03  0.7818608E-02  0.9817910E-01
          2   -1    0    0  501    0  0.00000000000E+00  0.00000000000E+00  0.22417447910E+03  0.22417447911E+03  0.25500000000E-02 0.  1.
         -2   -1    0    0    0  501 -0.00000000000E+00 -0.00000000000E+00 -0.46266080200E+03  0.46266080201E+03  0.25500000000E-02 0. -1.
    5000001    1    1    2    0    0 -0.12448184685E+03  0.14243145432E+03 -0.33439494595E+03  0.41812370090E+03  0.16500000000E+03 0.  0.
   -5000001    1    1    2    0    0  0.12448184685E+03 -0.14243145432E+03  0.95908623043E+02  0.26871158023E+03  0.16500000000E+03 0.  0.
<mgrwt>
<rscale>  0 0.64410168E+03</rscale>
<asrwt>0</asrwt>
<pdfrwt beam="1">  1        2 0.32024926E-01 0.64410168E+03</pdfrwt>
<pdfrwt beam="2">  1       -2 0.66094400E-01 0.64410168E+03</pdfrwt>
<totfact> 0.35138641E+02</totfact>
</mgrwt>
</event>
<event>
 4    1  0.3541639E-005  0.5222956E+03  0.7818608E-02  0.1008118E+00
         -2   -1    0    0    0  501 -0.00000000000E+00  0.00000000000E+00  0.25302188765E+03  0.25302188767E+03  0.25500000000E-02 0.  1.
          2   -1    0    0  501    0  0.00000000000E+00 -0.00000000000E+00 -0.26953467742E+03  0.26953467743E+03  0.25500000000E-02 0. -1.
    5000001    1    1    2    0    0 -0.16865503149E+03 -0.94432868864E+02  0.51865947041E+02  0.25937841628E+03  0.16500000000E+03 0.  0.
   -5000001    1    1    2    0    0  0.16865503149E+03  0.94432868864E+02 -0.68378736810E+02  0.26317814882E+03  0.16500000000E+03 0.  0.
<mgrwt>
<rscale>  0 0.52229560E+03</rscale>
<asrwt>0</asrwt>
<pdfrwt beam="1">  1        2 0.38504954E-01 0.52229560E+03</pdfrwt>
<pdfrwt beam="2">  1       -2 0.36145984E-01 0.52229560E+03</pdfrwt>
<totfact> 0.96969332E+02</totfact>
</mgrwt>
</event>
<event>
 4    1  0.3541639E-005  0.4083872E+03  0.7818608E-02  0.1040914E+00
          2   -1    0    0  501    0  0.00000000000E+00  0.00000000000E+00  0.86236636760E+03  0.86236636760E+03  0.25500000000E-02 0.  1.
         -2   -1    0    0    0  501 -0.00000000000E+00 -0.00000000000E+00 -0.48349553358E+02  0.48349553425E+02  0.25500000000E-02 0. -1.
    5000001    1    1    2    0    0 -0.92151726883E+02  0.31644872772E+02  0.56432737517E+03  0.59597292313E+03  0.16500000000E+03 0.  0.
   -5000001    1    1    2    0    0  0.92151726883E+02 -0.31644872772E+02  0.24968943907E+03  0.31474299789E+03  0.16500000000E+03 0.  0.
<mgrwt>
<rscale>  0 0.40838721E+03</rscale>
<asrwt>0</asrwt>
<pdfrwt beam="1">  1        2 0.12319519E+00 0.40838721E+03</pdfrwt>
<pdfrwt beam="2">  1       -2 0.69070794E-02 0.40838721E+03</pdfrwt>
<totfact> 0.42436638E+03</totfact>
</mgrwt>
</event>
<event>
 4    1  0.3541639E-005  0.5689052E+03  0.7818608E-02  0.9972104E-01
         -2   -1    0    0    0  501 -0.00000000000E+00  0.00000000000E+00  0.82134751411E+03  0.82134751411E+03  0.25500000000E-02 0. -1.
          2   -1    0    0  501    0  0.00000000000E+00 -0.00000000000E+00 -0.98512845764E+02  0.98512845797E+02  0.25500000000E-02 0.  1.
    5000001    1    1    2    0    0 -0.20240325153E+03  0.10267199116E+03  0.28592948072E+03  0.40061113557E+03  0.16500000000E+03 0.  0.
   -5000001    1    1    2    0    0  0.20240325153E+03 -0.10267199116E+03  0.43690518762E+03  0.51924922433E+03  0.16500000000E+03 0.  0.
<mgrwt>
<rscale>  0 0.56890520E+03</rscale>
<asrwt>0</asrwt>
<pdfrwt beam="1">  1        2 0.14073264E-01 0.56890520E+03</pdfrwt>
<pdfrwt beam="2">  1       -2 0.11733535E+00 0.56890520E+03</pdfrwt>
<totfact> 0.24651072E+02</totfact>
</mgrwt>
</event>
<event>
 4    1  0.3541639E-005  0.5466770E+03  0.7818608E-02  0.1002266E+00
          2   -1    0    0  501    0  0.00000000000E+00  0.00000000000E+00  0.55849695911E+03  0.55849695912E+03  0.25500000000E-02 0.  1.
         -2   -1    0    0    0  501 -0.00000000000E+00 -0.00000000000E+00 -0.13377680077E+03  0.13377680079E+03  0.25500000000E-02 0. -1.
    5000001    1    1    2    0    0 -0.12928572013E+03 -0.12675844082E+03  0.58792055852E+02  0.25192063349E+03  0.16500000000E+03 0.  0.
   -5000001    1    1    2    0    0  0.12928572013E+03  0.12675844082E+03  0.36592810249E+03  0.44035312642E+03  0.16500000000E+03 0.  0.
<mgrwt>
<rscale>  0 0.54667700E+03</rscale>
<asrwt>0</asrwt>
<pdfrwt beam="1">  1        2 0.79785280E-01 0.54667700E+03</pdfrwt>
<pdfrwt beam="2">  1       -2 0.19110972E-01 0.54667700E+03</pdfrwt>
<totfact> 0.13637682E+03</totfact>
</mgrwt>
</event>
<event>
 4    1  0.3541639E-005  0.6002499E+03  0.7818608E-02  0.9904888E-01
         -2   -1    0    0    0  501 -0.00000000000E+00  0.00000000000E+00  0.32200701288E+02  0.32200701389E+02  0.25500000000E-02 0. -1.
          2   -1    0    0  501    0  0.00000000000E+00 -0.00000000000E+00 -0.27972991924E+04  0.27972991924E+04  0.25500000000E-02 0.  1.
    5000001    1    1    2    0    0 -0.12401991073E+03 -0.15926301455E+03 -0.68171319566E+03  0.72986541718E+03  0.16500000000E+03 0.  0.
   -5000001    1    1    2    0    0  0.12401991073E+03  0.15926301455E+03 -0.20833852954E+04  0.20996344766E+04  0.16500000000E+03 0.  0.
<mgrwt>
<rscale>  0 0.60024993E+03</rscale>
<asrwt>0</asrwt>
<pdfrwt beam="1">  1        2 0.39961402E+00 0.60024993E+03</pdfrwt>
<pdfrwt beam="2">  1       -2 0.46001020E-02 0.60024993E+03</pdfrwt>
<totfact> 0.75653993E+02</totfact>
</mgrwt>
</event>
<event>
 4    1  0.3541639E-005  0.3463617E+03  0.7818608E-02  0.1064118E+00
         -2   -1    0    0    0  501 -0.00000000000E+00  0.00000000000E+00  0.14964080769E+02  0.14964080986E+02  0.25500000000E-02 0. -1.
          2   -1    0    0  501    0  0.00000000000E+00 -0.00000000000E+00 -0.20042393406E+04  0.20042393406E+04  0.25500000000E-02 0.  1.
    5000001    1    1    2    0    0 -0.35371431980E+01 -0.42130102503E+02 -0.81221729330E+03  0.82988516582E+03  0.16500000000E+03 0.  0.
   -5000001    1    1    2    0    0  0.35371431980E+01  0.42130102503E+02 -0.11770579665E+04  0.11893182557E+04  0.16500000000E+03 0.  0.
<mgrwt>
<rscale>  0 0.34636166E+03</rscale>
<asrwt>0</asrwt>
<pdfrwt beam="1">  1        2 0.28631974E+00 0.34636166E+03</pdfrwt>
<pdfrwt beam="2">  1       -2 0.21377271E-02 0.34636166E+03</pdfrwt>
<totfact> 0.61678973E+03</totfact>
</mgrwt>
</event>
<event>
 4    1  0.3541639E-005  0.6279934E+03  0.7818608E-02  0.9848972E-01
          2   -1    0    0  501    0  0.00000000000E+00  0.00000000000E+00  0.74848966786E+03  0.74848966787E+03  0.25500000000E-02 0.  1.
         -2   -1    0    0    0  501 -0.00000000000E+00 -0.00000000000E+00 -0.13172383870E+03  0.13172383872E+03  0.25500000000E-02 0. -1.
    5000001    1    1    2    0    0  0.95388142841E+02  0.21129250476E+03  0.12230115310E+03  0.30971921544E+03  0.16500000000E+03 0.  0.
   -5000001    1    1    2    0    0 -0.95388142841E+02 -0.21129250476E+03  0.49446467607E+03  0.57049429115E+03  0.16500000000E+03 0.  0.
<mgrwt>
<rscale>  0 0.62799341E+03</rscale>
<asrwt>0</asrwt>
<pdfrwt beam="1">  1        2 0.10692710E+00 0.62799341E+03</pdfrwt>
<pdfrwt beam="2">  1       -2 0.18817691E-01 0.62799341E+03</pdfrwt>
<totfact> 0.98511583E+02</totfact>
</mgrwt>
</event>
<event>
 4    1  0.3541639E-005  0.6983970E+03  0.7818608E-02  0.9719977E-01
          2   -1    0    0  501    0  0.00000000000E+00  0.00000000000E+00  0.23310431164E+04  0.23310431164E+04  0.25500000000E-02 0.  1.
         -2   -1    0    0    0  501 -0.00000000000E+00 -0.00000000000E+00 -0.52311172952E+02  0.52311173014E+02  0.25500000000E-02 0. -1.
    5000001    1    1    2    0    0 -0.24116709435E+03  0.18368435526E+03  0.95836619645E+03  0.10186227350E+04  0.16500000000E+03 0.  0.
   -5000001    1    1    2    0    0  0.24116709435E+03 -0.18368435526E+03  0.13203657470E+04  0.13647315544E+04  0.16500000000E+03 0.  0.
<mgrwt>
<rscale>  0 0.69839702E+03</rscale>
<asrwt>0</asrwt>
<pdfrwt beam="1">  1        2 0.33300617E+00 0.69839702E+03</pdfrwt>
<pdfrwt beam="2">  1       -2 0.74730245E-02 0.69839702E+03</pdfrwt>
<totfact> 0.61199133E+02</totfact>
</mgrwt>
</event>
<event>
 4    1  0.3541639E-005  0.4055243E+03  0.7818608E-02  0.1041883E+00
         -2   -1    0    0    0  501 -0.00000000000E+00  0.00000000000E+00  0.12919647599E+02  0.12919647851E+02  0.25500000000E-02 0. -1.
          2   -1    0    0  501    0  0.00000000000E+00 -0.00000000000E+00 -0.31821686641E+04  0.31821686641E+04  0.25500000000E-02 0.  1.
    5000001    1    1    2    0    0  0.11188118119E+03  0.31513004448E+02 -0.14316377345E+04  0.14457946158E+04  0.16500000000E+03 0.  0.
   -5000001    1    1    2    0    0 -0.11188118119E+03 -0.31513004448E+02 -0.17376112819E+04  0.17492936961E+04  0.16500000000E+03 0.  0.
<mgrwt>
<rscale>  0 0.40552434E+03</rscale>
<asrwt>0</asrwt>
<pdfrwt beam="1">  1        2 0.45459502E+00 0.40552434E+03</pdfrwt>
<pdfrwt beam="2">  1       -2 0.18456660E-02 0.40552434E+03</pdfrwt>
<totfact> 0.18993635E+03</totfact>
</mgrwt>
</event>
<event>
 4    1  0.3541639E-005  0.4732811E+03  0.7818608E-02  0.1020998E+00
         -2   -1    0    0    0  501 -0.00000000000E+00  0.00000000000E+00  0.37412065494E+02  0.37412065581E+02  0.25500000000E-02 0. -1.
          2   -1    0    0  501    0  0.00000000000E+00 -0.00000000000E+00 -0.14968100407E+04  0.14968100407E+04  0.25500000000E-02 0.  1.
    5000001    1    1    2    0    0 -0.94430125111E+02  0.13472217867E+03 -0.59578060666E+03  0.63972388202E+03  0.16500000000E+03 0.  0.
   -5000001    1    1    2    0    0  0.94430125111E+02 -0.13472217867E+03 -0.86361736851E+03  0.89449822423E+03  0.16500000000E+03 0.  0.
<mgrwt>
<rscale>  0 0.47328112E+03</rscale>
<asrwt>0</asrwt>
<pdfrwt beam="1">  1        2 0.21382997E+00 0.47328112E+03</pdfrwt>
<pdfrwt beam="2">  1       -2 0.53445817E-02 0.47328112E+03</pdfrwt>
<totfact> 0.27662158E+03</totfact>
</mgrwt>
</event>
<event>
 4    1  0.3541639E-005  0.4407949E+03  0.7818608E-02  0.1030503E+00
         -2   -1    0    0    0  501 -0.00000000000E+00  0.00000000000E+00  0.14365132798E+03  0.14365132800E+03  0.25500000000E-02 0. -1.
          2   -1    0    0  501    0  0.00000000000E+00 -0.00000000000E+00 -0.33814547057E+03  0.33814547058E+03  0.25500000000E-02 0.  1.
    5000001    1    1    2    0    0 -0.59711703889E+02  0.12998193086E+03 -0.12984129937E+03  0.25405620038E+03  0.16500000000E+03 0.  0.
   -5000001    1    1    2    0    0  0.59711703889E+02 -0.12998193086E+03 -0.64652843229E+02  0.22774059820E+03  0.16500000000E+03 0.  0.
<mgrwt>
<rscale>  0 0.44079495E+03</rscale>
<asrwt>0</asrwt>
<pdfrwt beam="1">  1        2 0.48306495E-01 0.44079495E+03</pdfrwt>
<pdfrwt beam="2">  1       -2 0.20521618E-01 0.44079495E+03</pdfrwt>
<totfact> 0.21084908E+03</totfact>
</mgrwt>
</event>
<event>
 4    1  0.3541639E-005  0.3892284E+03  0.7818608E-02  0.1047575E+00
          2   -1    0    0  501    0  0.00000000000E+00  0.00000000000E+00  0.52953892558E+03  0.52953892559E+03  0.25500000000E-02 0.  1.
         -2   -1    0    0    0  501 -0.00000000000E+00 -0.00000000000E+00 -0.71523897779E+02  0.71523897825E+02  0.25500000000E-02 0. -1.
    5000001    1    1    2    0    0  0.65999894152E+02 -0.70982433827E+02  0.17429695859E+03  0.25884149921E+03  0.16500000000E+03 0.  0.
   -5000001    1    1    2    0    0 -0.65999894152E+02  0.70982433827E+02  0.28371806922E+03  0.34222132420E+03  0.16500000000E+03 0.  0.
<mgrwt>
<rscale>  0 0.38922841E+03</rscale>
<asrwt>0</asrwt>
<pdfrwt beam="1">  1        2 0.75648416E-01 0.38922841E+03</pdfrwt>
<pdfrwt beam="2">  1       -2 0.10217700E-01 0.38922841E+03</pdfrwt>
<totfact> 0.40935651E+03</totfact>
</mgrwt>
</event>
<event>
 4    1  0.3541639E-005  0.4231496E+03  0.7818608E-02  0.1036046E+00
          2   -1    0    0  501    0  0.00000000000E+00  0.00000000000E+00  0.96999778579E+03  0.96999778579E+03  0.25500000000E-02 0.  1.
         -2   -1    0    0    0  501 -0.00000000000E+00 -0.00000000000E+00 -0.46148452030E+02  0.46148452101E+02  0.25500000000E-02 0. -1.
    5000001    1    1    2    0    0 -0.31932384458E+02 -0.10165509100E+03  0.27306103560E+03  0.33636403474E+03  0.16500000000E+03 0.  0.
   -5000001    1    1    2    0    0  0.31932384458E+02  0.10165509100E+03  0.65078829815E+03  0.67978220315E+03  0.16500000000E+03 0.  0.
<mgrwt>
<rscale>  0 0.42314960E+03</rscale>
<asrwt>0</asrwt>
<pdfrwt beam="1">  1        2 0.13857112E+00 0.42314960E+03</pdfrwt>
<pdfrwt beam="2">  1       -2 0.65926358E-02 0.42314960E+03</pdfrwt>
<totfact> 0.39054142E+03</totfact>
</mgrwt>
</event>
<event>
 4    1  0.3541639E-005  0.8172597E+03  0.7818608E-02  0.9535365E-01
          2   -1    0    0  501    0  0.00000000000E+00  0.00000000000E+00  0.28677066993E+04  0.28677066993E+04  0.25500000000E-02 0.  1.
         -2   -1    0    0    0  501 -0.00000000000E+00 -0.00000000000E+00 -0.58227145278E+02  0.58227145334E+02  0.25500000000E-02 0. -1.
    5000001    1    1    2    0    0 -0.21507348120E-01  0.36983425547E+03  0.16000480714E+04  0.16505018048E+04  0.16500000000E+03 0.  0.
   -5000001    1    1    2    0    0  0.21507348120E-01 -0.36983425547E+03  0.12094314826E+04  0.12754320398E+04  0.16500000000E+03 0.  0.
<mgrwt>
<rscale>  0 0.81725975E+03</rscale>
<asrwt>0</asrwt>
<pdfrwt beam="1">  1        2 0.40967246E+00 0.81725975E+03</pdfrwt>
<pdfrwt beam="2">  1       -2 0.83181620E-02 0.81725975E+03</pdfrwt>
<totfact> 0.26774056E+02</totfact>
</mgrwt>
</event>
<event>
 4    1  0.3541639E-005  0.4805205E+03  0.7818608E-02  0.1018992E+00
          2   -1    0    0  501    0  0.00000000000E+00  0.00000000000E+00  0.77650445526E+03  0.77650445526E+03  0.25500000000E-02 0.  1.
         -2   -1    0    0    0  501 -0.00000000000E+00 -0.00000000000E+00 -0.74339557150E+02  0.74339557194E+02  0.25500000000E-02 0. -1.
    5000001    1    1    2    0    0  0.15347131774E+03  0.77756733881E+02  0.40421564490E+03  0.46927054310E+03  0.16500000000E+03 0.  0.
   -5000001    1    1    2    0    0 -0.15347131774E+03 -0.77756733881E+02  0.29794925321E+03  0.38157346936E+03  0.16500000000E+03 0.  0.
<mgrwt>
<rscale>  0 0.48052054E+03</rscale>
<asrwt>0</asrwt>
<pdfrwt beam="1">  1        2 0.11092919E+00 0.48052054E+03</pdfrwt>
<pdfrwt beam="2">  1       -2 0.10619938E-01 0.48052054E+03</pdfrwt>
<totfact> 0.24500739E+03</totfact>
</mgrwt>
</event>
<event>
 4    1  0.3541639E-005  0.7086554E+03  0.7818608E-02  0.9702544E-01
          2   -1    0    0  501    0  0.00000000000E+00  0.00000000000E+00  0.19947187965E+03  0.19947187967E+03  0.25500000000E-02 0.  1.
         -2   -1    0    0    0  501 -0.00000000000E+00 -0.00000000000E+00 -0.62940265858E+03  0.62940265858E+03  0.25500000000E-02 0. -1.
    5000001    1    1    2    0    0  0.73524071719E+02  0.19942359057E+03 -0.48461226878E+03  0.55430100906E+03  0.16500000000E+03 0.  0.
   -5000001    1    1    2    0    0 -0.73524071719E+02 -0.19942359057E+03  0.54681489858E+02  0.27457352919E+03  0.16500000000E+03 0.  0.
<mgrwt>
<rscale>  0 0.70865543E+03</rscale>
<asrwt>0</asrwt>
<pdfrwt beam="1">  1        2 0.28495983E-01 0.70865543E+03</pdfrwt>
<pdfrwt beam="2">  1       -2 0.89914664E-01 0.70865543E+03</pdfrwt>
<totfact> 0.20174260E+02</totfact>
</mgrwt>
</event>
<event>
 4    1  0.3541639E-005  0.9258833E+03  0.7818608E-02  0.9393792E-01
          2   -1    0    0  501    0  0.00000000000E+00  0.00000000000E+00  0.99701612342E+03  0.99701612343E+03  0.25500000000E-02 0.  1.
         -2   -1    0    0    0  501 -0.00000000000E+00 -0.00000000000E+00 -0.21495638720E+03  0.21495638722E+03  0.25500000000E-02 0. -1.
    5000001    1    1    2    0    0 -0.74167814864E+02  0.40962503450E+03  0.23727807648E+03  0.50677353841E+03  0.16500000000E+03 0.  0.
   -5000001    1    1    2    0    0  0.74167814864E+02 -0.40962503450E+03  0.54478165974E+03  0.70519897223E+03  0.16500000000E+03 0.  0.
<mgrwt>
<rscale>  0 0.92588333E+03</rscale>
<asrwt>0</asrwt>
<pdfrwt beam="1">  1        2 0.14243087E+00 0.92588333E+03</pdfrwt>
<pdfrwt beam="2">  1       -2 0.30708055E-01 0.92588333E+03</pdfrwt>
<totfact> 0.27650258E+02</totfact>
</mgrwt>
</event>
<event>
 4    1  0.3541639E-005  0.5122973E+03  0.7818608E-02  0.1010618E+00
         -2   -1    0    0    0  501 -0.00000000000E+00  0.00000000000E+00  0.11308684142E+03  0.11308684145E+03  0.25500000000E-02 0. -1.
          2   -1    0    0  501    0  0.00000000000E+00 -0.00000000000E+00 -0.58019253930E+03  0.58019253930E+03  0.25500000000E-02 0.  1.
    5000001    1    1    2    0    0 -0.99263675461E+02  0.16630250853E+03 -0.19346893061E+03  0.31963264652E+03  0.16500000000E+03 0.  0.
   -5000001    1    1    2    0    0  0.99263675461E+02 -0.16630250853E+03 -0.27363676726E+03  0.37364673424E+03  0.16500000000E+03 0.  0.
<mgrwt>
<rscale>  0 0.51229734E+03</rscale>
<asrwt>0</asrwt>
<pdfrwt beam="1">  1        2 0.82884647E-01 0.51229734E+03</pdfrwt>
<pdfrwt beam="2">  1       -2 0.16155263E-01 0.51229734E+03</pdfrwt>
<totfact> 0.17388435E+03</totfact>
</mgrwt>
</event>
<event>
 4    1  0.3541639E-005  0.5522624E+03  0.7818608E-02  0.1000972E+00
          2   -1    0    0  501    0  0.00000000000E+00  0.00000000000E+00  0.19372015406E+04  0.19372015406E+04  0.25500000000E-02 0.  1.
         -2   -1    0    0    0  501 -0.00000000000E+00 -0.00000000000E+00 -0.39360096926E+02  0.39360097008E+02  0.25500000000E-02 0. -1.
    5000001    1    1    2    0    0  0.42303450903E+02  0.17675928989E+03  0.49634705786E+03  0.55373173141E+03  0.16500000000E+03 0.  0.
   -5000001    1    1    2    0    0 -0.42303450903E+02 -0.17675928989E+03  0.14014943858E+04  0.14228299062E+04  0.16500000000E+03 0.  0.
<mgrwt>
<rscale>  0 0.55226240E+03</rscale>
<asrwt>0</asrwt>
<pdfrwt beam="1">  1        2 0.27674303E+00 0.55226240E+03</pdfrwt>
<pdfrwt beam="2">  1       -2 0.56228720E-02 0.55226240E+03</pdfrwt>
<totfact> 0.15261984E+03</totfact>
</mgrwt>
</event>
<event>
 4    1  0.3541639E-005  0.4429884E+03  0.7818608E-02  0.1029834E+00
         -2   -1    0    0    0  501 -0.00000000000E+00  0.00000000000E+00  0.30437685159E+02  0.30437685266E+02  0.25500000000E-02 0. -1.
          2   -1    0    0  501    0  0.00000000000E+00 -0.00000000000E+00 -0.16118070429E+04  0.16118070429E+04  0.25500000000E-02 0.  1.
    5000001    1    1    2    0    0  0.24045051517E+02  0.11834487605E+03 -0.47500652048E+03  0.51714588724E+03  0.16500000000E+03 0.  0.
   -5000001    1    1    2    0    0 -0.24045051517E+02 -0.11834487605E+03 -0.11063628373E+04  0.11250988409E+04  0.16500000000E+03 0.  0.
<mgrwt>
<rscale>  0 0.44298838E+03</rscale>
<asrwt>0</asrwt>
<pdfrwt beam="1">  1        2 0.23025809E+00 0.44298838E+03</pdfrwt>
<pdfrwt beam="2">  1       -2 0.43482418E-02 0.44298838E+03</pdfrwt>
<totfact> 0.33194624E+03</totfact>
</mgrwt>
</event>
<event>
 4    1  0.3541639E-005  0.4107160E+03  0.7818608E-02  0.1040131E+00
          2   -1    0    0  501    0  0.00000000000E+00  0.00000000000E+00  0.24450965143E+04  0.24450965143E+04  0.25500000000E-02 0.  1.
         -2   -1    0    0    0  501 -0.00000000000E+00 -0.00000000000E+00 -0.17247546247E+02  0.17247546435E+02  0.25500000000E-02 0. -1.
    5000001    1    1    2    0    0  0.29447203221E+02 -0.11787819178E+03  0.12953605003E+04  0.13114672057E+04  0.16500000000E+03 0.  0.
   -5000001    1    1    2    0    0 -0.29447203221E+02  0.11787819178E+03  0.11324884678E+04  0.11508768550E+04  0.16500000000E+03 0.  0.
<mgrwt>
<rscale>  0 0.41071604E+03</rscale>
<asrwt>0</asrwt>
<pdfrwt beam="1">  1        2 0.34929942E+00 0.41071604E+03</pdfrwt>
<pdfrwt beam="2">  1       -2 0.24639358E-02 0.41071604E+03</pdfrwt>
<totfact> 0.30102658E+03</totfact>
</mgrwt>
</event>
<event>
 4    1  0.3541639E-005  0.7937995E+03  0.7818608E-02  0.9569036E-01
          2   -1    0    0  501    0  0.00000000000E+00  0.00000000000E+00  0.14210644359E+04  0.14210644359E+04  0.25500000000E-02 0.  1.
         -2   -1    0    0    0  501 -0.00000000000E+00 -0.00000000000E+00 -0.11085310267E+03  0.11085310270E+03  0.25500000000E-02 0. -1.
    5000001    1    1    2    0    0  0.11907716445E+03  0.82915896907E+02  0.17231119068E+02  0.22040038230E+03  0.16500000000E+03 0.  0.
   -5000001    1    1    2    0    0 -0.11907716445E+03 -0.82915896907E+02  0.12929802141E+04  0.13115171563E+04  0.16500000000E+03 0.  0.
<mgrwt>
<rscale>  0 0.79379948E+03</rscale>
<asrwt>0</asrwt>
<pdfrwt beam="1">  1        2 0.20300919E+00 0.79379948E+03</pdfrwt>
<pdfrwt beam="2">  1       -2 0.15836159E-01 0.79379948E+03</pdfrwt>
<totfact> 0.51824289E+02</totfact>
</mgrwt>
</event>
<event>
 4    1  0.3541639E-005  0.4489687E+03  0.7818608E-02  0.1028030E+00
         -2   -1    0    0    0  501 -0.00000000000E+00  0.00000000000E+00  0.17408341470E+03  0.17408341472E+03  0.25500000000E-02 0. -1.
          2   -1    0    0  501    0  0.00000000000E+00 -0.00000000000E+00 -0.28947749034E+03  0.28947749036E+03  0.25500000000E-02 0.  1.
    5000001    1    1    2    0    0  0.90605518673E+02  0.12101697844E+03 -0.75986045106E+02  0.23633312958E+03  0.16500000000E+03 0.  0.
   -5000001    1    1    2    0    0 -0.90605518673E+02 -0.12101697844E+03 -0.39408030538E+02  0.22722777550E+03  0.16500000000E+03 0.  0.
<mgrwt>
<rscale>  0 0.44896873E+03</rscale>
<asrwt>0</asrwt>
<pdfrwt beam="1">  1        2 0.41353927E-01 0.44896873E+03</pdfrwt>
<pdfrwt beam="2">  1       -2 0.24869059E-01 0.44896873E+03</pdfrwt>
<totfact> 0.17827518E+03</totfact>
</mgrwt>
</event>
<event>
 4    1  0.3541639E-005  0.6926170E+03  0.7818608E-02  0.9729942E-01
          2   -1    0    0  501    0  0.00000000000E+00  0.00000000000E+00  0.62835792649E+03  0.62835792649E+03  0.25500000000E-02 0.  1.
         -2   -1    0    0    0  501 -0.00000000000E+00 -0.00000000000E+00 -0.19086185762E+03  0.19086185764E+03  0.25500000000E-02 0. -1.
    5000001    1    1    2    0    0  0.79367576425E+02 -0.28017968277E+03  0.32390785905E+03  0.46576943650E+03  0.16500000000E+03 0.  0.
   -5000001    1    1    2    0    0 -0.79367576425E+02  0.28017968277E+03  0.11358820982E+03  0.35345034763E+03  0.16500000000E+03 0.  0.
<mgrwt>
<rscale>  0 0.69261695E+03</rscale>
<asrwt>0</asrwt>
<pdfrwt beam="1">  1        2 0.89765420E-01 0.69261695E+03</pdfrwt>
<pdfrwt beam="2">  1       -2 0.27265979E-01 0.69261695E+03</pdfrwt>
<totfact> 0.63067415E+02</totfact>
</mgrwt>
</event>
<event>
 4    1  0.3541639E-005  0.4958926E+03  0.7818608E-02  0.1014857E+00
          2   -1    0    0  501    0  0.00000000000E+00  0.00000000000E+00  0.27742228433E+04  0.27742228433E+04  0.25500000000E-02 0. -1.
         -2   -1    0    0    0  501 -0.00000000000E+00 -0.00000000000E+00 -0.22160216621E+02  0.22160216767E+02  0.25500000000E-02 0.  1.
    5000001    1    1    2    0    0 -0.15822596417E+03 -0.64001615996E+02  0.97250266566E+03  0.10010584885E+04  0.16500000000E+03 0.  0.
   -5000001    1    1    2    0    0  0.15822596417E+03  0.64001615996E+02  0.17795599610E+04  0.17953245716E+04  0.16500000000E+03 0.  0.
<mgrwt>
<rscale>  0 0.49589265E+03</rscale>
<asrwt>0</asrwt>
<pdfrwt beam="1">  1        2 0.39631787E+00 0.49589265E+03</pdfrwt>
<pdfrwt beam="2">  1       -2 0.31657427E-02 0.49589265E+03</pdfrwt>
<totfact> 0.13903609E+03</totfact>
</mgrwt>
</event>
<event>
 4    1  0.3541639E-005  0.6341104E+03  0.7818608E-02  0.9837060E-01
          2   -1    0    0  501    0  0.00000000000E+00  0.00000000000E+00  0.30392378131E+04  0.30392378131E+04  0.25500000000E-02 0.  1.
         -2   -1    0    0    0  501 -0.00000000000E+00 -0.00000000000E+00 -0.33075398332E+02  0.33075398430E+02  0.25500000000E-02 0. -1.
    5000001    1    1    2    0    0  0.19604680412E+03  0.17898485397E+03  0.17607861627E+04  0.17883128468E+04  0.16500000000E+03 0.  0.
   -5000001    1    1    2    0    0 -0.19604680412E+03 -0.17898485397E+03  0.12453762520E+04  0.12840003647E+04  0.16500000000E+03 0.  0.
<mgrwt>
<rscale>  0 0.63411041E+03</rscale>
<asrwt>0</asrwt>
<pdfrwt beam="1">  1        2 0.43417668E+00 0.63411041E+03</pdfrwt>
<pdfrwt beam="2">  1       -2 0.47250586E-02 0.63411041E+03</pdfrwt>
<totfact> 0.53608202E+02</totfact>
</mgrwt>
</event>
<event>
 4    1  0.3541639E-005  0.3475639E+03  0.7818608E-02  0.1063619E+00
         -2   -1    0    0    0  501 -0.00000000000E+00  0.00000000000E+00  0.27795161027E+02  0.27795161143E+02  0.25500000000E-02 0. -1.
          2   -1    0    0  501    0  0.00000000000E+00 -0.00000000000E+00 -0.10865257543E+04  0.10865257543E+04  0.25500000000E-02 0.  1.
    5000001    1    1    2    0    0 -0.34193841818E+02  0.34271682186E+02 -0.44880427042E+03  0.48061839350E+03  0.16500000000E+03 0.  0.
   -5000001    1    1    2    0    0  0.34193841818E+02 -0.34271682186E+02 -0.60992632284E+03  0.63370252194E+03  0.16500000000E+03 0.  0.
<mgrwt>
<rscale>  0 0.34756386E+03</rscale>
<asrwt>0</asrwt>
<pdfrwt beam="1">  1        2 0.15521794E+00 0.34756386E+03</pdfrwt>
<pdfrwt beam="2">  1       -2 0.39707380E-02 0.34756386E+03</pdfrwt>
<totfact> 0.72412445E+03</totfact>
</mgrwt>
</event>
<event>
 4    1  0.3541639E-005  0.6409789E+03  0.7818608E-02  0.9823855E-01
          2   -1    0    0  501    0  0.00000000000E+00  0.00000000000E+00  0.44454546573E+03  0.44454546574E+03  0.25500000000E-02 0.  1.
         -2   -1    0    0    0  501 -0.00000000000E+00 -0.00000000000E+00 -0.23105281321E+03  0.23105281323E+03  0.25500000000E-02 0. -1.
    5000001    1    1    2    0    0 -0.48167497006E+02 -0.26498259320E+03  0.16401893647E+03  0.35589758919E+03  0.16500000000E+03 0.  0.
   -5000001    1    1    2    0    0  0.48167497006E+02  0.26498259320E+03  0.49473716049E+02  0.31970068978E+03  0.16500000000E+03 0.  0.
<mgrwt>
<rscale>  0 0.64097888E+03</rscale>
<asrwt>0</asrwt>
<pdfrwt beam="1">  1        2 0.63506496E-01 0.64097888E+03</pdfrwt>
<pdfrwt beam="2">  1       -2 0.33007544E-01 0.64097888E+03</pdfrwt>
<totfact> 0.66089314E+02</totfact>
</mgrwt>
</event>
<event>
 4    1  0.3541639E-005  0.4076921E+03  0.7818608E-02  0.1041148E+00
          2   -1    0    0  501    0  0.00000000000E+00  0.00000000000E+00  0.52656467439E+03  0.52656467439E+03  0.25500000000E-02 0.  1.
         -2   -1    0    0    0  501 -0.00000000000E+00 -0.00000000000E+00 -0.78913793697E+02  0.78913793738E+02  0.25500000000E-02 0. -1.
    5000001    1    1    2    0    0 -0.60510767890E+02  0.10294908228E+03  0.23608564726E+03  0.31180362316E+03  0.16500000000E+03 0.  0.
   -5000001    1    1    2    0    0  0.60510767890E+02 -0.10294908228E+03  0.21156523343E+03  0.29367484497E+03  0.16500000000E+03 0.  0.
<mgrwt>
<rscale>  0 0.40769212E+03</rscale>
<asrwt>0</asrwt>
<pdfrwt beam="1">  1        2 0.75223527E-01 0.40769212E+03</pdfrwt>
<pdfrwt beam="2">  1       -2 0.11273399E-01 0.40769212E+03</pdfrwt>
<totfact> 0.35181277E+03</totfact>
</mgrwt>
</event>
<event>
 4    1  0.3541639E-005  0.5052657E+03  0.7818608E-02  0.1012414E+00
          2   -1    0    0  501    0  0.00000000000E+00  0.00000000000E+00  0.47198112632E+03  0.47198112632E+03  0.25500000000E-02 0.  1.
         -2   -1    0    0    0  501 -0.00000000000E+00 -0.00000000000E+00 -0.13522439052E+03  0.13522439055E+03  0.25500000000E-02 0. -1.
    5000001    1    1    2    0    0 -0.11079273719E+02 -0.12581168449E+03  0.34105941515E+03  0.39937182540E+03  0.16500000000E+03 0.  0.
   -5000001    1    1    2    0    0  0.11079273719E+02  0.12581168449E+03 -0.43026793585E+01  0.20783369147E+03  0.16500000000E+03 0.  0.
<mgrwt>
<rscale>  0 0.50526571E+03</rscale>
<asrwt>0</asrwt>
<pdfrwt beam="1">  1        2 0.67425875E-01 0.50526571E+03</pdfrwt>
<pdfrwt beam="2">  1       -2 0.19317770E-01 0.50526571E+03</pdfrwt>
<totfact> 0.16212610E+03</totfact>
</mgrwt>
</event>
<event>
 4    1  0.3541639E-005  0.4459877E+03  0.7818608E-02  0.1028925E+00
         -2   -1    0    0    0  501 -0.00000000000E+00  0.00000000000E+00  0.20079636676E+02  0.20079636838E+02  0.25500000000E-02 0. -1.
          2   -1    0    0  501    0  0.00000000000E+00 -0.00000000000E+00 -0.24764524674E+04  0.24764524674E+04  0.25500000000E-02 0.  1.
    5000001    1    1    2    0    0 -0.52953585156E+02  0.12090579822E+03 -0.16271214104E+04  0.16407837695E+04  0.16500000000E+03 0.  0.
   -5000001    1    1    2    0    0  0.52953585156E+02 -0.12090579822E+03 -0.82925142041E+03  0.85574833478E+03  0.16500000000E+03 0.  0.
<mgrwt>
<rscale>  0 0.44598774E+03</rscale>
<asrwt>0</asrwt>
<pdfrwt beam="1">  1        2 0.35377873E+00 0.44598774E+03</pdfrwt>
<pdfrwt beam="2">  1       -2 0.28685211E-02 0.44598774E+03</pdfrwt>
<totfact> 0.23057020E+03</totfact>
</mgrwt>
</event>
<event>
 4    1  0.3541639E-005  0.5768673E+03  0.7818608E-02  0.9954596E-01
         -2   -1    0    0    0  501 -0.00000000000E+00  0.00000000000E+00  0.82151052088E+02  0.82151052128E+02  0.25500000000E-02 0. -1.
          2   -1    0    0  501    0  0.00000000000E+00 -0.00000000000E+00 -0.10126950631E+04  0.10126950631E+04  0.25500000000E-02 0.  1.
    5000001    1    1    2    0    0 -0.21260661426E+03 -0.28068804137E+02 -0.27567463002E+03  0.38627830877E+03  0.16500000000E+03 0.  0.
   -5000001    1    1    2    0    0  0.21260661426E+03  0.28068804137E+02 -0.65486938103E+03  0.70856780649E+03  0.16500000000E+03 0.  0.
<mgrwt>
<rscale>  0 0.57686728E+03</rscale>
<asrwt>0</asrwt>
<pdfrwt beam="1">  1        2 0.14467072E+00 0.57686728E+03</pdfrwt>
<pdfrwt beam="2">  1       -2 0.11735865E-01 0.57686728E+03</pdfrwt>
<totfact> 0.14630231E+03</totfact>
</mgrwt>
</event>
<event>
 4    1  0.3541639E-005  0.3820671E+03  0.7818608E-02  0.1050172E+00
         -2   -1    0    0    0  501 -0.00000000000E+00  0.00000000000E+00  0.43409874007E+03  0.43409874007E+03  0.25500000000E-02 0. -1.
          2   -1    0    0  501    0  0.00000000000E+00 -0.00000000000E+00 -0.84068028523E+02  0.84068028561E+02  0.25500000000E-02 0.  1.
    5000001    1    1    2    0    0  0.94266264512E+02  0.19556769701E+02  0.17436577474E+03  0.25864458098E+03  0.16500000000E+03 0.  0.
   -5000001    1    1    2    0    0 -0.94266264512E+02 -0.19556769701E+02  0.17566493680E+03  0.25952218766E+03  0.16500000000E+03 0.  0.
<mgrwt>
<rscale>  0 0.38206714E+03</rscale>
<asrwt>0</asrwt>
<pdfrwt beam="1">  1        2 0.12009718E-01 0.38206714E+03</pdfrwt>
<pdfrwt beam="2">  1       -2 0.62014107E-01 0.38206714E+03</pdfrwt>
<totfact> 0.12690259E+03</totfact>
</mgrwt>
</event>
<event>
 4    1  0.3541639E-005  0.4775560E+03  0.7818608E-02  0.1019809E+00
         -2   -1    0    0    0  501 -0.00000000000E+00  0.00000000000E+00  0.35923205565E+03  0.35923205566E+03  0.25500000000E-02 0. -1.
          2   -1    0    0  501    0  0.00000000000E+00 -0.00000000000E+00 -0.15871339716E+03  0.15871339718E+03  0.25500000000E-02 0.  1.
    5000001    1    1    2    0    0 -0.36826147839E+02 -0.15344725076E+03  0.24434284538E+02  0.22961763476E+03  0.16500000000E+03 0.  0.
   -5000001    1    1    2    0    0  0.36826147839E+02  0.15344725076E+03  0.17608437395E+03  0.28832781809E+03  0.16500000000E+03 0.  0.
<mgrwt>
<rscale>  0 0.47755603E+03</rscale>
<asrwt>0</asrwt>
<pdfrwt beam="1">  1        2 0.22673343E-01 0.47755603E+03</pdfrwt>
<pdfrwt beam="2">  1       -2 0.51318864E-01 0.47755603E+03</pdfrwt>
<totfact> 0.88301537E+02</totfact>
</mgrwt>
</event>
<event>
 4    1  0.3541639E-005  0.6669952E+03  0.7818608E-02  0.9775401E-01
         -2   -1    0    0    0  501 -0.00000000000E+00  0.00000000000E+00  0.10864230286E+03  0.10864230289E+03  0.25500000000E-02 0. -1.
          2   -1    0    0  501    0  0.00000000000E+00 -0.00000000000E+00 -0.10237324877E+04  0.10237324877E+04  0.25500000000E-02 0.  1.
    5000001    1    1    2    0    0 -0.17702994770E+03 -0.12832732831E+03 -0.78050652286E+03  0.82717769422E+03  0.16500000000E+03 0.  0.
   -5000001    1    1    2    0    0  0.17702994770E+03  0.12832732831E+03 -0.13458366200E+03  0.30519709640E+03  0.16500000000E+03 0.  0.
<mgrwt>
<rscale>  0 0.66699522E+03</rscale>
<asrwt>0</asrwt>
<pdfrwt beam="1">  1        2 0.14624749E+00 0.66699522E+03</pdfrwt>
<pdfrwt beam="2">  1       -2 0.15520330E-01 0.66699522E+03</pdfrwt>
<totfact> 0.90225782E+02</totfact>
</mgrwt>
</event>
<event>
 4    1  0.3541639E-005  0.5850328E+03  0.7818608E-02  0.9936954E-01
          2   -1    0    0  501    0  0.00000000000E+00  0.00000000000E+00  0.23188513353E+04  0.23188513353E+04  0.25500000000E-02 0.  1.
         -2   -1    0    0    0  501 -0.00000000000E+00 -0.00000000000E+00 -0.36900099732E+02  0.36900099820E+02  0.25500000000E-02 0. -1.
    5000001    1    1    2    0    0  0.15139908290E+03 -0.16855724361E+03  0.14780567817E+04  0.15043969146E+04  0.16500000000E+03 0.  0.
   -5000001    1    1    2    0    0 -0.15139908290E+03  0.16855724361E+03  0.80389445380E+03  0.85135452048E+03  0.16500000000E+03 0.  0.
<mgrwt>
<rscale>  0 0.58503280E+03</rscale>
<asrwt>0</asrwt>
<pdfrwt beam="1">  1        2 0.33126456E+00 0.58503280E+03</pdfrwt>
<pdfrwt beam="2">  1       -2 0.52714415E-02 0.58503280E+03</pdfrwt>
<totfact> 0.10831076E+03</totfact>
</mgrwt>
</event>
<event>
 4    1  0.3541639E-005  0.4844875E+03  0.7818608E-02  0.1017909E+00
          2   -1    0    0  501    0  0.00000000000E+00  0.00000000000E+00  0.85400725704E+03  0.85400725705E+03  0.25500000000E-02 0.  1.
         -2   -1    0    0    0  501 -0.00000000000E+00 -0.00000000000E+00 -0.68713752320E+02  0.68713752367E+02  0.25500000000E-02 0. -1.
    5000001    1    1    2    0    0 -0.17386877521E+03  0.31167128039E+02  0.36221582673E+03  0.43546187663E+03  0.16500000000E+03 0.  0.
   -5000001    1    1    2    0    0  0.17386877521E+03 -0.31167128039E+02  0.42307767799E+03  0.48725913278E+03  0.16500000000E+03 0.  0.
<mgrwt>
<rscale>  0 0.48448754E+03</rscale>
<asrwt>0</asrwt>
<pdfrwt beam="1">  1        2 0.12200103E+00 0.48448754E+03</pdfrwt>
<pdfrwt beam="2">  1       -2 0.98162509E-02 0.48448754E+03</pdfrwt>
<totfact> 0.24642696E+03</totfact>
</mgrwt>
</event>
<event>
 4    1  0.3541639E-005  0.5918006E+03  0.7818608E-02  0.9922565E-01
         -2   -1    0    0    0  501 -0.00000000000E+00  0.00000000000E+00  0.89111101086E+02  0.89111101123E+02  0.25500000000E-02 0. -1.
          2   -1    0    0  501    0  0.00000000000E+00 -0.00000000000E+00 -0.98255998597E+03  0.98255998597E+03  0.25500000000E-02 0.  1.
    5000001    1    1    2    0    0  0.13537828778E+03  0.20403450358E+03 -0.41167389759E+03  0.50661401225E+03  0.16500000000E+03 0.  0.
   -5000001    1    1    2    0    0 -0.13537828778E+03 -0.20403450358E+03 -0.48177498729E+03  0.56505707485E+03  0.16500000000E+03 0.  0.
<mgrwt>
<rscale>  0 0.59180065E+03</rscale>
<asrwt>0</asrwt>
<pdfrwt beam="1">  1        2 0.14036571E+00 0.59180065E+03</pdfrwt>
<pdfrwt beam="2">  1       -2 0.12730158E-01 0.59180065E+03</pdfrwt>
<totfact> 0.13344462E+03</totfact>
</mgrwt>
</event>
<event>
 4    1  0.3541639E-005  0.6312500E+03  0.7818608E-02  0.9842613E-01
          2   -1    0    0  501    0  0.00000000000E+00  0.00000000000E+00  0.48504799260E+03  0.48504799261E+03  0.25500000000E-02 0.  1.
         -2   -1    0    0    0  501 -0.00000000000E+00 -0.00000000000E+00 -0.20537996882E+03  0.20537996883E+03  0.25500000000E-02 0. -1.
    5000001    1    1    2    0    0 -0.62038444216E+02  0.50986667291E+01  0.42613554908E+03  0.46118463890E+03  0.16500000000E+03 0.  0.
   -5000001    1    1    2    0    0  0.62038444216E+02 -0.50986667291E+01 -0.14646752530E+03  0.22924332254E+03  0.16500000000E+03 0.  0.
<mgrwt>
<rscale>  0 0.63125000E+03</rscale>
<asrwt>0</asrwt>
<pdfrwt beam="1">  1        2 0.69292570E-01 0.63125000E+03</pdfrwt>
<pdfrwt beam="2">  1       -2 0.29339996E-01 0.63125000E+03</pdfrwt>
<totfact> 0.74579986E+02</totfact>
</mgrwt>
</event>
<event>
 4    1  0.3541639E-005  0.9242011E+03  0.7818608E-02  0.9395824E-01
         -2   -1    0    0    0  501 -0.00000000000E+00  0.00000000000E+00  0.34063130112E+03  0.34063130113E+03  0.25500000000E-02 0. -1.
          2   -1    0    0  501    0  0.00000000000E+00 -0.00000000000E+00 -0.62688582482E+03  0.62688582483E+03  0.25500000000E-02 0.  1.
    5000001    1    1    2    0    0  0.30749946852E+03  0.29715459605E+03 -0.20466280837E+03  0.50196478185E+03  0.16500000000E+03 0.  0.
   -5000001    1    1    2    0    0 -0.30749946852E+03 -0.29715459605E+03 -0.81591715332E+02  0.46555234411E+03  0.16500000000E+03 0.  0.
<mgrwt>
<rscale>  0 0.92420113E+03</rscale>
<asrwt>0</asrwt>
<pdfrwt beam="1">  1        2 0.89555117E-01 0.92420113E+03</pdfrwt>
<pdfrwt beam="2">  1       -2 0.48661615E-01 0.92420113E+03</pdfrwt>
<totfact> 0.20625725E+02</totfact>
</mgrwt>
</event>
<event>
 4    1  0.3541639E-005  0.5477439E+03  0.7818608E-02  0.1002017E+00
          2   -1    0    0  501    0  0.00000000000E+00  0.00000000000E+00  0.62746015141E+03  0.62746015141E+03  0.25500000000E-02 0.  1.
         -2   -1    0    0    0  501 -0.00000000000E+00 -0.00000000000E+00 -0.11953880357E+03  0.11953880360E+03  0.25500000000E-02 0. -1.
    5000001    1    1    2    0    0  0.20272709685E+03 -0.31615339898E+02  0.15115136108E+03  0.30359436667E+03  0.16500000000E+03 0.  0.
   -5000001    1    1    2    0    0 -0.20272709685E+03  0.31615339898E+02  0.35676998675E+03  0.44340458834E+03  0.16500000000E+03 0.  0.
<mgrwt>
<rscale>  0 0.54774387E+03</rscale>
<asrwt>0</asrwt>
<pdfrwt beam="1">  1        2 0.89637164E-01 0.54774387E+03</pdfrwt>
<pdfrwt beam="2">  1       -2 0.17076972E-01 0.54774387E+03</pdfrwt>
<totfact> 0.14435841E+03</totfact>
</mgrwt>
</event>
<event>
 4    1  0.3541639E-005  0.5197027E+03  0.7818608E-02  0.1008760E+00
         -2   -1    0    0    0  501 -0.00000000000E+00  0.00000000000E+00  0.33166028214E+03  0.33166028215E+03  0.25500000000E-02 0. -1.
          2   -1    0    0  501    0  0.00000000000E+00 -0.00000000000E+00 -0.20359003201E+03  0.20359003203E+03  0.25500000000E-02 0.  1.
    5000001    1    1    2    0    0 -0.24126843323E+02 -0.19354380165E+03  0.15112258924E+02  0.25591929997E+03  0.16500000000E+03 0.  0.
   -5000001    1    1    2    0    0  0.24126843323E+02  0.19354380165E+03  0.11295799120E+03  0.27933101421E+03  0.16500000000E+03 0.  0.
<mgrwt>
<rscale>  0 0.51970271E+03</rscale>
<asrwt>0</asrwt>
<pdfrwt beam="1">  1        2 0.29084290E-01 0.51970271E+03</pdfrwt>
<pdfrwt beam="2">  1       -2 0.47380041E-01 0.51970271E+03</pdfrwt>
<totfact> 0.78175158E+02</totfact>
</mgrwt>
</event>
<event>
 4    1  0.3541639E-005  0.5467249E+03  0.7818608E-02  0.1002255E+00
          2   -1    0    0  501    0  0.00000000000E+00  0.00000000000E+00  0.19374808071E+04  0.19374808071E+04  0.25500000000E-02 0.  1.
         -2   -1    0    0    0  501 -0.00000000000E+00 -0.00000000000E+00 -0.38569166574E+02  0.38569166658E+02  0.25500000000E-02 0. -1.
    5000001    1    1    2    0    0 -0.15244180695E+03  0.14416942780E+03  0.11626312087E+04  0.11928787264E+04  0.16500000000E+03 0.  0.
   -5000001    1    1    2    0    0  0.15244180695E+03 -0.14416942780E+03  0.73628043176E+03  0.78317124731E+03  0.16500000000E+03 0.  0.
<mgrwt>
<rscale>  0 0.54672487E+03</rscale>
<asrwt>0</asrwt>
<pdfrwt beam="1">  1        2 0.27678306E+00 0.54672487E+03</pdfrwt>
<pdfrwt beam="2">  1       -2 0.55098792E-02 0.54672487E+03</pdfrwt>
<totfact> 0.15750882E+03</totfact>
</mgrwt>
</event>
<event>
 4    1  0.3541639E-005  0.5152997E+03  0.7818608E-02  0.1009861E+00
         -2   -1    0    0    0  501 -0.00000000000E+00  0.00000000000E+00  0.59430905301E+03  0.59430905301E+03  0.25500000000E-02 0. -1.
          2   -1    0    0  501    0  0.00000000000E+00 -0.00000000000E+00 -0.11169851929E+03  0.11169851932E+03  0.25500000000E-02 0.  1.
    5000001    1    1    2    0    0 -0.10293948697E+02 -0.19488274343E+03  0.19642161040E+03  0.32232235123E+03  0.16500000000E+03 0.  0.
   -5000001    1    1    2    0    0  0.10293948697E+02  0.19488274343E+03  0.28618892332E+03  0.38368522111E+03  0.16500000000E+03 0.  0.
<mgrwt>
<rscale>  0 0.51529968E+03</rscale>
<asrwt>0</asrwt>
<pdfrwt beam="1">  1        2 0.15956931E-01 0.51529968E+03</pdfrwt>
<pdfrwt beam="2">  1       -2 0.84901293E-01 0.51529968E+03</pdfrwt>
<totfact> 0.45368180E+02</totfact>
</mgrwt>
</event>
<event>
 4    1  0.3541639E-005  0.5081144E+03  0.7818608E-02  0.1011682E+00
          2   -1    0    0  501    0  0.00000000000E+00  0.00000000000E+00  0.91441874811E+02  0.91441874847E+02  0.25500000000E-02 0.  1.
         -2   -1    0    0    0  501 -0.00000000000E+00 -0.00000000000E+00 -0.70585895463E+03  0.70585895463E+03  0.25500000000E-02 0. -1.
    5000001    1    1    2    0    0  0.17939262839E+02 -0.19219410250E+03 -0.31933015594E+03  0.40799159143E+03  0.16500000000E+03 0.  0.
   -5000001    1    1    2    0    0 -0.17939262839E+02  0.19219410250E+03 -0.29508692387E+03  0.38930923805E+03  0.16500000000E+03 0.  0.
<mgrwt>
<rscale>  0 0.50811442E+03</rscale>
<asrwt>0</asrwt>
<pdfrwt beam="1">  1        2 0.13063125E-01 0.50811442E+03</pdfrwt>
<pdfrwt beam="2">  1       -2 0.10083699E+00 0.50811442E+03</pdfrwt>
<totfact> 0.38892797E+02</totfact>
</mgrwt>
</event>
<event>
 4    1  0.3541639E-005  0.4544522E+03  0.7818608E-02  0.1026403E+00
          2   -1    0    0  501    0  0.00000000000E+00  0.00000000000E+00  0.49496468267E+03  0.49496468268E+03  0.25500000000E-02 0.  1.
         -2   -1    0    0    0  501 -0.00000000000E+00 -0.00000000000E+00 -0.10431393017E+03  0.10431393020E+03  0.25500000000E-02 0. -1.
    5000001    1    1    2    0    0 -0.10618274563E+03  0.11030907769E+03  0.15438576341E+03  0.27295206912E+03  0.16500000000E+03 0.  0.
   -5000001    1    1    2    0    0  0.10618274563E+03 -0.11030907769E+03  0.23626498909E+03  0.32632654376E+03  0.16500000000E+03 0.  0.
<mgrwt>
<rscale>  0 0.45445225E+03</rscale>
<asrwt>0</asrwt>
<pdfrwt beam="1">  1        2 0.70709241E-01 0.45445225E+03</pdfrwt>
<pdfrwt beam="2">  1       -2 0.14901990E-01 0.45445225E+03</pdfrwt>
<totfact> 0.23865225E+03</totfact>
</mgrwt>
</event>
<event>
 4    1  0.3541639E-005  0.1343751E+04  0.7818608E-02  0.8995572E-01
         -2   -1    0    0    0  501 -0.00000000000E+00  0.00000000000E+00  0.34228600714E+03  0.34228600715E+03  0.25500000000E-02 0. -1.
          2   -1    0    0  501    0  0.00000000000E+00 -0.00000000000E+00 -0.13188289377E+04  0.13188289377E+04  0.25500000000E-02 0.  1.
    5000001    1    1    2    0    0  0.12110028524E+03  0.56322891361E+03 -0.86383273592E+03  0.10513439417E+04  0.16500000000E+03 0.  0.
   -5000001    1    1    2    0    0 -0.12110028524E+03 -0.56322891361E+03 -0.11271019459E+03  0.60977100306E+03  0.16500000000E+03 0.  0.
<mgrwt>
<rscale>  0 0.13437510E+04</rscale>
<asrwt>0</asrwt>
<pdfrwt beam="1">  1        2 0.18840413E+00 0.13437510E+04</pdfrwt>
<pdfrwt beam="2">  1       -2 0.48898002E-01 0.13437510E+04</pdfrwt>
<totfact> 0.70962034E+01</totfact>
</mgrwt>
</event>
<event>
 4    1  0.3541639E-005  0.4149615E+03  0.7818608E-02  0.1038719E+00
          2   -1    0    0  501    0  0.00000000000E+00  0.00000000000E+00  0.67160834777E+03  0.67160834778E+03  0.25500000000E-02 0.  1.
         -2   -1    0    0    0  501 -0.00000000000E+00 -0.00000000000E+00 -0.64097279682E+02  0.64097279733E+02  0.25500000000E-02 0. -1.
    5000001    1    1    2    0    0  0.10767661416E+03 -0.60836723216E+02  0.26301981743E+03  0.33421517693E+03  0.16500000000E+03 0.  0.
   -5000001    1    1    2    0    0 -0.10767661416E+03  0.60836723216E+02  0.34449125066E+03  0.40149045058E+03  0.16500000000E+03 0.  0.
<mgrwt>
<rscale>  0 0.41496153E+03</rscale>
<asrwt>0</asrwt>
<pdfrwt beam="1">  1        2 0.95944047E-01 0.41496153E+03</pdfrwt>
<pdfrwt beam="2">  1       -2 0.91567545E-02 0.41496153E+03</pdfrwt>
<totfact> 0.37080171E+03</totfact>
</mgrwt>
</event>
<event>
 4    1  0.3541639E-005  0.3602869E+03  0.7818608E-02  0.1058470E+00
         -2   -1    0    0    0  501 -0.00000000000E+00  0.00000000000E+00  0.40331405832E+02  0.40331405912E+02  0.25500000000E-02 0. -1.
          2   -1    0    0  501    0  0.00000000000E+00 -0.00000000000E+00 -0.80462533224E+03  0.80462533225E+03  0.25500000000E-02 0.  1.
    5000001    1    1    2    0    0 -0.52661018743E+02  0.45546705817E+02 -0.33649102509E+03  0.38118092197E+03  0.16500000000E+03 0.  0.
   -5000001    1    1    2    0    0  0.52661018743E+02 -0.45546705817E+02 -0.42780290132E+03  0.46377581619E+03  0.16500000000E+03 0.  0.
<mgrwt>
<rscale>  0 0.36028695E+03</rscale>
<asrwt>0</asrwt>
<pdfrwt beam="1">  1        2 0.11494647E+00 0.36028695E+03</pdfrwt>
<pdfrwt beam="2">  1       -2 0.57616299E-02 0.36028695E+03</pdfrwt>
<totfact> 0.61295552E+03</totfact>
</mgrwt>
</event>
<event>
 4    1  0.3541639E-005  0.6060225E+03  0.7818608E-02  0.9892989E-01
         -2   -1    0    0    0  501 -0.00000000000E+00  0.00000000000E+00  0.37847999146E+02  0.37847999232E+02  0.25500000000E-02 0. -1.
          2   -1    0    0  501    0  0.00000000000E+00 -0.00000000000E+00 -0.24259093619E+04  0.24259093619E+04  0.25500000000E-02 0.  1.
    5000001    1    1    2    0    0  0.15620423606E+03  0.15925180084E+03 -0.69894708330E+03  0.75200593394E+03  0.16500000000E+03 0.  0.
   -5000001    1    1    2    0    0 -0.15620423606E+03 -0.15925180084E+03 -0.16891142795E+04  0.17117514272E+04  0.16500000000E+03 0.  0.
<mgrwt>
<rscale>  0 0.60602249E+03</rscale>
<asrwt>0</asrwt>
<pdfrwt beam="1">  1        2 0.34655838E+00 0.60602249E+03</pdfrwt>
<pdfrwt beam="2">  1       -2 0.54068585E-02 0.60602249E+03</pdfrwt>
<totfact> 0.91727765E+02</totfact>
</mgrwt>
</event>
<event>
 4    1  0.3541639E-005  0.9776206E+03  0.7818608E-02  0.9333437E-01
         -2   -1    0    0    0  501 -0.00000000000E+00  0.00000000000E+00  0.53132505477E+03  0.53132505477E+03  0.25500000000E-02 0. -1.
          2   -1    0    0  501    0  0.00000000000E+00 -0.00000000000E+00 -0.44969741453E+03  0.44969741454E+03  0.25500000000E-02 0.  1.
    5000001    1    1    2    0    0  0.28456235508E+03  0.36108856533E+03  0.59582311256E+02  0.49207289883E+03  0.16500000000E+03 0.  0.
   -5000001    1    1    2    0    0 -0.28456235508E+03 -0.36108856533E+03  0.22045328982E+02  0.48894957048E+03  0.16500000000E+03 0.  0.
<mgrwt>
<rscale>  0 0.97762059E+03</rscale>
<asrwt>0</asrwt>
<pdfrwt beam="1">  1        2 0.64242488E-01 0.97762059E+03</pdfrwt>
<pdfrwt beam="2">  1       -2 0.75903580E-01 0.97762059E+03</pdfrwt>
<totfact> 0.11788487E+02</totfact>
</mgrwt>
</event>
<event>
 4    1  0.3541639E-005  0.7151462E+03  0.7818608E-02  0.9691675E-01
          2   -1    0    0  501    0  0.00000000000E+00  0.00000000000E+00  0.19963912727E+04  0.19963912727E+04  0.25500000000E-02 0.  1.
         -2   -1    0    0    0  501 -0.00000000000E+00 -0.00000000000E+00 -0.64044823424E+02  0.64044823474E+02  0.25500000000E-02 0. -1.
    5000001    1    1    2    0    0  0.16432505883E+03  0.27079414049E+03  0.91615950239E+03  0.98331349289E+03  0.16500000000E+03 0.  0.
   -5000001    1    1    2    0    0 -0.16432505883E+03 -0.27079414049E+03  0.10161869469E+04  0.10771226033E+04  0.16500000000E+03 0.  0.
<mgrwt>
<rscale>  0 0.71514621E+03</rscale>
<asrwt>0</asrwt>
<pdfrwt beam="1">  1        2 0.28519872E+00 0.71514621E+03</pdfrwt>
<pdfrwt beam="2">  1       -2 0.91492617E-02 0.71514621E+03</pdfrwt>
<totfact> 0.65287054E+02</totfact>
</mgrwt>
</event>
<event>
 4    1  0.3541639E-005  0.4408431E+03  0.7818608E-02  0.1030488E+00
          2   -1    0    0  501    0  0.00000000000E+00  0.00000000000E+00  0.33470274234E+04  0.33470274234E+04  0.25500000000E-02 0.  1.
         -2   -1    0    0    0  501 -0.00000000000E+00 -0.00000000000E+00 -0.14516061116E+02  0.14516061340E+02  0.25500000000E-02 0. -1.
    5000001    1    1    2    0    0  0.60047750562E+02  0.94986772693E+02  0.95369409728E+03  0.97436422888E+03  0.16500000000E+03 0.  0.
   -5000001    1    1    2    0    0 -0.60047750562E+02 -0.94986772693E+02  0.23788172650E+04  0.23871792558E+04  0.16500000000E+03 0.  0.
<mgrwt>
<rscale>  0 0.44084308E+03</rscale>
<asrwt>0</asrwt>
<pdfrwt beam="1">  1        2 0.47814627E+00 0.44084308E+03</pdfrwt>
<pdfrwt beam="2">  1       -2 0.20737252E-02 0.44084308E+03</pdfrwt>
<totfact> 0.12855653E+03</totfact>
</mgrwt>
</event>
<event>
 4    1  0.3541639E-005  0.4853287E+03  0.7818608E-02  0.1017681E+00
         -2   -1    0    0    0  501 -0.00000000000E+00  0.00000000000E+00  0.64132288632E+02  0.64132288682E+02  0.25500000000E-02 0. -1.
          2   -1    0    0  501    0  0.00000000000E+00 -0.00000000000E+00 -0.91819554988E+03  0.91819554988E+03  0.25500000000E-02 0.  1.
    5000001    1    1    2    0    0 -0.40220210690E+02  0.11780077608E+03 -0.68438255318E+03  0.71491199969E+03  0.16500000000E+03 0.  0.
   -5000001    1    1    2    0    0  0.40220210690E+02 -0.11780077608E+03 -0.16968070806E+03  0.26741583888E+03  0.16500000000E+03 0.  0.
<mgrwt>
<rscale>  0 0.48532868E+03</rscale>
<asrwt>0</asrwt>
<pdfrwt beam="1">  1        2 0.13117079E+00 0.48532868E+03</pdfrwt>
<pdfrwt beam="2">  1       -2 0.91617561E-02 0.48532868E+03</pdfrwt>
<totfact> 0.25022329E+03</totfact>
</mgrwt>
</event>
<event>
 4    1  0.3541639E-005  0.5296544E+03  0.7818608E-02  0.1006316E+00
          2   -1    0    0  501    0  0.00000000000E+00  0.00000000000E+00  0.20539053384E+03  0.20539053386E+03  0.25500000000E-02 0.  1.
         -2   -1    0    0    0  501 -0.00000000000E+00 -0.00000000000E+00 -0.34146388273E+03  0.34146388274E+03  0.25500000000E-02 0. -1.
    5000001    1    1    2    0    0  0.38079446298E+02 -0.18040513085E+03  0.29434525099E+02  0.24917352736E+03  0.16500000000E+03 0.  0.
   -5000001    1    1    2    0    0 -0.38079446298E+02  0.18040513085E+03 -0.16550787399E+03  0.29768088924E+03  0.16500000000E+03 0.  0.
<mgrwt>
<rscale>  0 0.52965441E+03</rscale>
<asrwt>0</asrwt>
<pdfrwt beam="1">  1        2 0.29341505E-01 0.52965441E+03</pdfrwt>
<pdfrwt beam="2">  1       -2 0.48780555E-01 0.52965441E+03</pdfrwt>
<totfact> 0.73009871E+02</totfact>
</mgrwt>
</event>
<event>
 4    1  0.3541639E-005  0.7145475E+03  0.7818608E-02  0.9692672E-01
          2   -1    0    0  501    0  0.00000000000E+00  0.00000000000E+00  0.10797243279E+04  0.10797243279E+04  0.25500000000E-02 0.  1.
         -2   -1    0    0    0  501 -0.00000000000E+00 -0.00000000000E+00 -0.11821955083E+03  0.11821955085E+03  0.25500000000E-02 0. -1.
    5000001    1    1    2    0    0  0.44044897000E+02  0.27494974985E+03  0.22714941703E+03  0.39542278077E+03  0.16500000000E+03 0.  0.
   -5000001    1    1    2    0    0 -0.44044897000E+02 -0.27494974985E+03  0.73435536006E+03  0.80252109800E+03  0.16500000000E+03 0.  0.
<mgrwt>
<rscale>  0 0.71454748E+03</rscale>
<asrwt>0</asrwt>
<pdfrwt beam="1">  1        2 0.15424634E+00 0.71454748E+03</pdfrwt>
<pdfrwt beam="2">  1       -2 0.16888507E-01 0.71454748E+03</pdfrwt>
<totfact> 0.72239107E+02</totfact>
</mgrwt>
</event>
<event>
 4    1  0.3541639E-005  0.1236084E+04  0.7818608E-02  0.9081845E-01
         -2   -1    0    0    0  501 -0.00000000000E+00  0.00000000000E+00  0.13460562042E+04  0.13460562042E+04  0.25500000000E-02 0. -1.
          2   -1    0    0  501    0  0.00000000000E+00 -0.00000000000E+00 -0.28377427381E+03  0.28377427382E+03  0.25500000000E-02 0.  1.
    5000001    1    1    2    0    0  0.29651302534E+03  0.41051145724E+03  0.11771621433E+03  0.54545553241E+03  0.16500000000E+03 0.  0.
   -5000001    1    1    2    0    0 -0.29651302534E+03 -0.41051145724E+03  0.94456571607E+03  0.10843749456E+04  0.16500000000E+03 0.  0.
<mgrwt>
<rscale>  0 0.12360843E+04</rscale>
<asrwt>0</asrwt>
<pdfrwt beam="1">  1        2 0.40539182E-01 0.12360843E+04</pdfrwt>
<pdfrwt beam="2">  1       -2 0.19229374E+00 0.12360843E+04</pdfrwt>
<totfact> 0.18697105E+01</totfact>
</mgrwt>
</event>
<event>
 4    1  0.3541639E-005  0.5380028E+03  0.7818608E-02  0.1004310E+00
          2   -1    0    0  501    0  0.00000000000E+00  0.00000000000E+00  0.46050520246E+04  0.46050520246E+04  0.25500000000E-02 0.  1.
         -2   -1    0    0    0  501 -0.00000000000E+00 -0.00000000000E+00 -0.15713558854E+02  0.15713559061E+02  0.25500000000E-02 0. -1.
    5000001    1    1    2    0    0 -0.82345902456E+02  0.15251211380E+03  0.12394084061E+04  0.12622990888E+04  0.16500000000E+03 0.  0.
   -5000001    1    1    2    0    0  0.82345902456E+02 -0.15251211380E+03  0.33499300596E+04  0.33584664948E+04  0.16500000000E+03 0.  0.
<mgrwt>
<rscale>  0 0.53800281E+03</rscale>
<asrwt>0</asrwt>
<pdfrwt beam="1">  1        2 0.65786566E+00 0.53800281E+03</pdfrwt>
<pdfrwt beam="2">  1       -2 0.22447904E-02 0.53800281E+03</pdfrwt>
<totfact> 0.16253134E+02</totfact>
</mgrwt>
</event>
<event>
 4    1  0.3541639E-005  0.5109933E+03  0.7818608E-02  0.1010949E+00
         -2   -1    0    0    0  501 -0.00000000000E+00  0.00000000000E+00  0.37734373484E+02  0.37734373570E+02  0.25500000000E-02 0. -1.
          2   -1    0    0  501    0  0.00000000000E+00 -0.00000000000E+00 -0.17299489999E+04  0.17299489999E+04  0.25500000000E-02 0.  1.
    5000001    1    1    2    0    0 -0.37082560558E+02  0.13955645738E+03 -0.39239136931E+03  0.44949650478E+03  0.16500000000E+03 0.  0.
   -5000001    1    1    2    0    0  0.37082560558E+02 -0.13955645738E+03 -0.12998232571E+04  0.13181868687E+04  0.16500000000E+03 0.  0.
<mgrwt>
<rscale>  0 0.51099331E+03</rscale>
<asrwt>0</asrwt>
<pdfrwt beam="1">  1        2 0.24713552E+00 0.51099331E+03</pdfrwt>
<pdfrwt beam="2">  1       -2 0.53906259E-02 0.51099331E+03</pdfrwt>
<totfact> 0.20743634E+03</totfact>
</mgrwt>
</event>
<event>
 4    1  0.3541639E-005  0.4411089E+03  0.7818608E-02  0.1030407E+00
         -2   -1    0    0    0  501 -0.00000000000E+00  0.00000000000E+00  0.17534210239E+03  0.17534210241E+03  0.25500000000E-02 0. -1.
          2   -1    0    0  501    0  0.00000000000E+00 -0.00000000000E+00 -0.27742496093E+03  0.27742496094E+03  0.25500000000E-02 0.  1.
    5000001    1    1    2    0    0 -0.87867476037E+02 -0.47416820997E+01  0.68994173457E+02  0.19931977540E+03  0.16500000000E+03 0.  0.
   -5000001    1    1    2    0    0  0.87867476037E+02  0.47416820997E+01 -0.17107703199E+03  0.25344728795E+03  0.16500000000E+03 0.  0.
<mgrwt>
<rscale>  0 0.44110895E+03</rscale>
<asrwt>0</asrwt>
<pdfrwt beam="1">  1        2 0.39632137E-01 0.44110895E+03</pdfrwt>
<pdfrwt beam="2">  1       -2 0.25048872E-01 0.44110895E+03</pdfrwt>
<totfact> 0.18435743E+03</totfact>
</mgrwt>
</event>
<event>
 4    1  0.3541639E-005  0.5326732E+03  0.7818608E-02  0.1005586E+00
          2   -1    0    0  501    0  0.00000000000E+00  0.00000000000E+00  0.11864031285E+04  0.11864031285E+04  0.25500000000E-02 0.  1.
         -2   -1    0    0    0  501 -0.00000000000E+00 -0.00000000000E+00 -0.59790109647E+02  0.59790109702E+02  0.25500000000E-02 0. -1.
    5000001    1    1    2    0    0 -0.56364219766E+02  0.20129567394E+03  0.55477466012E+03  0.61538345536E+03  0.16500000000E+03 0.  0.
   -5000001    1    1    2    0    0  0.56364219766E+02 -0.20129567394E+03  0.57183835872E+03  0.63080978283E+03  0.16500000000E+03 0.  0.
<mgrwt>
<rscale>  0 0.53267316E+03</rscale>
<asrwt>0</asrwt>
<pdfrwt beam="1">  1        2 0.16948614E+00 0.53267316E+03</pdfrwt>
<pdfrwt beam="2">  1       -2 0.85414451E-02 0.53267316E+03</pdfrwt>
<totfact> 0.19407785E+03</totfact>
</mgrwt>
</event>
<event>
 4    1  0.3541639E-005  0.4378121E+03  0.7818608E-02  0.1031420E+00
          2   -1    0    0  501    0  0.00000000000E+00  0.00000000000E+00  0.15004907730E+03  0.15004907733E+03  0.25500000000E-02 0.  1.
         -2   -1    0    0    0  501 -0.00000000000E+00 -0.00000000000E+00 -0.31936124726E+03  0.31936124727E+03  0.25500000000E-02 0. -1.
    5000001    1    1    2    0    0  0.11762858926E+03 -0.82040503058E+02 -0.72538569272E+02  0.23033448110E+03  0.16500000000E+03 0.  0.
   -5000001    1    1    2    0    0 -0.11762858926E+03  0.82040503058E+02 -0.96773600681E+02  0.23907584349E+03  0.16500000000E+03 0.  0.
<mgrwt>
<rscale>  0 0.43781211E+03</rscale>
<asrwt>0</asrwt>
<pdfrwt beam="1">  1        2 0.21435582E-01 0.43781211E+03</pdfrwt>
<pdfrwt beam="2">  1       -2 0.45623035E-01 0.43781211E+03</pdfrwt>
<totfact> 0.11917173E+03</totfact>
</mgrwt>
</event>
<event>
 4    1  0.3541639E-005  0.5801723E+03  0.7818608E-02  0.9947418E-01
          2   -1    0    0  501    0  0.00000000000E+00  0.00000000000E+00  0.67000607666E+03  0.67000607666E+03  0.25500000000E-02 0.  1.
         -2   -1    0    0    0  501 -0.00000000000E+00 -0.00000000000E+00 -0.12559583788E+03  0.12559583791E+03  0.25500000000E-02 0. -1.
    5000001    1    1    2    0    0 -0.22059241030E+03 -0.87010933333E+02  0.23610368706E+03  0.37309766154E+03  0.16500000000E+03 0.  0.
   -5000001    1    1    2    0    0  0.22059241030E+03  0.87010933333E+02  0.30830655172E+03  0.42250425303E+03  0.16500000000E+03 0.  0.
<mgrwt>
<rscale>  0 0.58017230E+03</rscale>
<asrwt>0</asrwt>
<pdfrwt beam="1">  1        2 0.95715154E-01 0.58017230E+03</pdfrwt>
<pdfrwt beam="2">  1       -2 0.17942263E-01 0.58017230E+03</pdfrwt>
<totfact> 0.12261701E+03</totfact>
</mgrwt>
</event>
<event>
 4    1  0.3541639E-005  0.4455103E+03  0.7818608E-02  0.1029069E+00
          2   -1    0    0  501    0  0.00000000000E+00  0.00000000000E+00  0.71668754755E+03  0.71668754756E+03  0.25500000000E-02 0.  1.
         -2   -1    0    0    0  501 -0.00000000000E+00 -0.00000000000E+00 -0.69234986033E+02  0.69234986080E+02  0.25500000000E-02 0. -1.
    5000001    1    1    2    0    0  0.61312968358E+02  0.13632903601E+03  0.33619610267E+03  0.40323405808E+03  0.16500000000E+03 0.  0.
   -5000001    1    1    2    0    0 -0.61312968358E+02 -0.13632903601E+03  0.31125645885E+03  0.38268847556E+03  0.16500000000E+03 0.  0.
<mgrwt>
<rscale>  0 0.44551028E+03</rscale>
<asrwt>0</asrwt>
<pdfrwt beam="1">  1        2 0.10238394E+00 0.44551028E+03</pdfrwt>
<pdfrwt beam="2">  1       -2 0.98907122E-02 0.44551028E+03</pdfrwt>
<totfact> 0.30327968E+03</totfact>
</mgrwt>
</event>
<event>
 4    1  0.3541639E-005  0.3912681E+03  0.7818608E-02  0.1046846E+00
         -2   -1    0    0    0  501 -0.00000000000E+00  0.00000000000E+00  0.25702856120E+02  0.25702856246E+02  0.25500000000E-02 0. -1.
          2   -1    0    0  501    0  0.00000000000E+00 -0.00000000000E+00 -0.14890437131E+04  0.14890437131E+04  0.25500000000E-02 0.  1.
    5000001    1    1    2    0    0  0.10126127679E+03  0.28157956010E+02 -0.72787776631E+03  0.75370933347E+03  0.16500000000E+03 0.  0.
   -5000001    1    1    2    0    0 -0.10126127679E+03 -0.28157956010E+02 -0.73546309068E+03  0.76103723589E+03  0.16500000000E+03 0.  0.
<mgrwt>
<rscale>  0 0.39126807E+03</rscale>
<asrwt>0</asrwt>
<pdfrwt beam="1">  1        2 0.21272048E+00 0.39126807E+03</pdfrwt>
<pdfrwt beam="2">  1       -2 0.36718375E-02 0.39126807E+03</pdfrwt>
<totfact> 0.49597727E+03</totfact>
</mgrwt>
</event>
<event>
 4    1  0.3541639E-005  0.3464571E+03  0.7818608E-02  0.1064079E+00
         -2   -1    0    0    0  501 -0.00000000000E+00  0.00000000000E+00  0.15628510499E+02  0.15628510707E+02  0.25500000000E-02 0. -1.
          2   -1    0    0  501    0  0.00000000000E+00 -0.00000000000E+00 -0.19200889602E+04  0.19200889602E+04  0.25500000000E-02 0.  1.
    5000001    1    1    2    0    0 -0.30041486683E+02  0.43101567571E+02 -0.97896393851E+03  0.99416076615E+03  0.16500000000E+03 0.  0.
   -5000001    1    1    2    0    0  0.30041486683E+02 -0.43101567571E+02 -0.92549651117E+03  0.94155670474E+03  0.16500000000E+03 0.  0.
<mgrwt>
<rscale>  0 0.34645710E+03</rscale>
<asrwt>0</asrwt>
<pdfrwt beam="1">  1        2 0.27429827E+00 0.34645710E+03</pdfrwt>
<pdfrwt beam="2">  1       -2 0.22326456E-02 0.34645710E+03</pdfrwt>
<totfact> 0.63610519E+03</totfact>
</mgrwt>
</event>
<event>
 4    1  0.3541639E-005  0.4652294E+03  0.7818608E-02  0.1023275E+00
          2   -1    0    0  501    0  0.00000000000E+00  0.00000000000E+00  0.92425691229E+03  0.92425691229E+03  0.25500000000E-02 0.  1.
         -2   -1    0    0    0  501 -0.00000000000E+00 -0.00000000000E+00 -0.58543888186E+02  0.58543888241E+02  0.25500000000E-02 0. -1.
    5000001    1    1    2    0    0  0.15651757325E+03 -0.30245964362E+02  0.51390704123E+03  0.56279482596E+03  0.16500000000E+03 0.  0.
   -5000001    1    1    2    0    0 -0.15651757325E+03  0.30245964362E+02  0.35180598287E+03  0.42000597457E+03  0.16500000000E+03 0.  0.
<mgrwt>
<rscale>  0 0.46522938E+03</rscale>
<asrwt>0</asrwt>
<pdfrwt beam="1">  1        2 0.13203670E+00 0.46522938E+03</pdfrwt>
<pdfrwt beam="2">  1       -2 0.83634130E-02 0.46522938E+03</pdfrwt>
<totfact> 0.28681637E+03</totfact>
</mgrwt>
</event>
<event>
 4    1  0.3541639E-005  0.4620960E+03  0.7818608E-02  0.1024175E+00
         -2   -1    0    0    0  501 -0.00000000000E+00  0.00000000000E+00  0.33873856039E+02  0.33873856135E+02  0.25500000000E-02 0. -1.
          2   -1    0    0  501    0  0.00000000000E+00 -0.00000000000E+00 -0.15759401119E+04  0.15759401120E+04  0.25500000000E-02 0.  1.
    5000001    1    1    2    0    0 -0.22700068090E+01 -0.12849466474E+03 -0.11131150828E+04  0.11325926979E+04  0.16500000000E+03 0.  0.
   -5000001    1    1    2    0    0  0.22700068090E+01  0.12849466474E+03 -0.42895117312E+03  0.47722127019E+03  0.16500000000E+03 0.  0.
<mgrwt>
<rscale>  0 0.46209596E+03</rscale>
<asrwt>0</asrwt>
<pdfrwt beam="1">  1        2 0.22513426E+00 0.46209596E+03</pdfrwt>
<pdfrwt beam="2">  1       -2 0.48391233E-02 0.46209596E+03</pdfrwt>
<totfact> 0.29370792E+03</totfact>
</mgrwt>
</event>
<event>
 4    1  0.3541639E-005  0.4422380E+03  0.7818608E-02  0.1030062E+00
         -2   -1    0    0    0  501 -0.00000000000E+00  0.00000000000E+00  0.60809735417E+03  0.60809735418E+03  0.25500000000E-02 0. -1.
          2   -1    0    0  501    0  0.00000000000E+00 -0.00000000000E+00 -0.80404256521E+02  0.80404256562E+02  0.25500000000E-02 0.  1.
    5000001    1    1    2    0    0  0.10471201328E+03 -0.70268928809E+02  0.14562489320E+03  0.25364135625E+03  0.16500000000E+03 0.  0.
   -5000001    1    1    2    0    0 -0.10471201328E+03  0.70268928809E+02  0.38206820445E+03  0.43486025449E+03  0.16500000000E+03 0.  0.
<mgrwt>
<rscale>  0 0.44223802E+03</rscale>
<asrwt>0</asrwt>
<pdfrwt beam="1">  1        2 0.11486323E-01 0.44223802E+03</pdfrwt>
<pdfrwt beam="2">  1       -2 0.86871049E-01 0.44223802E+03</pdfrwt>
<totfact> 0.64335779E+02</totfact>
</mgrwt>
</event>
<event>
 4    1  0.3541639E-005  0.7992275E+03  0.7818608E-02  0.9561136E-01
         -2   -1    0    0    0  501 -0.00000000000E+00  0.00000000000E+00  0.10245704311E+03  0.10245704314E+03  0.25500000000E-02 0. -1.
          2   -1    0    0  501    0  0.00000000000E+00 -0.00000000000E+00 -0.15586154499E+04  0.15586154499E+04  0.25500000000E-02 0.  1.
    5000001    1    1    2    0    0  0.10764318078E+03  0.29090678971E+03 -0.33236096237E+03  0.48363480435E+03  0.16500000000E+03 0.  0.
   -5000001    1    1    2    0    0 -0.10764318078E+03 -0.29090678971E+03 -0.11237974444E+04  0.11774376886E+04  0.16500000000E+03 0.  0.
<mgrwt>
<rscale>  0 0.79922745E+03</rscale>
<asrwt>0</asrwt>
<pdfrwt beam="1">  1        2 0.22265934E+00 0.79922745E+03</pdfrwt>
<pdfrwt beam="2">  1       -2 0.14636721E-01 0.79922745E+03</pdfrwt>
<totfact> 0.50101217E+02</totfact>
</mgrwt>
</event>
<event>
 4    1  0.3541639E-005  0.6370976E+03  0.7818608E-02  0.9831295E-01
         -2   -1    0    0    0  501 -0.00000000000E+00  0.00000000000E+00  0.84967003276E+02  0.84967003314E+02  0.25500000000E-02 0. -1.
          2   -1    0    0  501    0  0.00000000000E+00 -0.00000000000E+00 -0.11942675561E+04  0.11942675561E+04  0.25500000000E-02 0.  1.
    5000001    1    1    2    0    0  0.25079803702E+03  0.17097382981E+02 -0.34352010712E+03  0.45653372260E+03  0.16500000000E+03 0.  0.
   -5000001    1    1    2    0    0 -0.25079803702E+03 -0.17097382981E+02 -0.76578044570E+03  0.82270083681E+03  0.16500000000E+03 0.  0.
<mgrwt>
<rscale>  0 0.63709759E+03</rscale>
<asrwt>0</asrwt>
<pdfrwt beam="1">  1        2 0.17060964E+00 0.63709759E+03</pdfrwt>
<pdfrwt beam="2">  1       -2 0.12138144E-01 0.63709759E+03</pdfrwt>
<totfact> 0.10835367E+03</totfact>
</mgrwt>
</event>
<event>
 4    1  0.3541639E-005  0.8209405E+03  0.7818608E-02  0.9530192E-01
          2   -1    0    0  501    0  0.00000000000E+00  0.00000000000E+00  0.38921682029E+03  0.38921682030E+03  0.25500000000E-02 0.  1.
         -2   -1    0    0    0  501 -0.00000000000E+00 -0.00000000000E+00 -0.43288423513E+03  0.43288423514E+03  0.25500000000E-02 0. -1.
    5000001    1    1    2    0    0 -0.37197660863E+03  0.37590642549E+02 -0.60374109380E+02  0.41309767230E+03  0.16500000000E+03 0.  0.
   -5000001    1    1    2    0    0  0.37197660863E+03 -0.37590642549E+02  0.16706694544E+02  0.40900338314E+03  0.16500000000E+03 0.  0.
<mgrwt>
<rscale>  0 0.82094050E+03</rscale>
<asrwt>0</asrwt>
<pdfrwt beam="1">  1        2 0.55602403E-01 0.82094050E+03</pdfrwt>
<pdfrwt beam="2">  1       -2 0.61840605E-01 0.82094050E+03</pdfrwt>
<totfact> 0.21800901E+02</totfact>
</mgrwt>
</event>
<event>
 4    1  0.3541639E-005  0.6718456E+03  0.7818608E-02  0.9766629E-01
          2   -1    0    0  501    0  0.00000000000E+00  0.00000000000E+00  0.11066359890E+04  0.11066359890E+04  0.25500000000E-02 0.  1.
         -2   -1    0    0    0  501 -0.00000000000E+00 -0.00000000000E+00 -0.10197040739E+03  0.10197040742E+03  0.25500000000E-02 0. -1.
    5000001    1    1    2    0    0  0.18611009581E+03 -0.22558279081E+03  0.51982592891E+03  0.61884453592E+03  0.16500000000E+03 0.  0.
   -5000001    1    1    2    0    0 -0.18611009581E+03  0.22558279081E+03  0.48483965270E+03  0.58976186050E+03  0.16500000000E+03 0.  0.
<mgrwt>
<rscale>  0 0.67184559E+03</rscale>
<asrwt>0</asrwt>
<pdfrwt beam="1">  1        2 0.15809086E+00 0.67184559E+03</pdfrwt>
<pdfrwt beam="2">  1       -2 0.14567201E-01 0.67184559E+03</pdfrwt>
<totfact> 0.89649655E+02</totfact>
</mgrwt>
</event>
<event>
 4    1  0.3541639E-005  0.4993502E+03  0.7818608E-02  0.1013949E+00
         -2   -1    0    0    0  501 -0.00000000000E+00  0.00000000000E+00  0.16722839481E+02  0.16722839675E+02  0.25500000000E-02 0. -1.
          2   -1    0    0  501    0  0.00000000000E+00 -0.00000000000E+00 -0.37276952485E+04  0.37276952485E+04  0.25500000000E-02 0.  1.
    5000001    1    1    2    0    0 -0.14270182096E+03 -0.55958709333E+02 -0.10472565668E+04  0.10711986294E+04  0.16500000000E+03 0.  0.
   -5000001    1    1    2    0    0  0.14270182096E+03  0.55958709333E+02 -0.26637158422E+04  0.26732194588E+04  0.16500000000E+03 0.  0.
<mgrwt>
<rscale>  0 0.49935018E+03</rscale>
<asrwt>0</asrwt>
<pdfrwt beam="1">  1        2 0.53252736E+00 0.49935018E+03</pdfrwt>
<pdfrwt beam="2">  1       -2 0.23889795E-02 0.49935018E+03</pdfrwt>
<totfact> 0.61305787E+02</totfact>
</mgrwt>
</event>
<event>
 4    1  0.3541639E-005  0.4755692E+03  0.7818608E-02  0.1020360E+00
         -2   -1    0    0    0  501 -0.00000000000E+00  0.00000000000E+00  0.21369202954E+03  0.21369202955E+03  0.25500000000E-02 0. -1.
          2   -1    0    0  501    0  0.00000000000E+00 -0.00000000000E+00 -0.26459342204E+03  0.26459342206E+03  0.25500000000E-02 0.  1.
    5000001    1    1    2    0    0  0.63422692160E+01 -0.17011026471E+03 -0.69396220421E+01  0.23717269002E+03  0.16500000000E+03 0.  0.
   -5000001    1    1    2    0    0 -0.63422692160E+01  0.17011026471E+03 -0.43961770463E+02  0.24111276159E+03  0.16500000000E+03 0.  0.
<mgrwt>
<rscale>  0 0.47556916E+03</rscale>
<asrwt>0</asrwt>
<pdfrwt beam="1">  1        2 0.37799060E-01 0.47556916E+03</pdfrwt>
<pdfrwt beam="2">  1       -2 0.30527433E-01 0.47556916E+03</pdfrwt>
<totfact> 0.13575048E+03</totfact>
</mgrwt>
</event>
<event>
 4    1  0.3541639E-005  0.5164213E+03  0.7818608E-02  0.1009579E+00
         -2   -1    0    0    0  501 -0.00000000000E+00  0.00000000000E+00  0.49658303500E+03  0.49658303501E+03  0.25500000000E-02 0. -1.
          2   -1    0    0  501    0  0.00000000000E+00 -0.00000000000E+00 -0.13426302884E+03  0.13426302887E+03  0.25500000000E-02 0.  1.
    5000001    1    1    2    0    0  0.16379027269E+03  0.10923924301E+03  0.21318470230E+03  0.33381609148E+03  0.16500000000E+03 0.  0.
   -5000001    1    1    2    0    0 -0.16379027269E+03 -0.10923924301E+03  0.14913530386E+03  0.29702997239E+03  0.16500000000E+03 0.  0.
<mgrwt>
<rscale>  0 0.51642131E+03</rscale>
<asrwt>0</asrwt>
<pdfrwt beam="1">  1        2 0.19180432E-01 0.51642131E+03</pdfrwt>
<pdfrwt beam="2">  1       -2 0.70940435E-01 0.51642131E+03</pdfrwt>
<totfact> 0.54329180E+02</totfact>
</mgrwt>
</event>
<event>
 4    1  0.3541639E-005  0.5070826E+03  0.7818608E-02  0.1011947E+00
         -2   -1    0    0    0  501 -0.00000000000E+00  0.00000000000E+00  0.30589234607E+03  0.30589234608E+03  0.25500000000E-02 0. -1.
          2   -1    0    0  501    0  0.00000000000E+00 -0.00000000000E+00 -0.21014970563E+03  0.21014970564E+03  0.25500000000E-02 0.  1.
    5000001    1    1    2    0    0  0.15473375483E+03  0.62295538831E+02 -0.49925088767E+02  0.23987660063E+03  0.16500000000E+03 0.  0.
   -5000001    1    1    2    0    0 -0.15473375483E+03 -0.62295538831E+02  0.14566772921E+03  0.27616545109E+03  0.16500000000E+03 0.  0.
<mgrwt>
<rscale>  0 0.50708258E+03</rscale>
<asrwt>0</asrwt>
<pdfrwt beam="1">  1        2 0.30021387E-01 0.50708258E+03</pdfrwt>
<pdfrwt beam="2">  1       -2 0.43698906E-01 0.50708258E+03</pdfrwt>
<totfact> 0.88575713E+02</totfact>
</mgrwt>
</event>
<event>
 4    1  0.3541639E-005  0.4450202E+03  0.7818608E-02  0.1029218E+00
         -2   -1    0    0    0  501 -0.00000000000E+00  0.00000000000E+00  0.58273545069E+02  0.58273545125E+02  0.25500000000E-02 0. -1.
          2   -1    0    0  501    0  0.00000000000E+00 -0.00000000000E+00 -0.84962630964E+03  0.84962630964E+03  0.25500000000E-02 0.  1.
    5000001    1    1    2    0    0  0.11346433927E+03 -0.84425669708E+02 -0.49317435132E+03  0.53893208366E+03  0.16500000000E+03 0.  0.
   -5000001    1    1    2    0    0 -0.11346433927E+03  0.84425669708E+02 -0.29817841324E+03  0.36896777111E+03  0.16500000000E+03 0.  0.
<mgrwt>
<rscale>  0 0.44502017E+03</rscale>
<asrwt>0</asrwt>
<pdfrwt beam="1">  1        2 0.12137518E+00 0.44502017E+03</pdfrwt>
<pdfrwt beam="2">  1       -2 0.83247927E-02 0.44502017E+03</pdfrwt>
<totfact> 0.32268202E+03</totfact>
</mgrwt>
</event>
<event>
 4    1  0.3541639E-005  0.3629013E+03  0.7818608E-02  0.1057441E+00
         -2   -1    0    0    0  501 -0.00000000000E+00  0.00000000000E+00  0.38931924840E+03  0.38931924841E+03  0.25500000000E-02 0. -1.
          2   -1    0    0  501    0  0.00000000000E+00 -0.00000000000E+00 -0.84569011479E+02  0.84569011517E+02  0.25500000000E-02 0.  1.
    5000001    1    1    2    0    0 -0.17458432385E+02 -0.43137261091E+02  0.74749746890E+02  0.18702444978E+03  0.16500000000E+03 0.  0.
   -5000001    1    1    2    0    0  0.17458432385E+02  0.43137261091E+02  0.23000049003E+03  0.28686381014E+03  0.16500000000E+03 0.  0.
<mgrwt>
<rscale>  0 0.36290133E+03</rscale>
<asrwt>0</asrwt>
<pdfrwt beam="1">  1        2 0.12081287E-01 0.36290133E+03</pdfrwt>
<pdfrwt beam="2">  1       -2 0.55617037E-01 0.36290133E+03</pdfrwt>
<totfact> 0.15779299E+03</totfact>
</mgrwt>
</event>
<event>
 4    1  0.3541639E-005  0.6260815E+03  0.7818608E-02  0.9852725E-01
         -2   -1    0    0    0  501 -0.00000000000E+00  0.00000000000E+00  0.28634778115E+03  0.28634778116E+03  0.25500000000E-02 0. -1.
          2   -1    0    0  501    0  0.00000000000E+00 -0.00000000000E+00 -0.34222199888E+03  0.34222199889E+03  0.25500000000E-02 0.  1.
    5000001    1    1    2    0    0 -0.16618291848E+03 -0.12692419851E+03  0.13716401390E+03  0.29960888050E+03  0.16500000000E+03 0.  0.
   -5000001    1    1    2    0    0  0.16618291848E+03  0.12692419851E+03 -0.19303823164E+03  0.32896089956E+03  0.16500000000E+03 0.  0.
<mgrwt>
<rscale>  0 0.62608150E+03</rscale>
<asrwt>0</asrwt>
<pdfrwt beam="1">  1        2 0.48888857E-01 0.62608150E+03</pdfrwt>
<pdfrwt beam="2">  1       -2 0.40906826E-01 0.62608150E+03</pdfrwt>
<totfact> 0.58661400E+02</totfact>
</mgrwt>
</event>
<event>
 4    1  0.3541639E-005  0.4529399E+03  0.7818608E-02  0.1026849E+00
         -2   -1    0    0    0  501 -0.00000000000E+00  0.00000000000E+00  0.12612503906E+03  0.12612503908E+03  0.25500000000E-02 0. -1.
          2   -1    0    0  501    0  0.00000000000E+00 -0.00000000000E+00 -0.40664909247E+03  0.40664909248E+03  0.25500000000E-02 0.  1.
    5000001    1    1    2    0    0  0.17649704166E+02  0.14748765136E+03 -0.87664572497E+02  0.23869268240E+03  0.16500000000E+03 0.  0.
   -5000001    1    1    2    0    0 -0.17649704166E+02 -0.14748765136E+03 -0.19285948092E+03  0.29408144916E+03  0.16500000000E+03 0.  0.
<mgrwt>
<rscale>  0 0.45293988E+03</rscale>
<asrwt>0</asrwt>
<pdfrwt beam="1">  1        2 0.58092727E-01 0.45293988E+03</pdfrwt>
<pdfrwt beam="2">  1       -2 0.18017863E-01 0.45293988E+03</pdfrwt>
<totfact> 0.21548873E+03</totfact>
</mgrwt>
</event>
<event>
 4    1  0.3541639E-005  0.4753418E+03  0.7818608E-02  0.1020423E+00
          2   -1    0    0  501    0  0.00000000000E+00  0.00000000000E+00  0.39940352300E+04  0.39940352300E+04  0.25500000000E-02 0.  1.
         -2   -1    0    0    0  501 -0.00000000000E+00 -0.00000000000E+00 -0.14142953470E+02  0.14142953700E+02  0.25500000000E-02 0. -1.
    5000001    1    1    2    0    0  0.12944211780E+02  0.10090768052E+03  0.31495668841E+04  0.31555263380E+04  0.16500000000E+03 0.  0.
   -5000001    1    1    2    0    0 -0.12944211780E+02 -0.10090768052E+03  0.83032539248E+03  0.85265184572E+03  0.16500000000E+03 0.  0.
<mgrwt>
<rscale>  0 0.47534179E+03</rscale>
<asrwt>0</asrwt>
<pdfrwt beam="1">  1        2 0.57057733E+00 0.47534179E+03</pdfrwt>
<pdfrwt beam="2">  1       -2 0.20204189E-02 0.47534179E+03</pdfrwt>
<totfact> 0.53402036E+02</totfact>
</mgrwt>
</event>
<event>
 4    1  0.3541639E-005  0.5174223E+03  0.7818608E-02  0.1009329E+00
         -2   -1    0    0    0  501 -0.00000000000E+00  0.00000000000E+00  0.18844326505E+03  0.18844326507E+03  0.25500000000E-02 0. -1.
          2   -1    0    0  501    0  0.00000000000E+00 -0.00000000000E+00 -0.35518099337E+03  0.35518099338E+03  0.25500000000E-02 0.  1.
    5000001    1    1    2    0    0 -0.15188954610E+03 -0.81639788987E+01 -0.21860937729E+03  0.31329242667E+03  0.16500000000E+03 0.  0.
   -5000001    1    1    2    0    0  0.15188954610E+03  0.81639788987E+01  0.51871648977E+02  0.23033183178E+03  0.16500000000E+03 0.  0.
<mgrwt>
<rscale>  0 0.51742233E+03</rscale>
<asrwt>0</asrwt>
<pdfrwt beam="1">  1        2 0.50740142E-01 0.51742233E+03</pdfrwt>
<pdfrwt beam="2">  1       -2 0.26920467E-01 0.51742233E+03</pdfrwt>
<totfact> 0.12363586E+03</totfact>
</mgrwt>
</event>
<event>
 4    1  0.3541639E-005  0.7139352E+03  0.7818608E-02  0.9693693E-01
          2   -1    0    0  501    0  0.00000000000E+00  0.00000000000E+00  0.72655562899E+03  0.72655562900E+03  0.25500000000E-02 0.  1.
         -2   -1    0    0    0  501 -0.00000000000E+00 -0.00000000000E+00 -0.17538351944E+03  0.17538351945E+03  0.25500000000E-02 0. -1.
    5000001    1    1    2    0    0 -0.13203670384E+03  0.23025760740E+03  0.57688742029E+02  0.31781322799E+03  0.16500000000E+03 0.  0.
   -5000001    1    1    2    0    0  0.13203670384E+03 -0.23025760740E+03  0.49348336753E+03  0.58412592046E+03  0.16500000000E+03 0.  0.
<mgrwt>
<rscale>  0 0.71393524E+03</rscale>
<asrwt>0</asrwt>
<pdfrwt beam="1">  1        2 0.10379366E+00 0.71393524E+03</pdfrwt>
<pdfrwt beam="2">  1       -2 0.25054788E-01 0.71393524E+03</pdfrwt>
<totfact> 0.61560497E+02</totfact>
</mgrwt>
</event>
<event>
 4    1  0.3541639E-005  0.4403822E+03  0.7818608E-02  0.1030630E+00
         -2   -1    0    0    0  501 -0.00000000000E+00  0.00000000000E+00  0.26566229396E+02  0.26566229518E+02  0.25500000000E-02 0. -1.
          2   -1    0    0  501    0  0.00000000000E+00 -0.00000000000E+00 -0.18250286774E+04  0.18250286774E+04  0.25500000000E-02 0.  1.
    5000001    1    1    2    0    0  0.10103430945E+03  0.27397954924E+02 -0.13259545701E+04  0.13402757558E+04  0.16500000000E+03 0.  0.
   -5000001    1    1    2    0    0 -0.10103430945E+03 -0.27397954924E+02 -0.47250787791E+03  0.51131915113E+03  0.16500000000E+03 0.  0.
<mgrwt>
<rscale>  0 0.44038225E+03</rscale>
<asrwt>0</asrwt>
<pdfrwt beam="1">  1        2 0.26071830E+00 0.44038225E+03</pdfrwt>
<pdfrwt beam="2">  1       -2 0.37951768E-02 0.44038225E+03</pdfrwt>
<totfact> 0.31923575E+03</totfact>
</mgrwt>
</event>
<event>
 4    1  0.3541639E-005  0.4169915E+03  0.7818608E-02  0.1038050E+00
          2   -1    0    0  501    0  0.00000000000E+00  0.00000000000E+00  0.31594928047E+04  0.31594928047E+04  0.25500000000E-02 0.  1.
         -2   -1    0    0    0  501 -0.00000000000E+00 -0.00000000000E+00 -0.13758686604E+02  0.13758686840E+02  0.25500000000E-02 0. -1.
    5000001    1    1    2    0    0  0.99359324541E+02  0.79537436064E+02  0.16250335996E+04  0.16383399155E+04  0.16500000000E+03 0.  0.
   -5000001    1    1    2    0    0 -0.99359324541E+02 -0.79537436064E+02  0.15207005185E+04  0.15349115760E+04  0.16500000000E+03 0.  0.
<mgrwt>
<rscale>  0 0.41699147E+03</rscale>
<asrwt>0</asrwt>
<pdfrwt beam="1">  1        2 0.45135606E+00 0.41699147E+03</pdfrwt>
<pdfrwt beam="2">  1       -2 0.19655269E-02 0.41699147E+03</pdfrwt>
<totfact> 0.17784065E+03</totfact>
</mgrwt>
</event>
<event>
 4    1  0.3541639E-005  0.1378189E+04  0.7818608E-02  0.8969760E-01
         -2   -1    0    0    0  501 -0.00000000000E+00  0.00000000000E+00  0.34872399241E+03  0.34872399242E+03  0.25500000000E-02 0. -1.
          2   -1    0    0  501    0  0.00000000000E+00 -0.00000000000E+00 -0.13616818745E+04  0.13616818745E+04  0.25500000000E-02 0.  1.
    5000001    1    1    2    0    0 -0.90049351410E+02  0.60444307155E+03 -0.84445999991E+03  0.10553662890E+04  0.16500000000E+03 0.  0.
   -5000001    1    1    2    0    0  0.90049351410E+02 -0.60444307155E+03 -0.16849788222E+03  0.65503957800E+03  0.16500000000E+03 0.  0.
<mgrwt>
<rscale>  0 0.13781889E+04</rscale>
<asrwt>0</asrwt>
<pdfrwt beam="1">  1        2 0.19452598E+00 0.13781889E+04</pdfrwt>
<pdfrwt beam="2">  1       -2 0.49817714E-01 0.13781889E+04</pdfrwt>
<totfact> 0.64565441E+01</totfact>
</mgrwt>
</event>
<event>
 4    1  0.3541639E-005  0.5236057E+03  0.7818608E-02  0.1007795E+00
          2   -1    0    0  501    0  0.00000000000E+00  0.00000000000E+00  0.36451553458E+03  0.36451553459E+03  0.25500000000E-02 0.  1.
         -2   -1    0    0    0  501 -0.00000000000E+00 -0.00000000000E+00 -0.18803238848E+03  0.18803238850E+03  0.25500000000E-02 0. -1.
    5000001    1    1    2    0    0 -0.17874844117E+03  0.66975835352E+02  0.16195204325E+03  0.29981699761E+03  0.16500000000E+03 0.  0.
   -5000001    1    1    2    0    0  0.17874844117E+03 -0.66975835352E+02  0.14531102847E+02  0.25273092548E+03  0.16500000000E+03 0.  0.
<mgrwt>
<rscale>  0 0.52360568E+03</rscale>
<asrwt>0</asrwt>
<pdfrwt beam="1">  1        2 0.52073648E-01 0.52360568E+03</pdfrwt>
<pdfrwt beam="2">  1       -2 0.26861769E-01 0.52360568E+03</pdfrwt>
<totfact> 0.12062857E+03</totfact>
</mgrwt>
</event>
<event>
 4    1  0.3541639E-005  0.5143504E+03  0.7818608E-02  0.1010100E+00
          2   -1    0    0  501    0  0.00000000000E+00  0.00000000000E+00  0.12785868720E+04  0.12785868720E+04  0.25500000000E-02 0.  1.
         -2   -1    0    0    0  501 -0.00000000000E+00 -0.00000000000E+00 -0.51728267061E+02  0.51728267124E+02  0.25500000000E-02 0. -1.
    5000001    1    1    2    0    0  0.52687340578E+02 -0.17843954306E+03  0.44387796733E+03  0.50879197740E+03  0.16500000000E+03 0.  0.
   -5000001    1    1    2    0    0 -0.52687340578E+02  0.17843954306E+03  0.78298063759E+03  0.82152316171E+03  0.16500000000E+03 0.  0.
<mgrwt>
<rscale>  0 0.51435040E+03</rscale>
<asrwt>0</asrwt>
<pdfrwt beam="1">  1        2 0.18265525E+00 0.51435040E+03</pdfrwt>
<pdfrwt beam="2">  1       -2 0.73897530E-02 0.51435040E+03</pdfrwt>
<totfact> 0.21733318E+03</totfact>
</mgrwt>
</event>
<event>
 4    1  0.3541639E-005  0.4620284E+03  0.7818608E-02  0.1024195E+00
          2   -1    0    0  501    0  0.00000000000E+00  0.00000000000E+00  0.31296681536E+03  0.31296681537E+03  0.25500000000E-02 0.  1.
         -2   -1    0    0    0  501 -0.00000000000E+00 -0.00000000000E+00 -0.17052150039E+03  0.17052150041E+03  0.25500000000E-02 0. -1.
    5000001    1    1    2    0    0 -0.93180285679E+02 -0.57390484589E+02  0.19577332595E+03  0.27843927258E+03  0.16500000000E+03 0.  0.
   -5000001    1    1    2    0    0  0.93180285679E+02  0.57390484589E+02 -0.53328010983E+02  0.20504904320E+03  0.16500000000E+03 0.  0.
<mgrwt>
<rscale>  0 0.46202844E+03</rscale>
<asrwt>0</asrwt>
<pdfrwt beam="1">  1        2 0.44709544E-01 0.46202844E+03</pdfrwt>
<pdfrwt beam="2">  1       -2 0.24360215E-01 0.46202844E+03</pdfrwt>
<totfact> 0.16986322E+03</totfact>
</mgrwt>
</event>
<event>
 4    1  0.3541639E-005  0.6089530E+03  0.7818608E-02  0.9887004E-01
         -2   -1    0    0    0  501 -0.00000000000E+00  0.00000000000E+00  0.62374134910E+02  0.62374134962E+02  0.25500000000E-02 0. -1.
          2   -1    0    0  501    0  0.00000000000E+00 -0.00000000000E+00 -0.14862879656E+04  0.14862879656E+04  0.25500000000E-02 0.  1.
    5000001    1    1    2    0    0 -0.11396383879E+03 -0.14623021727E+03 -0.11605186120E+04  0.11867600776E+04  0.16500000000E+03 0.  0.
   -5000001    1    1    2    0    0  0.11396383879E+03  0.14623021727E+03 -0.26339521869E+03  0.36190202296E+03  0.16500000000E+03 0.  0.
<mgrwt>
<rscale>  0 0.60895296E+03</rscale>
<asrwt>0</asrwt>
<pdfrwt beam="1">  1        2 0.21232683E+00 0.60895296E+03</pdfrwt>
<pdfrwt beam="2">  1       -2 0.89105916E-02 0.60895296E+03</pdfrwt>
<totfact> 0.12473935E+03</totfact>
</mgrwt>
</event>
<event>
 4    1  0.3541639E-005  0.5638914E+03  0.7818608E-02  0.9983288E-01
         -2   -1    0    0    0  501 -0.00000000000E+00  0.00000000000E+00  0.52001380072E+02  0.52001380134E+02  0.25500000000E-02 0. -1.
          2   -1    0    0  501    0  0.00000000000E+00 -0.00000000000E+00 -0.15286783933E+04  0.15286783933E+04  0.25500000000E-02 0.  1.
    5000001    1    1    2    0    0  0.10065331008E+03 -0.20479083963E+03 -0.69889356989E+03  0.75349027788E+03  0.16500000000E+03 0.  0.
   -5000001    1    1    2    0    0 -0.10065331008E+03  0.20479083963E+03 -0.77778344332E+03  0.82718949554E+03  0.16500000000E+03 0.  0.
<mgrwt>
<rscale>  0 0.56389143E+03</rscale>
<asrwt>0</asrwt>
<pdfrwt beam="1">  1        2 0.21838260E+00 0.56389143E+03</pdfrwt>
<pdfrwt beam="2">  1       -2 0.74287696E-02 0.56389143E+03</pdfrwt>
<totfact> 0.15871519E+03</totfact>
</mgrwt>
</event>
<event>
 4    1  0.3541639E-005  0.8061705E+03  0.7818608E-02  0.9551128E-01
          2   -1    0    0  501    0  0.00000000000E+00  0.00000000000E+00  0.46810722344E+03  0.46810722345E+03  0.25500000000E-02 0.  1.
         -2   -1    0    0    0  501 -0.00000000000E+00 -0.00000000000E+00 -0.34709508350E+03  0.34709508351E+03  0.25500000000E-02 0. -1.
    5000001    1    1    2    0    0 -0.19281349738E+03  0.30956778159E+03  0.10840189216E+03  0.41471101552E+03  0.16500000000E+03 0.  0.
   -5000001    1    1    2    0    0  0.19281349738E+03 -0.30956778159E+03  0.12610247780E+02  0.40049129144E+03  0.16500000000E+03 0.  0.
<mgrwt>
<rscale>  0 0.80617049E+03</rscale>
<asrwt>0</asrwt>
<pdfrwt beam="1">  1        2 0.66872461E-01 0.80617049E+03</pdfrwt>
<pdfrwt beam="2">  1       -2 0.49585012E-01 0.80617049E+03</pdfrwt>
<totfact> 0.28037893E+02</totfact>
</mgrwt>
</event>
<event>
 4    1  0.3541639E-005  0.6241545E+03  0.7818608E-02  0.9856523E-01
          2   -1    0    0  501    0  0.00000000000E+00  0.00000000000E+00  0.19709117984E+04  0.19709117984E+04  0.25500000000E-02 0.  1.
         -2   -1    0    0    0  501 -0.00000000000E+00 -0.00000000000E+00 -0.49414798423E+02  0.49414798489E+02  0.25500000000E-02 0. -1.
    5000001    1    1    2    0    0  0.20896440159E+03  0.15253758034E+03  0.77668931364E+03  0.83510785200E+03  0.16500000000E+03 0.  0.
   -5000001    1    1    2    0    0 -0.20896440159E+03 -0.15253758034E+03  0.11448076863E+04  0.11852187449E+04  0.16500000000E+03 0.  0.
<mgrwt>
<rscale>  0 0.62415450E+03</rscale>
<asrwt>0</asrwt>
<pdfrwt beam="1">  1        2 0.28155877E+00 0.62415450E+03</pdfrwt>
<pdfrwt beam="2">  1       -2 0.70592583E-02 0.62415450E+03</pdfrwt>
<totfact> 0.10232793E+03</totfact>
</mgrwt>
</event>
<event>
 4    1  0.3541639E-005  0.4397235E+03  0.7818608E-02  0.1030832E+00
          2   -1    0    0  501    0  0.00000000000E+00  0.00000000000E+00  0.11711184062E+04  0.11711184062E+04  0.25500000000E-02 0.  1.
         -2   -1    0    0    0  501 -0.00000000000E+00 -0.00000000000E+00 -0.41276083860E+02  0.41276083938E+02  0.25500000000E-02 0. -1.
    5000001    1    1    2    0    0 -0.10069393376E+03 -0.15291289747E+02  0.27916968373E+03  0.33990263922E+03  0.16500000000E+03 0.  0.
   -5000001    1    1    2    0    0  0.10069393376E+03  0.15291289747E+02  0.85067263863E+03  0.87249185094E+03  0.16500000000E+03 0.  0.
<mgrwt>
<rscale>  0 0.43972347E+03</rscale>
<asrwt>0</asrwt>
<pdfrwt beam="1">  1        2 0.16730258E+00 0.43972347E+03</pdfrwt>
<pdfrwt beam="2">  1       -2 0.58965850E-02 0.43972347E+03</pdfrwt>
<totfact> 0.35481996E+03</totfact>
</mgrwt>
</event>
<event>
 4    1  0.3541639E-005  0.4287456E+03  0.7818608E-02  0.1034257E+00
         -2   -1    0    0    0  501 -0.00000000000E+00  0.00000000000E+00  0.11010124192E+03  0.11010124195E+03  0.25500000000E-02 0. -1.
          2   -1    0    0  501    0  0.00000000000E+00 -0.00000000000E+00 -0.41739492562E+03  0.41739492562E+03  0.25500000000E-02 0.  1.
    5000001    1    1    2    0    0 -0.93368906756E+02 -0.99959450417E+02 -0.15929230371E+03  0.26703685606E+03  0.16500000000E+03 0.  0.
   -5000001    1    1    2    0    0  0.93368906756E+02  0.99959450417E+02 -0.14800137998E+03  0.26045931151E+03  0.16500000000E+03 0.  0.
<mgrwt>
<rscale>  0 0.42874561E+03</rscale>
<asrwt>0</asrwt>
<pdfrwt beam="1">  1        2 0.59627846E-01 0.42874561E+03</pdfrwt>
<pdfrwt beam="2">  1       -2 0.15728749E-01 0.42874561E+03</pdfrwt>
<totfact> 0.26337895E+03</totfact>
</mgrwt>
</event>
<event>
 4    1  0.3541639E-005  0.5949633E+03  0.7818608E-02  0.9915911E-01
          2   -1    0    0  501    0  0.00000000000E+00  0.00000000000E+00  0.76660438836E+03  0.76660438836E+03  0.25500000000E-02 0.  1.
         -2   -1    0    0    0  501 -0.00000000000E+00 -0.00000000000E+00 -0.11543806569E+03  0.11543806571E+03  0.25500000000E-02 0. -1.
    5000001    1    1    2    0    0  0.70109141454E+02  0.21435306183E+03  0.47682738969E+03  0.55267701815E+03  0.16500000000E+03 0.  0.
   -5000001    1    1    2    0    0 -0.70109141454E+02 -0.21435306183E+03  0.17433893298E+03  0.32936543593E+03  0.16500000000E+03 0.  0.
<mgrwt>
<rscale>  0 0.59496329E+03</rscale>
<asrwt>0</asrwt>
<pdfrwt beam="1">  1        2 0.10951492E+00 0.59496329E+03</pdfrwt>
<pdfrwt beam="2">  1       -2 0.16491152E-01 0.59496329E+03</pdfrwt>
<totfact> 0.11994522E+03</totfact>
</mgrwt>
</event>
<event>
 4    1  0.3541639E-005  0.5046106E+03  0.7818608E-02  0.1012582E+00
         -2   -1    0    0    0  501 -0.00000000000E+00  0.00000000000E+00  0.50406549485E+02  0.50406549550E+02  0.25500000000E-02 0.  1.
          2   -1    0    0  501    0  0.00000000000E+00 -0.00000000000E+00 -0.12628904912E+04  0.12628904912E+04  0.25500000000E-02 0. -1.
    5000001    1    1    2    0    0 -0.17252398640E+03 -0.29551636372E+02 -0.80436644059E+03  0.83956428928E+03  0.16500000000E+03 0.  0.
   -5000001    1    1    2    0    0  0.17252398640E+03  0.29551636372E+02 -0.40811750117E+03  0.47373275151E+03  0.16500000000E+03 0.  0.
<mgrwt>
<rscale>  0 0.50461055E+03</rscale>
<asrwt>0</asrwt>
<pdfrwt beam="1">  1        2 0.18041291E+00 0.50461055E+03</pdfrwt>
<pdfrwt beam="2">  1       -2 0.72009365E-02 0.50461055E+03</pdfrwt>
<totfact> 0.23092995E+03</totfact>
</mgrwt>
</event>
<event>
 4    1  0.3541639E-005  0.3871066E+03  0.7818608E-02  0.1048338E+00
         -2   -1    0    0    0  501 -0.00000000000E+00  0.00000000000E+00  0.28876603750E+02  0.28876603863E+02  0.25500000000E-02 0. -1.
          2   -1    0    0  501    0  0.00000000000E+00 -0.00000000000E+00 -0.12973437754E+04  0.12973437754E+04  0.25500000000E-02 0.  1.
    5000001    1    1    2    0    0 -0.83265561275E+02  0.21756591471E+02 -0.81653252016E+03  0.83747051258E+03  0.16500000000E+03 0.  0.
   -5000001    1    1    2    0    0  0.83265561275E+02 -0.21756591471E+02 -0.45193465152E+03  0.48874986671E+03  0.16500000000E+03 0.  0.
<mgrwt>
<rscale>  0 0.38710661E+03</rscale>
<asrwt>0</asrwt>
<pdfrwt beam="1">  1        2 0.18533479E+00 0.38710661E+03</pdfrwt>
<pdfrwt beam="2">  1       -2 0.41252299E-02 0.38710661E+03</pdfrwt>
<totfact> 0.52360781E+03</totfact>
</mgrwt>
</event>
<event>
 4    1  0.3541639E-005  0.1030021E+04  0.7818608E-02  0.9276217E-01
         -2   -1    0    0    0  501 -0.00000000000E+00  0.00000000000E+00  0.15160978228E+03  0.15160978231E+03  0.25500000000E-02 0. -1.
          2   -1    0    0  501    0  0.00000000000E+00 -0.00000000000E+00 -0.17494652203E+04  0.17494652203E+04  0.25500000000E-02 0.  1.
    5000001    1    1    2    0    0 -0.43269716679E+03 -0.19245948749E+03 -0.58255503612E+03  0.76867604528E+03  0.16500000000E+03 0.  0.
   -5000001    1    1    2    0    0  0.43269716679E+03  0.19245948749E+03 -0.10153004019E+04  0.11323989574E+04  0.16500000000E+03 0.  0.
<mgrwt>
<rscale>  0 0.10300214E+04</rscale>
<asrwt>0</asrwt>
<pdfrwt beam="1">  1        2 0.24992359E+00 0.10300214E+04</pdfrwt>
<pdfrwt beam="2">  1       -2 0.21658541E-01 0.10300214E+04</pdfrwt>
<totfact> 0.19986868E+02</totfact>
</mgrwt>
</event>
<event>
 4    1  0.3541639E-005  0.4073226E+03  0.7818608E-02  0.1041273E+00
         -2   -1    0    0    0  501 -0.00000000000E+00  0.00000000000E+00  0.36481239870E+02  0.36481239959E+02  0.25500000000E-02 0. -1.
          2   -1    0    0  501    0  0.00000000000E+00 -0.00000000000E+00 -0.11369658176E+04  0.11369658176E+04  0.25500000000E-02 0.  1.
    5000001    1    1    2    0    0 -0.61167224537E+02  0.93130598337E+02 -0.42672731181E+03  0.47088845426E+03  0.16500000000E+03 0.  0.
   -5000001    1    1    2    0    0  0.61167224537E+02 -0.93130598337E+02 -0.67375726593E+03  0.70255860332E+03  0.16500000000E+03 0.  0.
<mgrwt>
<rscale>  0 0.40732259E+03</rscale>
<asrwt>0</asrwt>
<pdfrwt beam="1">  1        2 0.16242367E+00 0.40732259E+03</pdfrwt>
<pdfrwt beam="2">  1       -2 0.52116064E-02 0.40732259E+03</pdfrwt>
<totfact> 0.44863254E+03</totfact>
</mgrwt>
</event>
<event>
 4    1  0.3541639E-005  0.1143863E+04  0.7818608E-02  0.9163464E-01
         -2   -1    0    0    0  501 -0.00000000000E+00  0.00000000000E+00  0.29576358112E+03  0.29576358113E+03  0.25500000000E-02 0.  1.
          2   -1    0    0  501    0  0.00000000000E+00 -0.00000000000E+00 -0.11059697956E+04  0.11059697956E+04  0.25500000000E-02 0. -1.
    5000001    1    1    2    0    0  0.31510272612E+03 -0.28332178652E+03 -0.83017234065E+03  0.94655801614E+03  0.16500000000E+03 0.  0.
   -5000001    1    1    2    0    0 -0.31510272612E+03  0.28332178652E+03  0.19966126134E+02  0.45517536063E+03  0.16500000000E+03 0.  0.
<mgrwt>
<rscale>  0 0.11438629E+04</rscale>
<asrwt>0</asrwt>
<pdfrwt beam="1">  1        2 0.15799568E+00 0.11438629E+04</pdfrwt>
<pdfrwt beam="2">  1       -2 0.42251941E-01 0.11438629E+04</pdfrwt>
<totfact> 0.12730597E+02</totfact>
</mgrwt>
</event>
<event>
 4    1  0.3541639E-005  0.5316818E+03  0.7818608E-02  0.1005825E+00
          2   -1    0    0  501    0  0.00000000000E+00  0.00000000000E+00  0.15514556106E+04  0.15514556106E+04  0.25500000000E-02 0.  1.
         -2   -1    0    0    0  501 -0.00000000000E+00 -0.00000000000E+00 -0.45551666163E+02  0.45551666235E+02  0.25500000000E-02 0. -1.
    5000001    1    1    2    0    0 -0.20248781603E+03 -0.38716871544E+02  0.84534052695E+03  0.88562176932E+03  0.16500000000E+03 0.  0.
   -5000001    1    1    2    0    0  0.20248781603E+03  0.38716871544E+02  0.66056341744E+03  0.71138550747E+03  0.16500000000E+03 0.  0.
<mgrwt>
<rscale>  0 0.53168181E+03</rscale>
<asrwt>0</asrwt>
<pdfrwt beam="1">  1        2 0.22163654E+00 0.53168181E+03</pdfrwt>
<pdfrwt beam="2">  1       -2 0.65073803E-02 0.53168181E+03</pdfrwt>
<totfact> 0.19052245E+03</totfact>
</mgrwt>
</event>
<event>
 4    1  0.3541639E-005  0.4126237E+03  0.7818608E-02  0.1039494E+00
         -2   -1    0    0    0  501 -0.00000000000E+00  0.00000000000E+00  0.30746363115E+02  0.30746363221E+02  0.25500000000E-02 0. -1.
          2   -1    0    0  501    0  0.00000000000E+00 -0.00000000000E+00 -0.13843774411E+04  0.13843774411E+04  0.25500000000E-02 0.  1.
    5000001    1    1    2    0    0  0.12118833771E+03 -0.17451324525E+02 -0.61280000213E+03  0.64632809357E+03  0.16500000000E+03 0.  0.
   -5000001    1    1    2    0    0 -0.12118833771E+03  0.17451324525E+02 -0.74083107584E+03  0.76879571074E+03  0.16500000000E+03 0.  0.
<mgrwt>
<rscale>  0 0.41262366E+03</rscale>
<asrwt>0</asrwt>
<pdfrwt beam="1">  1        2 0.19776817E+00 0.41262366E+03</pdfrwt>
<pdfrwt beam="2">  1       -2 0.43923385E-02 0.41262366E+03</pdfrwt>
<totfact> 0.42810713E+03</totfact>
</mgrwt>
</event>
<event>
 4    1  0.3541639E-005  0.4770368E+03  0.7818608E-02  0.1019953E+00
          2   -1    0    0  501    0  0.00000000000E+00  0.00000000000E+00  0.16478174357E+04  0.16478174357E+04  0.25500000000E-02 0.  1.
         -2   -1    0    0    0  501 -0.00000000000E+00 -0.00000000000E+00 -0.34525078865E+02  0.34525078960E+02  0.25500000000E-02 0. -1.
    5000001    1    1    2    0    0  0.38712614881E+02 -0.14491312931E+03  0.50807508120E+03  0.55485472850E+03  0.16500000000E+03 0.  0.
   -5000001    1    1    2    0    0 -0.38712614881E+02  0.14491312931E+03  0.11052172757E+04  0.11274877862E+04  0.16500000000E+03 0.  0.
<mgrwt>
<rscale>  0 0.47703680E+03</rscale>
<asrwt>0</asrwt>
<pdfrwt beam="1">  1        2 0.23540255E+00 0.47703680E+03</pdfrwt>
<pdfrwt beam="2">  1       -2 0.49321529E-02 0.47703680E+03</pdfrwt>
<totfact> 0.26212299E+03</totfact>
</mgrwt>
</event>
<event>
 4    1  0.3541639E-005  0.4545287E+03  0.7818608E-02  0.1026380E+00
          2   -1    0    0  501    0  0.00000000000E+00  0.00000000000E+00  0.76440554663E+03  0.76440554664E+03  0.25500000000E-02 0.  1.
         -2   -1    0    0    0  501 -0.00000000000E+00 -0.00000000000E+00 -0.67567642297E+02  0.67567642345E+02  0.25500000000E-02 0. -1.
    5000001    1    1    2    0    0 -0.79829904703E+02 -0.10814082017E+03  0.20248097138E+03  0.29375294797E+03  0.16500000000E+03 0.  0.
   -5000001    1    1    2    0    0  0.79829904703E+02  0.10814082017E+03  0.49435693295E+03  0.53822024101E+03  0.16500000000E+03 0.  0.
<mgrwt>
<rscale>  0 0.45452868E+03</rscale>
<asrwt>0</asrwt>
<pdfrwt beam="1">  1        2 0.10920079E+00 0.45452868E+03</pdfrwt>
<pdfrwt beam="2">  1       -2 0.96525207E-02 0.45452868E+03</pdfrwt>
<totfact> 0.29137718E+03</totfact>
</mgrwt>
</event>
<event>
 4    1  0.3541639E-005  0.4322082E+03  0.7818608E-02  0.1033165E+00
         -2   -1    0    0    0  501 -0.00000000000E+00  0.00000000000E+00  0.12398613051E+03  0.12398613054E+03  0.25500000000E-02 0. -1.
          2   -1    0    0  501    0  0.00000000000E+00 -0.00000000000E+00 -0.37666296929E+03  0.37666296930E+03  0.25500000000E-02 0.  1.
    5000001    1    1    2    0    0  0.97891478950E+02 -0.81653157069E+02 -0.60546447451E+02  0.21711944180E+03  0.16500000000E+03 0.  0.
   -5000001    1    1    2    0    0 -0.97891478950E+02  0.81653157069E+02 -0.19213039133E+03  0.28352965803E+03  0.16500000000E+03 0.  0.
<mgrwt>
<rscale>  0 0.43220821E+03</rscale>
<asrwt>0</asrwt>
<pdfrwt beam="1">  1        2 0.53808995E-01 0.43220821E+03</pdfrwt>
<pdfrwt beam="2">  1       -2 0.17712305E-01 0.43220821E+03</pdfrwt>
<totfact> 0.24124615E+03</totfact>
</mgrwt>
</event>
<event>
 4    1  0.3541639E-005  0.4836723E+03  0.7818608E-02  0.1018131E+00
         -2   -1    0    0    0  501 -0.00000000000E+00  0.00000000000E+00  0.65572822592E+02  0.65572822642E+02  0.25500000000E-02 0. -1.
          2   -1    0    0  501    0  0.00000000000E+00 -0.00000000000E+00 -0.89190487585E+03  0.89190487586E+03  0.25500000000E-02 0.  1.
    5000001    1    1    2    0    0  0.17540043526E+03 -0.20631677155E+01 -0.45699308791E+03  0.51656292138E+03  0.16500000000E+03 0.  0.
   -5000001    1    1    2    0    0 -0.17540043526E+03  0.20631677155E+01 -0.36933896536E+03  0.44091477712E+03  0.16500000000E+03 0.  0.
<mgrwt>
<rscale>  0 0.48367229E+03</rscale>
<asrwt>0</asrwt>
<pdfrwt beam="1">  1        2 0.12741497E+00 0.48367229E+03</pdfrwt>
<pdfrwt beam="2">  1       -2 0.93675466E-02 0.48367229E+03</pdfrwt>
<totfact> 0.25098018E+03</totfact>
</mgrwt>
</event>
<event>
 4    1  0.3541639E-005  0.3735863E+03  0.7818608E-02  0.1053330E+00
          2   -1    0    0  501    0  0.00000000000E+00  0.00000000000E+00  0.13114526100E+04  0.13114526100E+04  0.25500000000E-02 0.  1.
         -2   -1    0    0    0  501 -0.00000000000E+00 -0.00000000000E+00 -0.26605363224E+02  0.26605363346E+02  0.25500000000E-02 0. -1.
    5000001    1    1    2    0    0  0.17142960611E+02 -0.69277812588E+02  0.46073165922E+03  0.49456239063E+03  0.16500000000E+03 0.  0.
   -5000001    1    1    2    0    0 -0.17142960611E+02  0.69277812588E+02  0.82411558753E+03  0.84349558269E+03  0.16500000000E+03 0.  0.
<mgrwt>
<rscale>  0 0.37358626E+03</rscale>
<asrwt>0</asrwt>
<pdfrwt beam="1">  1        2 0.18735040E+00 0.37358626E+03</pdfrwt>
<pdfrwt beam="2">  1       -2 0.38007655E-02 0.37358626E+03</pdfrwt>
<totfact> 0.58251184E+03</totfact>
</mgrwt>
</event>
<event>
 4    1  0.3541639E-005  0.7206216E+03  0.7818608E-02  0.9682602E-01
         -2   -1    0    0    0  501 -0.00000000000E+00  0.00000000000E+00  0.14092479617E+03  0.14092479620E+03  0.25500000000E-02 0. -1.
          2   -1    0    0  501    0  0.00000000000E+00 -0.00000000000E+00 -0.92122808046E+03  0.92122808047E+03  0.25500000000E-02 0.  1.
    5000001    1    1    2    0    0 -0.19945257993E+03  0.18982647181E+03 -0.14893177713E+03  0.35386592839E+03  0.16500000000E+03 0.  0.
   -5000001    1    1    2    0    0  0.19945257993E+03 -0.18982647181E+03 -0.63137150716E+03  0.70828694827E+03  0.16500000000E+03 0.  0.
<mgrwt>
<rscale>  0 0.72062162E+03</rscale>
<asrwt>0</asrwt>
<pdfrwt beam="1">  1        2 0.13160401E+00 0.72062162E+03</pdfrwt>
<pdfrwt beam="2">  1       -2 0.20132114E-01 0.72062162E+03</pdfrwt>
<totfact> 0.66682767E+02</totfact>
</mgrwt>
</event>
<event>
 4    1  0.3541639E-005  0.5295448E+03  0.7818608E-02  0.1006343E+00
         -2   -1    0    0    0  501 -0.00000000000E+00  0.00000000000E+00  0.19583161323E+03  0.19583161325E+03  0.25500000000E-02 0. -1.
          2   -1    0    0  501    0  0.00000000000E+00 -0.00000000000E+00 -0.35798315430E+03  0.35798315431E+03  0.25500000000E-02 0.  1.
    5000001    1    1    2    0    0 -0.11020413464E+03  0.14826039069E+03  0.16771415313E+02  0.24825868587E+03  0.16500000000E+03 0.  0.
   -5000001    1    1    2    0    0  0.11020413464E+03 -0.14826039069E+03 -0.17892295638E+03  0.30555608169E+03  0.16500000000E+03 0.  0.
<mgrwt>
<rscale>  0 0.52954478E+03</rscale>
<asrwt>0</asrwt>
<pdfrwt beam="1">  1        2 0.51140451E-01 0.52954478E+03</pdfrwt>
<pdfrwt beam="2">  1       -2 0.27975945E-01 0.52954478E+03</pdfrwt>
<totfact> 0.11430111E+03</totfact>
</mgrwt>
</event>
<event>
 4    1  0.3541639E-005  0.6060885E+03  0.7818608E-02  0.9892854E-01
          2   -1    0    0  501    0  0.00000000000E+00  0.00000000000E+00  0.16622898018E+04  0.16622898018E+04  0.25500000000E-02 0.  1.
         -2   -1    0    0    0  501 -0.00000000000E+00 -0.00000000000E+00 -0.55246573564E+02  0.55246573622E+02  0.25500000000E-02 0. -1.
    5000001    1    1    2    0    0  0.65036665004E+02 -0.18065192368E+03  0.12755515597E+04  0.13004313388E+04  0.16500000000E+03 0.  0.
   -5000001    1    1    2    0    0 -0.65036665004E+02  0.18065192368E+03  0.33149166856E+03  0.41710503671E+03  0.16500000000E+03 0.  0.
<mgrwt>
<rscale>  0 0.60608849E+03</rscale>
<asrwt>0</asrwt>
<pdfrwt beam="1">  1        2 0.23746995E+00 0.60608849E+03</pdfrwt>
<pdfrwt beam="2">  1       -2 0.78923685E-02 0.60608849E+03</pdfrwt>
<totfact> 0.12288819E+03</totfact>
</mgrwt>
</event>
<event>
 4    1  0.3541639E-005  0.6889506E+03  0.7818608E-02  0.9736317E-01
         -2   -1    0    0    0  501 -0.00000000000E+00  0.00000000000E+00  0.71383021077E+03  0.71383021078E+03  0.25500000000E-02 0.  1.
          2   -1    0    0  501    0  0.00000000000E+00 -0.00000000000E+00 -0.16623451559E+03  0.16623451561E+03  0.25500000000E-02 0. -1.
    5000001    1    1    2    0    0 -0.13177463292E+03 -0.18666402967E+03  0.20788336771E+02  0.28260426182E+03  0.16500000000E+03 0.  0.
   -5000001    1    1    2    0    0  0.13177463292E+03  0.18666402967E+03  0.52680735841E+03  0.59746046457E+03  0.16500000000E+03 0.  0.
<mgrwt>
<rscale>  0 0.68895056E+03</rscale>
<asrwt>0</asrwt>
<pdfrwt beam="1">  1        2 0.23747788E-01 0.68895056E+03</pdfrwt>
<pdfrwt beam="2">  1       -2 0.10197574E+00 0.68895056E+03</pdfrwt>
<totfact> 0.18524229E+02</totfact>
</mgrwt>
</event>
<event>
 4    1  0.3541639E-005  0.4362386E+03  0.7818608E-02  0.1031907E+00
          2   -1    0    0  501    0  0.00000000000E+00  0.00000000000E+00  0.39147451062E+03  0.39147451063E+03  0.25500000000E-02 0.  1.
         -2   -1    0    0    0  501 -0.00000000000E+00 -0.00000000000E+00 -0.12153035501E+03  0.12153035504E+03  0.25500000000E-02 0. -1.
    5000001    1    1    2    0    0  0.10465088938E+03  0.87205143826E+02  0.18478797342E+03  0.28271565375E+03  0.16500000000E+03 0.  0.
   -5000001    1    1    2    0    0 -0.10465088938E+03 -0.87205143826E+02  0.85156182196E+02  0.23028921191E+03  0.16500000000E+03 0.  0.
<mgrwt>
<rscale>  0 0.43623863E+03</rscale>
<asrwt>0</asrwt>
<pdfrwt beam="1">  1        2 0.55924930E-01 0.43623863E+03</pdfrwt>
<pdfrwt beam="2">  1       -2 0.17361479E-01 0.43623863E+03</pdfrwt>
<totfact> 0.23926760E+03</totfact>
</mgrwt>
</event>
<event>
 4    1  0.3541639E-005  0.5492203E+03  0.7818608E-02  0.1001675E+00
         -2   -1    0    0    0  501 -0.00000000000E+00  0.00000000000E+00  0.22980723389E+03  0.22980723390E+03  0.25500000000E-02 0.  1.
          2   -1    0    0  501    0  0.00000000000E+00 -0.00000000000E+00 -0.32814772895E+03  0.32814772896E+03  0.25500000000E-02 0. -1.
    5000001    1    1    2    0    0  0.72469075774E+02  0.20610742523E+03 -0.70808861499E+02  0.28279132332E+03  0.16500000000E+03 0.  0.
   -5000001    1    1    2    0    0 -0.72469075774E+02 -0.20610742523E+03 -0.27531633563E+02  0.27516363954E+03  0.16500000000E+03 0.  0.
<mgrwt>
<rscale>  0 0.54922025E+03</rscale>
<asrwt>0</asrwt>
<pdfrwt beam="1">  1        2 0.46878247E-01 0.54922025E+03</pdfrwt>
<pdfrwt beam="2">  1       -2 0.32829605E-01 0.54922025E+03</pdfrwt>
<totfact> 0.93615519E+02</totfact>
</mgrwt>
</event>
<event>
 4    1  0.3541639E-005  0.4628444E+03  0.7818608E-02  0.1023959E+00
          2   -1    0    0  501    0  0.00000000000E+00  0.00000000000E+00  0.49042262278E+02  0.49042262345E+02  0.25500000000E-02 0.  1.
         -2   -1    0    0    0  501 -0.00000000000E+00 -0.00000000000E+00 -0.10920424603E+04  0.10920424603E+04  0.25500000000E-02 0. -1.
    5000001    1    1    2    0    0  0.13056755025E+03  0.11121560403E+02 -0.75745148140E+03  0.78621200764E+03  0.16500000000E+03 0.  0.
   -5000001    1    1    2    0    0 -0.13056755025E+03 -0.11121560403E+02 -0.28554871658E+03  0.35487271496E+03  0.16500000000E+03 0.  0.
<mgrwt>
<rscale>  0 0.46284439E+03</rscale>
<asrwt>0</asrwt>
<pdfrwt beam="1">  1        2 0.70060381E-02 0.46284439E+03</pdfrwt>
<pdfrwt beam="2">  1       -2 0.15600605E+00 0.46284439E+03</pdfrwt>
<totfact> 0.28930243E+02</totfact>
</mgrwt>
</event>
<event>
 4    1  0.3541639E-005  0.6257701E+03  0.7818608E-02  0.9853338E-01
          2   -1    0    0  501    0  0.00000000000E+00  0.00000000000E+00  0.10699459125E+04  0.10699459125E+04  0.25500000000E-02 0.  1.
         -2   -1    0    0    0  501 -0.00000000000E+00 -0.00000000000E+00 -0.91497208569E+02  0.91497208604E+02  0.25500000000E-02 0. -1.
    5000001    1    1    2    0    0 -0.25025786115E+02 -0.24099362040E+03  0.69226882487E+03  0.75177479402E+03  0.16500000000E+03 0.  0.
   -5000001    1    1    2    0    0  0.25025786115E+02  0.24099362040E+03  0.28617987909E+03  0.40966832711E+03  0.16500000000E+03 0.  0.
<mgrwt>
<rscale>  0 0.62577013E+03</rscale>
<asrwt>0</asrwt>
<pdfrwt beam="1">  1        2 0.15284940E+00 0.62577013E+03</pdfrwt>
<pdfrwt beam="2">  1       -2 0.13071031E-01 0.62577013E+03</pdfrwt>
<totfact> 0.11306472E+03</totfact>
</mgrwt>
</event>
<event>
 4    1  0.3541639E-005  0.5340160E+03  0.7818608E-02  0.1005263E+00
          2   -1    0    0  501    0  0.00000000000E+00  0.00000000000E+00  0.27808237963E+03  0.27808237964E+03  0.25500000000E-02 0.  1.
         -2   -1    0    0    0  501 -0.00000000000E+00 -0.00000000000E+00 -0.25637463618E+03  0.25637463619E+03  0.25500000000E-02 0. -1.
    5000001    1    1    2    0    0  0.43440994768E+01  0.20458602995E+03 -0.36024475093E+02  0.26532447617E+03  0.16500000000E+03 0.  0.
   -5000001    1    1    2    0    0 -0.43440994768E+01 -0.20458602995E+03  0.57732218544E+02  0.26913253967E+03  0.16500000000E+03 0.  0.
<mgrwt>
<rscale>  0 0.53401599E+03</rscale>
<asrwt>0</asrwt>
<pdfrwt beam="1">  1        2 0.39726054E-01 0.53401599E+03</pdfrwt>
<pdfrwt beam="2">  1       -2 0.36624948E-01 0.53401599E+03</pdfrwt>
<totfact> 0.91365149E+02</totfact>
</mgrwt>
</event>
<event>
 4    1  0.3541639E-005  0.5105481E+03  0.7818608E-02  0.1011062E+00
         -2   -1    0    0    0  501 -0.00000000000E+00  0.00000000000E+00  0.83855626128E+02  0.83855626167E+02  0.25500000000E-02 0. -1.
          2   -1    0    0  501    0  0.00000000000E+00 -0.00000000000E+00 -0.77710755848E+03  0.77710755848E+03  0.25500000000E-02 0.  1.
    5000001    1    1    2    0    0 -0.18375031131E+03 -0.17700196618E+02 -0.45142920078E+03  0.51486968951E+03  0.16500000000E+03 0.  0.
   -5000001    1    1    2    0    0  0.18375031131E+03  0.17700196618E+02 -0.24182273157E+03  0.34609349513E+03  0.16500000000E+03 0.  0.
<mgrwt>
<rscale>  0 0.51054810E+03</rscale>
<asrwt>0</asrwt>
<pdfrwt beam="1">  1        2 0.11101536E+00 0.51054810E+03</pdfrwt>
<pdfrwt beam="2">  1       -2 0.11979376E-01 0.51054810E+03</pdfrwt>
<totfact> 0.20116359E+03</totfact>
</mgrwt>
</event>
<event>
 4    1  0.3541639E-005  0.4825859E+03  0.7818608E-02  0.1018427E+00
         -2   -1    0    0    0  501 -0.00000000000E+00  0.00000000000E+00  0.17739175715E+03  0.17739175717E+03  0.25500000000E-02 0. -1.
          2   -1    0    0  501    0  0.00000000000E+00 -0.00000000000E+00 -0.32821308616E+03  0.32821308617E+03  0.25500000000E-02 0.  1.
    5000001    1    1    2    0    0  0.15166988683E+03 -0.28095107822E+02  0.13515516147E+02  0.22627584677E+03  0.16500000000E+03 0.  0.
   -5000001    1    1    2    0    0 -0.15166988683E+03  0.28095107822E+02 -0.16433684515E+03  0.27932899658E+03  0.16500000000E+03 0.  0.
<mgrwt>
<rscale>  0 0.48258593E+03</rscale>
<asrwt>0</asrwt>
<pdfrwt beam="1">  1        2 0.46887584E-01 0.48258593E+03</pdfrwt>
<pdfrwt beam="2">  1       -2 0.25341680E-01 0.48258593E+03</pdfrwt>
<totfact> 0.15030761E+03</totfact>
</mgrwt>
</event>
<event>
 4    1  0.3541639E-005  0.6869791E+03  0.7818608E-02  0.9739762E-01
         -2   -1    0    0    0  501 -0.00000000000E+00  0.00000000000E+00  0.38025274451E+02  0.38025274536E+02  0.25500000000E-02 0. -1.
          2   -1    0    0  501    0  0.00000000000E+00 -0.00000000000E+00 -0.31028068846E+04  0.31028068846E+04  0.25500000000E-02 0.  1.
    5000001    1    1    2    0    0  0.93881926383E+02  0.15383813236E+03 -0.26361169040E+04  0.26474171033E+04  0.16500000000E+03 0.  0.
   -5000001    1    1    2    0    0 -0.93881926383E+02 -0.15383813236E+03 -0.42866470616E+03  0.49341505589E+03  0.16500000000E+03 0.  0.
<mgrwt>
<rscale>  0 0.68697914E+03</rscale>
<asrwt>0</asrwt>
<pdfrwt beam="1">  1        2 0.44325796E+00 0.68697914E+03</pdfrwt>
<pdfrwt beam="2">  1       -2 0.54321841E-02 0.68697914E+03</pdfrwt>
<totfact> 0.39598992E+02</totfact>
</mgrwt>
</event>
<event>
 4    1  0.3541639E-005  0.9638744E+03  0.7818608E-02  0.9349079E-01
         -2   -1    0    0    0  501 -0.00000000000E+00  0.00000000000E+00  0.16963415435E+03  0.16963415437E+03  0.25500000000E-02 0. -1.
          2   -1    0    0  501    0  0.00000000000E+00 -0.00000000000E+00 -0.13692023686E+04  0.13692023686E+04  0.25500000000E-02 0.  1.
    5000001    1    1    2    0    0 -0.14781587520E+03  0.41642476587E+03 -0.44190400449E+03  0.64634608978E+03  0.16500000000E+03 0.  0.
   -5000001    1    1    2    0    0  0.14781587520E+03 -0.41642476587E+03 -0.75766420974E+03  0.89249043318E+03  0.16500000000E+03 0.  0.
<mgrwt>
<rscale>  0 0.96387444E+03</rscale>
<asrwt>0</asrwt>
<pdfrwt beam="1">  1        2 0.19560033E+00 0.96387444E+03</pdfrwt>
<pdfrwt beam="2">  1       -2 0.24233452E-01 0.96387444E+03</pdfrwt>
<totfact> 0.26026372E+02</totfact>
</mgrwt>
</event>
<event>
 4    1  0.3541639E-005  0.3817857E+03  0.7818608E-02  0.1050276E+00
         -2   -1    0    0    0  501 -0.00000000000E+00  0.00000000000E+00  0.11258993716E+03  0.11258993719E+03  0.25500000000E-02 0. -1.
          2   -1    0    0  501    0  0.00000000000E+00 -0.00000000000E+00 -0.32365299849E+03  0.32365299850E+03  0.25500000000E-02 0.  1.
    5000001    1    1    2    0    0  0.80983587385E+02 -0.47727137437E+02 -0.83291146904E+02  0.20736112516E+03  0.16500000000E+03 0.  0.
   -5000001    1    1    2    0    0 -0.80983587385E+02  0.47727137437E+02 -0.12777191443E+03  0.22888181053E+03  0.16500000000E+03 0.  0.
<mgrwt>
<rscale>  0 0.38178565E+03</rscale>
<asrwt>0</asrwt>
<pdfrwt beam="1">  1        2 0.46236142E-01 0.38178565E+03</pdfrwt>
<pdfrwt beam="2">  1       -2 0.16084277E-01 0.38178565E+03</pdfrwt>
<totfact> 0.33441915E+03</totfact>
</mgrwt>
</event>
<event>
 4    1  0.3541639E-005  0.5327770E+03  0.7818608E-02  0.1005561E+00
          2   -1    0    0  501    0  0.00000000000E+00  0.00000000000E+00  0.77460214137E+03  0.77460214137E+03  0.25500000000E-02 0.  1.
         -2   -1    0    0    0  501 -0.00000000000E+00 -0.00000000000E+00 -0.91611981083E+02  0.91611981119E+02  0.25500000000E-02 0. -1.
    5000001    1    1    2    0    0 -0.99915571533E+02  0.18370111456E+03  0.33672277769E+03  0.42934420916E+03  0.16500000000E+03 0.  0.
   -5000001    1    1    2    0    0  0.99915571533E+02 -0.18370111456E+03  0.34626738259E+03  0.43686991333E+03  0.16500000000E+03 0.  0.
<mgrwt>
<rscale>  0 0.53277701E+03</rscale>
<asrwt>0</asrwt>
<pdfrwt beam="1">  1        2 0.11065745E+00 0.53277701E+03</pdfrwt>
<pdfrwt beam="2">  1       -2 0.13087426E-01 0.53277701E+03</pdfrwt>
<totfact> 0.17458018E+03</totfact>
</mgrwt>
</event>
<event>
 4    1  0.3541639E-005  0.9994321E+03  0.7818608E-02  0.9309168E-01
          2   -1    0    0  501    0  0.00000000000E+00  0.00000000000E+00  0.16014284919E+04  0.16014284919E+04  0.25500000000E-02 0. -1.
         -2   -1    0    0    0  501 -0.00000000000E+00 -0.00000000000E+00 -0.15593337032E+03  0.15593337034E+03  0.25500000000E-02 0.  1.
    5000001    1    1    2    0    0  0.29215934611E+03  0.36880190432E+03  0.78157290121E+03  0.92706694907E+03  0.16500000000E+03 0.  0.
   -5000001    1    1    2    0    0 -0.29215934611E+03 -0.36880190432E+03  0.66392222040E+03  0.83029491320E+03  0.16500000000E+03 0.  0.
<mgrwt>
<rscale>  0 0.99943212E+03</rscale>
<asrwt>0</asrwt>
<pdfrwt beam="1">  1        2 0.22877550E+00 0.99943212E+03</pdfrwt>
<pdfrwt beam="2">  1       -2 0.22276196E-01 0.99943212E+03</pdfrwt>
<totfact> 0.22730739E+02</totfact>
</mgrwt>
</event>
<event>
 4    1  0.3541639E-005  0.1949128E+04  0.7818608E-02  0.8630781E-01
         -2   -1    0    0    0  501 -0.00000000000E+00  0.00000000000E+00  0.50016658820E+03  0.50016658820E+03  0.25500000000E-02 0. -1.
          2   -1    0    0  501    0  0.00000000000E+00 -0.00000000000E+00 -0.18989178515E+04  0.18989178515E+04  0.25500000000E-02 0.  1.
    5000001    1    1    2    0    0 -0.43157436955E+03  0.85395557221E+03 -0.80275022848E+03  0.12598132739E+04  0.16500000000E+03 0.  0.
   -5000001    1    1    2    0    0  0.43157436955E+03 -0.85395557221E+03 -0.59600103484E+03  0.11392711658E+04  0.16500000000E+03 0.  0.
<mgrwt>
<rscale>  0 0.19491283E+04</rscale>
<asrwt>0</asrwt>
<pdfrwt beam="1">  1        2 0.27127398E+00 0.19491283E+04</pdfrwt>
<pdfrwt beam="2">  1       -2 0.71452370E-01 0.19491283E+04</pdfrwt>
<totfact> 0.15050613E+01</totfact>
</mgrwt>
</event>
<event>
 4    1  0.3541639E-005  0.1596319E+04  0.7818608E-02  0.8822812E-01
         -2   -1    0    0    0  501 -0.00000000000E+00  0.00000000000E+00  0.29243514164E+03  0.29243514165E+03  0.25500000000E-02 0. -1.
          2   -1    0    0  501    0  0.00000000000E+00 -0.00000000000E+00 -0.21784621208E+04  0.21784621208E+04  0.25500000000E-02 0.  1.
    5000001    1    1    2    0    0 -0.44591380669E+03  0.37008933589E+03 -0.17532893174E+04  0.18539292516E+04  0.16500000000E+03 0.  0.
   -5000001    1    1    2    0    0  0.44591380669E+03 -0.37008933589E+03 -0.13273766177E+03  0.61696801083E+03  0.16500000000E+03 0.  0.
<mgrwt>
<rscale>  0 0.15963194E+04</rscale>
<asrwt>0</asrwt>
<pdfrwt beam="1">  1        2 0.31120887E+00 0.15963194E+04</pdfrwt>
<pdfrwt beam="2">  1       -2 0.41776450E-01 0.15963194E+04</pdfrwt>
<totfact> 0.33864739E+01</totfact>
</mgrwt>
</event>
<event>
 4    1  0.3541639E-005  0.4093419E+03  0.7818608E-02  0.1040592E+00
         -2   -1    0    0    0  501 -0.00000000000E+00  0.00000000000E+00  0.41139365275E+03  0.41139365275E+03  0.25500000000E-02 0. -1.
          2   -1    0    0  501    0  0.00000000000E+00 -0.00000000000E+00 -0.10182507296E+03  0.10182507299E+03  0.25500000000E-02 0.  1.
    5000001    1    1    2    0    0  0.78880833628E+02 -0.34445199447E+02  0.26158665460E+03  0.32103151799E+03  0.16500000000E+03 0.  0.
   -5000001    1    1    2    0    0 -0.78880833628E+02  0.34445199447E+02  0.47981925181E+02  0.19218720775E+03  0.16500000000E+03 0.  0.
<mgrwt>
<rscale>  0 0.40934186E+03</rscale>
<asrwt>0</asrwt>
<pdfrwt beam="1">  1        2 0.14546439E-01 0.40934186E+03</pdfrwt>
<pdfrwt beam="2">  1       -2 0.58770523E-01 0.40934186E+03</pdfrwt>
<totfact> 0.11253470E+03</totfact>
</mgrwt>
</event>
<event>
 4    1  0.3541639E-005  0.4792139E+03  0.7818608E-02  0.1019351E+00
          2   -1    0    0  501    0  0.00000000000E+00  0.00000000000E+00  0.44072935377E+03  0.44072935378E+03  0.25500000000E-02 0.  1.
         -2   -1    0    0    0  501 -0.00000000000E+00 -0.00000000000E+00 -0.13026472541E+03  0.13026472543E+03  0.25500000000E-02 0. -1.
    5000001    1    1    2    0    0 -0.16042360150E+03  0.57165151638E+01  0.23443116611E+03  0.32855955641E+03  0.16500000000E+03 0.  0.
   -5000001    1    1    2    0    0  0.16042360150E+03 -0.57165151638E+01  0.76033462255E+02  0.24243452280E+03  0.16500000000E+03 0.  0.
<mgrwt>
<rscale>  0 0.47921389E+03</rscale>
<asrwt>0</asrwt>
<pdfrwt beam="1">  1        2 0.62961338E-01 0.47921389E+03</pdfrwt>
<pdfrwt beam="2">  1       -2 0.18609246E-01 0.47921389E+03</pdfrwt>
<totfact> 0.18660833E+03</totfact>
</mgrwt>
</event>
<event>
 4    1  0.3541639E-005  0.4642308E+03  0.7818608E-02  0.1023561E+00
          2   -1    0    0  501    0  0.00000000000E+00  0.00000000000E+00  0.15075209183E+04  0.15075209183E+04  0.25500000000E-02 0.  1.
         -2   -1    0    0    0  501 -0.00000000000E+00 -0.00000000000E+00 -0.35739178134E+02  0.35739178225E+02  0.25500000000E-02 0. -1.
    5000001    1    1    2    0    0 -0.30589551750E+00 -0.13075132479E+03  0.10608703102E+04  0.10815575886E+04  0.16500000000E+03 0.  0.
   -5000001    1    1    2    0    0  0.30589551750E+00  0.13075132479E+03  0.41091143003E+03  0.46170250794E+03  0.16500000000E+03 0.  0.
<mgrwt>
<rscale>  0 0.46423080E+03</rscale>
<asrwt>0</asrwt>
<pdfrwt beam="1">  1        2 0.21536014E+00 0.46423080E+03</pdfrwt>
<pdfrwt beam="2">  1       -2 0.51055967E-02 0.46423080E+03</pdfrwt>
<totfact> 0.29316578E+03</totfact>
</mgrwt>
</event>
<event>
 4    1  0.3541639E-005  0.1162980E+04  0.7818608E-02  0.9145892E-01
          2   -1    0    0  501    0  0.00000000000E+00  0.00000000000E+00  0.14694684299E+04  0.14694684299E+04  0.25500000000E-02 0.  1.
         -2   -1    0    0    0  501 -0.00000000000E+00 -0.00000000000E+00 -0.23010393949E+03  0.23010393950E+03  0.25500000000E-02 0. -1.
    5000001    1    1    2    0    0  0.37976035447E+03  0.29214714366E+02  0.12148019916E+04  0.12837602211E+04  0.16500000000E+03 0.  0.
   -5000001    1    1    2    0    0 -0.37976035447E+03 -0.29214714366E+02  0.24562498803E+02  0.41581214834E+03  0.16500000000E+03 0.  0.
<mgrwt>
<rscale>  0 0.11629797E+04</rscale>
<asrwt>0</asrwt>
<pdfrwt beam="1">  1        2 0.20992406E+00 0.11629797E+04</pdfrwt>
<pdfrwt beam="2">  1       -2 0.32871992E-01 0.11629797E+04</pdfrwt>
<totfact> 0.12944902E+02</totfact>
</mgrwt>
</event>
<event>
 4    1  0.3541639E-005  0.5763105E+03  0.7818608E-02  0.9955811E-01
         -2   -1    0    0    0  501 -0.00000000000E+00  0.00000000000E+00  0.37575926191E+03  0.37575926192E+03  0.25500000000E-02 0. -1.
          2   -1    0    0  501    0  0.00000000000E+00 -0.00000000000E+00 -0.22097510861E+03  0.22097510863E+03  0.25500000000E-02 0.  1.
    5000001    1    1    2    0    0  0.78507413261E+02 -0.19772710925E+03  0.18374038623E+03  0.32595237873E+03  0.16500000000E+03 0.  0.
   -5000001    1    1    2    0    0 -0.78507413261E+02  0.19772710925E+03 -0.28956232929E+02  0.27078199182E+03  0.16500000000E+03 0.  0.
<mgrwt>
<rscale>  0 0.57631048E+03</rscale>
<asrwt>0</asrwt>
<pdfrwt beam="1">  1        2 0.31567873E-01 0.57631048E+03</pdfrwt>
<pdfrwt beam="2">  1       -2 0.53679894E-01 0.57631048E+03</pdfrwt>
<totfact> 0.55349187E+02</totfact>
</mgrwt>
</event>
<event>
 4    1  0.3541639E-005  0.5687051E+03  0.7818608E-02  0.9972548E-01
          2   -1    0    0  501    0  0.00000000000E+00  0.00000000000E+00  0.16729883866E+04  0.16729883866E+04  0.25500000000E-02 0. -1.
         -2   -1    0    0    0  501 -0.00000000000E+00 -0.00000000000E+00 -0.48330509701E+02  0.48330509768E+02  0.25500000000E-02 0.  1.
    5000001    1    1    2    0    0 -0.71618928919E+02 -0.19415189193E+03  0.49767740865E+03  0.56367724027E+03  0.16500000000E+03 0.  0.
   -5000001    1    1    2    0    0  0.71618928919E+02  0.19415189193E+03  0.11269804682E+04  0.11576416561E+04  0.16500000000E+03 0.  0.
<mgrwt>
<rscale>  0 0.56870513E+03</rscale>
<asrwt>0</asrwt>
<pdfrwt beam="1">  1        2 0.23899832E+00 0.56870513E+03</pdfrwt>
<pdfrwt beam="2">  1       -2 0.69043592E-02 0.56870513E+03</pdfrwt>
<totfact> 0.15023393E+03</totfact>
</mgrwt>
</event>
<event>
 4    1  0.3541639E-005  0.4373211E+03  0.7818608E-02  0.1031572E+00
         -2   -1    0    0    0  501 -0.00000000000E+00  0.00000000000E+00  0.22788556961E+02  0.22788557104E+02  0.25500000000E-02 0. -1.
          2   -1    0    0  501    0  0.00000000000E+00 -0.00000000000E+00 -0.20980895587E+04  0.20980895587E+04  0.25500000000E-02 0.  1.
    5000001    1    1    2    0    0 -0.87833212623E+02  0.24420938513E+01 -0.15877617261E+04  0.15987285372E+04  0.16500000000E+03 0.  0.
   -5000001    1    1    2    0    0  0.87833212623E+02 -0.24420938513E+01 -0.48753927570E+03  0.52214957858E+03  0.16500000000E+03 0.  0.
<mgrwt>
<rscale>  0 0.43732109E+03</rscale>
<asrwt>0</asrwt>
<pdfrwt beam="1">  1        2 0.29972696E+00 0.43732109E+03</pdfrwt>
<pdfrwt beam="2">  1       -2 0.32555095E-02 0.43732109E+03</pdfrwt>
<totfact> 0.29477672E+03</totfact>
</mgrwt>
</event>
<event>
 4    1  0.3541639E-005  0.5588139E+03  0.7818608E-02  0.9994742E-01
          2   -1    0    0  501    0  0.00000000000E+00  0.00000000000E+00  0.18572409879E+04  0.18572409879E+04  0.25500000000E-02 0.  1.
         -2   -1    0    0    0  501 -0.00000000000E+00 -0.00000000000E+00 -0.42034522689E+02  0.42034522766E+02  0.25500000000E-02 0. -1.
    5000001    1    1    2    0    0 -0.12540117142E+03  0.16122504163E+03  0.12322565634E+04  0.12599207141E+04  0.16500000000E+03 0.  0.
   -5000001    1    1    2    0    0  0.12540117142E+03 -0.16122504163E+03  0.58294990180E+03  0.63935479653E+03  0.16500000000E+03 0.  0.
<mgrwt>
<rscale>  0 0.55881388E+03</rscale>
<asrwt>0</asrwt>
<pdfrwt beam="1">  1        2 0.26532019E+00 0.55881388E+03</pdfrwt>
<pdfrwt beam="2">  1       -2 0.60049307E-02 0.55881388E+03</pdfrwt>
<totfact> 0.15102278E+03</totfact>
</mgrwt>
</event>
<event>
 4    1  0.3541639E-005  0.1661275E+04  0.7818608E-02  0.8783764E-01
          2   -1    0    0  501    0  0.00000000000E+00  0.00000000000E+00  0.18400797289E+04  0.18400797289E+04  0.25500000000E-02 0.  1.
         -2   -1    0    0    0  501 -0.00000000000E+00 -0.00000000000E+00 -0.37496107820E+03  0.37496107820E+03  0.25500000000E-02 0. -1.
    5000001    1    1    2    0    0 -0.10930918547E+03 -0.61420590394E+03  0.14299039831E+04  0.15687727023E+04  0.16500000000E+03 0.  0.
   -5000001    1    1    2    0    0  0.10930918547E+03  0.61420590394E+03  0.35214667543E+02  0.64626810479E+03  0.16500000000E+03 0.  0.
<mgrwt>
<rscale>  0 0.16612745E+04</rscale>
<asrwt>0</asrwt>
<pdfrwt beam="1">  1        2 0.26286853E+00 0.16612745E+04</pdfrwt>
<pdfrwt beam="2">  1       -2 0.53565868E-01 0.16612745E+04</pdfrwt>
<totfact> 0.30477462E+01</totfact>
</mgrwt>
</event>
<event>
 4    1  0.3541639E-005  0.4265958E+03  0.7818608E-02  0.1034941E+00
          2   -1    0    0  501    0  0.00000000000E+00  0.00000000000E+00  0.15478483944E+04  0.15478483944E+04  0.25500000000E-02 0.  1.
         -2   -1    0    0    0  501 -0.00000000000E+00 -0.00000000000E+00 -0.29393060396E+02  0.29393060506E+02  0.25500000000E-02 0. -1.
    5000001    1    1    2    0    0  0.40986147009E+02 -0.11563968783E+03  0.96898399024E+03  0.99055912241E+03  0.16500000000E+03 0.  0.
   -5000001    1    1    2    0    0 -0.40986147009E+02  0.11563968783E+03  0.54947134377E+03  0.58668233250E+03  0.16500000000E+03 0.  0.
<mgrwt>
<rscale>  0 0.42659583E+03</rscale>
<asrwt>0</asrwt>
<pdfrwt beam="1">  1        2 0.22112123E+00 0.42659583E+03</pdfrwt>
<pdfrwt beam="2">  1       -2 0.41990080E-02 0.42659583E+03</pdfrwt>
<totfact> 0.37744352E+03</totfact>
</mgrwt>
</event>
<event>
 4    1  0.3541639E-005  0.4251886E+03  0.7818608E-02  0.1035391E+00
         -2   -1    0    0    0  501 -0.00000000000E+00  0.00000000000E+00  0.26959127686E+03  0.26959127688E+03  0.25500000000E-02 0. -1.
          2   -1    0    0  501    0  0.00000000000E+00 -0.00000000000E+00 -0.16764759975E+03  0.16764759977E+03  0.25500000000E-02 0.  1.
    5000001    1    1    2    0    0  0.14406434393E+02  0.13111259702E+03  0.26350165218E+02  0.21287881449E+03  0.16500000000E+03 0.  0.
   -5000001    1    1    2    0    0 -0.14406434393E+02 -0.13111259702E+03  0.75593511897E+02  0.22436006216E+03  0.16500000000E+03 0.  0.
<mgrwt>
<rscale>  0 0.42518857E+03</rscale>
<asrwt>0</asrwt>
<pdfrwt beam="1">  1        2 0.23949657E-01 0.42518857E+03</pdfrwt>
<pdfrwt beam="2">  1       -2 0.38513039E-01 0.42518857E+03</pdfrwt>
<totfact> 0.14591559E+03</totfact>
</mgrwt>
</event>
<event>
 4    1  0.3541639E-005  0.4679927E+03  0.7818608E-02  0.1022488E+00
          2   -1    0    0  501    0  0.00000000000E+00  0.00000000000E+00  0.33655727718E+02  0.33655727815E+02  0.25500000000E-02 0.  1.
         -2   -1    0    0    0  501 -0.00000000000E+00 -0.00000000000E+00 -0.16268936469E+04  0.16268936469E+04  0.25500000000E-02 0. -1.
    5000001    1    1    2    0    0 -0.12614053845E+03 -0.55522639871E+02 -0.11244248805E+04  0.11447927807E+04  0.16500000000E+03 0.  0.
   -5000001    1    1    2    0    0  0.12614053845E+03  0.55522639871E+02 -0.46881303868E+03  0.51575659397E+03  0.16500000000E+03 0.  0.
<mgrwt>
<rscale>  0 0.46799269E+03</rscale>
<asrwt>0</asrwt>
<pdfrwt beam="1">  1        2 0.48079621E-02 0.46799269E+03</pdfrwt>
<pdfrwt beam="2">  1       -2 0.23241333E+00 0.46799269E+03</pdfrwt>
<totfact> 0.14970816E+02</totfact>
</mgrwt>
</event>
<event>
 4    1  0.3541639E-005  0.5081288E+03  0.7818608E-02  0.1011679E+00
         -2   -1    0    0    0  501 -0.00000000000E+00  0.00000000000E+00  0.83288529624E+02  0.83288529663E+02  0.25500000000E-02 0. -1.
          2   -1    0    0  501    0  0.00000000000E+00 -0.00000000000E+00 -0.77500118835E+03  0.77500118836E+03  0.25500000000E-02 0.  1.
    5000001    1    1    2    0    0 -0.13909343116E+03  0.11840897427E+03 -0.45209694077E+03  0.51476626893E+03  0.16500000000E+03 0.  0.
   -5000001    1    1    2    0    0  0.13909343116E+03 -0.11840897427E+03 -0.23961571797E+03  0.34352344909E+03  0.16500000000E+03 0.  0.
<mgrwt>
<rscale>  0 0.50812876E+03</rscale>
<asrwt>0</asrwt>
<pdfrwt beam="1">  1        2 0.11071445E+00 0.50812876E+03</pdfrwt>
<pdfrwt beam="2">  1       -2 0.11898362E-01 0.50812876E+03</pdfrwt>
<totfact> 0.20410847E+03</totfact>
</mgrwt>
</event>
<event>
 4    1  0.3541639E-005  0.7079576E+03  0.7818608E-02  0.9703720E-01
          2   -1    0    0  501    0  0.00000000000E+00  0.00000000000E+00  0.40797891292E+04  0.40797891292E+04  0.25500000000E-02 0.  1.
         -2   -1    0    0    0  501 -0.00000000000E+00 -0.00000000000E+00 -0.30712617618E+02  0.30712617724E+02  0.25500000000E-02 0. -1.
    5000001    1    1    2    0    0  0.21053163183E+03 -0.20375708742E+03  0.26667794547E+04  0.26878947484E+04  0.16500000000E+03 0.  0.
   -5000001    1    1    2    0    0 -0.21053163183E+03  0.20375708742E+03  0.13822970569E+04  0.14226069985E+04  0.16500000000E+03 0.  0.
<mgrwt>
<rscale>  0 0.70795764E+03</rscale>
<asrwt>0</asrwt>
<pdfrwt beam="1">  1        2 0.58282690E+00 0.70795764E+03</pdfrwt>
<pdfrwt beam="2">  1       -2 0.43875177E-02 0.70795764E+03</pdfrwt>
<totfact> 0.13905536E+02</totfact>
</mgrwt>
</event>
<event>
 4    1  0.3541639E-005  0.4580336E+03  0.7818608E-02  0.1025353E+00
         -2   -1    0    0    0  501 -0.00000000000E+00  0.00000000000E+00  0.29515722372E+03  0.29515722373E+03  0.25500000000E-02 0. -1.
          2   -1    0    0  501    0  0.00000000000E+00 -0.00000000000E+00 -0.17769744417E+03  0.17769744419E+03  0.25500000000E-02 0.  1.
    5000001    1    1    2    0    0 -0.14858242140E+03  0.24867406954E+02  0.11064180514E+03  0.24932254796E+03  0.16500000000E+03 0.  0.
   -5000001    1    1    2    0    0  0.14858242140E+03 -0.24867406954E+02  0.68179744087E+01  0.22353211996E+03  0.16500000000E+03 0.  0.
<mgrwt>
<rscale>  0 0.45803355E+03</rscale>
<asrwt>0</asrwt>
<pdfrwt beam="1">  1        2 0.25385350E-01 0.45803355E+03</pdfrwt>
<pdfrwt beam="2">  1       -2 0.42165317E-01 0.45803355E+03</pdfrwt>
<totfact> 0.11470715E+03</totfact>
</mgrwt>
</event>
<event>
 4    1  0.3541639E-005  0.4016007E+03  0.7818608E-02  0.1043227E+00
         -2   -1    0    0    0  501 -0.00000000000E+00  0.00000000000E+00  0.45397854162E+02  0.45397854234E+02  0.25500000000E-02 0. -1.
          2   -1    0    0  501    0  0.00000000000E+00 -0.00000000000E+00 -0.88816487906E+03  0.88816487906E+03  0.25500000000E-02 0.  1.
    5000001    1    1    2    0    0 -0.17484827312E+02  0.69436357315E+02 -0.21387233132E+03  0.27945214440E+03  0.16500000000E+03 0.  0.
   -5000001    1    1    2    0    0  0.17484827312E+02 -0.69436357315E+02 -0.62889469358E+03  0.65411058890E+03  0.16500000000E+03 0.  0.
<mgrwt>
<rscale>  0 0.40160070E+03</rscale>
<asrwt>0</asrwt>
<pdfrwt beam="1">  1        2 0.12688069E+00 0.40160070E+03</pdfrwt>
<pdfrwt beam="2">  1       -2 0.64854083E-02 0.40160070E+03</pdfrwt>
<totfact> 0.45046381E+03</totfact>
</mgrwt>
</event>
<event>
 4    1  0.3541639E-005  0.8330337E+03  0.7818608E-02  0.9513396E-01
          2   -1    0    0  501    0  0.00000000000E+00  0.00000000000E+00  0.31150367348E+03  0.31150367349E+03  0.25500000000E-02 0.  1.
         -2   -1    0    0    0  501 -0.00000000000E+00 -0.00000000000E+00 -0.55693175414E+03  0.55693175415E+03  0.25500000000E-02 0. -1.
    5000001    1    1    2    0    0 -0.24856447907E+03  0.29063469881E+03 -0.11968202305E+03  0.43336083700E+03  0.16500000000E+03 0.  0.
   -5000001    1    1    2    0    0  0.24856447907E+03 -0.29063469881E+03 -0.12574605762E+03  0.43507459063E+03  0.16500000000E+03 0.  0.
<mgrwt>
<rscale>  0 0.83303370E+03</rscale>
<asrwt>0</asrwt>
<pdfrwt beam="1">  1        2 0.44500525E-01 0.83303370E+03</pdfrwt>
<pdfrwt beam="2">  1       -2 0.79561679E-01 0.83303370E+03</pdfrwt>
<totfact> 0.16105952E+02</totfact>
</mgrwt>
</event>
<event>
 4    1  0.3541639E-005  0.4019028E+03  0.7818608E-02  0.1043123E+00
         -2   -1    0    0    0  501 -0.00000000000E+00  0.00000000000E+00  0.38421680045E+03  0.38421680046E+03  0.25500000000E-02 0. -1.
          2   -1    0    0  501    0  0.00000000000E+00 -0.00000000000E+00 -0.10510071225E+03  0.10510071228E+03  0.25500000000E-02 0.  1.
    5000001    1    1    2    0    0 -0.56989453386E+02 -0.57547661552E+02  0.40670716851E+02  0.18825152949E+03  0.16500000000E+03 0.  0.
   -5000001    1    1    2    0    0  0.56989453386E+02  0.57547661552E+02  0.23844537135E+03  0.30106598324E+03  0.16500000000E+03 0.  0.
<mgrwt>
<rscale>  0 0.40190277E+03</rscale>
<asrwt>0</asrwt>
<pdfrwt beam="1">  1        2 0.15014388E-01 0.40190277E+03</pdfrwt>
<pdfrwt beam="2">  1       -2 0.54888114E-01 0.40190277E+03</pdfrwt>
<totfact> 0.12472275E+03</totfact>
</mgrwt>
</event>
<event>
 4    1  0.3541639E-005  0.5530256E+03  0.7818608E-02  0.1000796E+00
         -2   -1    0    0    0  501 -0.00000000000E+00  0.00000000000E+00  0.89136559905E+02  0.89136559942E+02  0.25500000000E-02 0. -1.
          2   -1    0    0  501    0  0.00000000000E+00 -0.00000000000E+00 -0.85777737509E+03  0.85777737509E+03  0.25500000000E-02 0.  1.
    5000001    1    1    2    0    0 -0.16063544018E+03 -0.10342007248E+03 -0.57754505083E+03  0.63030369011E+03  0.16500000000E+03 0.  0.
   -5000001    1    1    2    0    0  0.16063544018E+03  0.10342007248E+03 -0.19109576436E+03  0.31661024492E+03  0.16500000000E+03 0.  0.
<mgrwt>
<rscale>  0 0.55302558E+03</rscale>
<asrwt>0</asrwt>
<pdfrwt beam="1">  1        2 0.12253962E+00 0.55302558E+03</pdfrwt>
<pdfrwt beam="2">  1       -2 0.12733795E-01 0.55302558E+03</pdfrwt>
<totfact> 0.16025953E+03</totfact>
</mgrwt>
</event>
<event>
 4    1  0.3541639E-005  0.6680226E+03  0.7818608E-02  0.9773537E-01
         -2   -1    0    0    0  501 -0.00000000000E+00  0.00000000000E+00  0.63319474537E+03  0.63319474538E+03  0.25500000000E-02 0. -1.
          2   -1    0    0  501    0  0.00000000000E+00 -0.00000000000E+00 -0.17619154281E+03  0.17619154283E+03  0.25500000000E-02 0.  1.
    5000001    1    1    2    0    0  0.11106289769E+03  0.19320719989E+03  0.45411776340E+03  0.53208263678E+03  0.16500000000E+03 0.  0.
   -5000001    1    1    2    0    0 -0.11106289769E+03 -0.19320719989E+03  0.28854391647E+01  0.27730365142E+03  0.16500000000E+03 0.  0.
<mgrwt>
<rscale>  0 0.66802263E+03</rscale>
<asrwt>0</asrwt>
<pdfrwt beam="1">  1        2 0.25170220E-01 0.66802263E+03</pdfrwt>
<pdfrwt beam="2">  1       -2 0.90456393E-01 0.66802263E+03</pdfrwt>
<totfact> 0.22947541E+02</totfact>
</mgrwt>
</event>
<event>
 4    1  0.3541639E-005  0.6347408E+03  0.7818608E-02  0.9835841E-01
          2   -1    0    0  501    0  0.00000000000E+00  0.00000000000E+00  0.25825515088E+04  0.25825515088E+04  0.25500000000E-02 0.  1.
         -2   -1    0    0    0  501 -0.00000000000E+00 -0.00000000000E+00 -0.39001725979E+02  0.39001726062E+02  0.25500000000E-02 0. -1.
    5000001    1    1    2    0    0  0.11910315394E+02  0.10022662932E+03  0.23256235202E+03  0.30248550447E+03  0.16500000000E+03 0.  0.
   -5000001    1    1    2    0    0 -0.11910315394E+02 -0.10022662932E+03  0.23109874308E+04  0.23190677304E+04  0.16500000000E+03 0.  0.
<mgrwt>
<rscale>  0 0.63474079E+03</rscale>
<asrwt>0</asrwt>
<pdfrwt beam="1">  1        2 0.36893596E+00 0.63474079E+03</pdfrwt>
<pdfrwt beam="2">  1       -2 0.55716746E-02 0.63474079E+03</pdfrwt>
<totfact> 0.72564878E+02</totfact>
</mgrwt>
</event>
<event>
 4    1  0.3541639E-005  0.5204346E+03  0.7818608E-02  0.1008579E+00
         -2   -1    0    0    0  501 -0.00000000000E+00  0.00000000000E+00  0.25071659163E+03  0.25071659164E+03  0.25500000000E-02 0. -1.
          2   -1    0    0  501    0  0.00000000000E+00 -0.00000000000E+00 -0.27007804788E+03  0.27007804789E+03  0.25500000000E-02 0.  1.
    5000001    1    1    2    0    0 -0.93296157582E+02 -0.11948039497E+03  0.12272977662E+03  0.25547472648E+03  0.16500000000E+03 0.  0.
   -5000001    1    1    2    0    0  0.93296157582E+02  0.11948039497E+03 -0.14209123287E+03  0.26531991305E+03  0.16500000000E+03 0.  0.
<mgrwt>
<rscale>  0 0.52043462E+03</rscale>
<asrwt>0</asrwt>
<pdfrwt beam="1">  1        2 0.38582578E-01 0.52043462E+03</pdfrwt>
<pdfrwt beam="2">  1       -2 0.35816656E-01 0.52043462E+03</pdfrwt>
<totfact> 0.98450989E+02</totfact>
</mgrwt>
</event>
<event>
 4    1  0.3541639E-005  0.8232909E+03  0.7818608E-02  0.9526903E-01
         -2   -1    0    0    0  501 -0.00000000000E+00  0.00000000000E+00  0.49358527829E+03  0.49358527830E+03  0.25500000000E-02 0.  1.
          2   -1    0    0  501    0  0.00000000000E+00 -0.00000000000E+00 -0.34330841731E+03  0.34330841732E+03  0.25500000000E-02 0. -1.
    5000001    1    1    2    0    0  0.28533263899E+03 -0.22266968961E+03  0.18286331609E+03  0.43779047262E+03  0.16500000000E+03 0.  0.
   -5000001    1    1    2    0    0 -0.28533263899E+03  0.22266968961E+03 -0.32586455111E+02  0.39910322299E+03  0.16500000000E+03 0.  0.
<mgrwt>
<rscale>  0 0.82329091E+03</rscale>
<asrwt>0</asrwt>
<pdfrwt beam="1">  1        2 0.49044060E-01 0.82329091E+03</pdfrwt>
<pdfrwt beam="2">  1       -2 0.70512182E-01 0.82329091E+03</pdfrwt>
<totfact> 0.18897518E+02</totfact>
</mgrwt>
</event>
<event>
 4    1  0.3541639E-005  0.1202519E+04  0.7818608E-02  0.9110655E-01
         -2   -1    0    0    0  501 -0.00000000000E+00  0.00000000000E+00  0.43073732242E+03  0.43073732243E+03  0.25500000000E-02 0. -1.
          2   -1    0    0  501    0  0.00000000000E+00 -0.00000000000E+00 -0.83928849552E+03  0.83928849552E+03  0.25500000000E-02 0.  1.
    5000001    1    1    2    0    0 -0.28121333999E+03 -0.46545662532E+03  0.31071782297E+01  0.56830050783E+03  0.16500000000E+03 0.  0.
   -5000001    1    1    2    0    0  0.28121333999E+03  0.46545662532E+03 -0.41165835133E+03  0.70172531012E+03  0.16500000000E+03 0.  0.
<mgrwt>
<rscale>  0 0.12025188E+04</rscale>
<asrwt>0</asrwt>
<pdfrwt beam="1">  1        2 0.11989836E+00 0.12025188E+04</pdfrwt>
<pdfrwt beam="2">  1       -2 0.61533903E-01 0.12025188E+04</pdfrwt>
<totfact> 0.86540290E+01</totfact>
</mgrwt>
</event>
<event>
 4    1  0.3541639E-005  0.6649243E+03  0.7818608E-02  0.9779171E-01
         -2   -1    0    0    0  501 -0.00000000000E+00  0.00000000000E+00  0.47782133246E+02  0.47782133314E+02  0.25500000000E-02 0. -1.
          2   -1    0    0  501    0  0.00000000000E+00 -0.00000000000E+00 -0.23132300200E+04  0.23132300200E+04  0.25500000000E-02 0.  1.
    5000001    1    1    2    0    0  0.22619766770E+03 -0.90952382910E+02 -0.58414744712E+03  0.65413374841E+03  0.16500000000E+03 0.  0.
   -5000001    1    1    2    0    0 -0.22619766770E+03  0.90952382910E+02 -0.16813004396E+04  0.17068784049E+04  0.16500000000E+03 0.  0.
<mgrwt>
<rscale>  0 0.66492425E+03</rscale>
<asrwt>0</asrwt>
<pdfrwt beam="1">  1        2 0.33046136E+00 0.66492425E+03</pdfrwt>
<pdfrwt beam="2">  1       -2 0.68260205E-02 0.66492425E+03</pdfrwt>
<totfact> 0.72317044E+02</totfact>
</mgrwt>
</event>
<event>
 4    1  0.3541639E-005  0.3771354E+03  0.7818608E-02  0.1051998E+00
         -2   -1    0    0    0  501 -0.00000000000E+00  0.00000000000E+00  0.13005975258E+03  0.13005975261E+03  0.25500000000E-02 0. -1.
          2   -1    0    0  501    0  0.00000000000E+00 -0.00000000000E+00 -0.27339568530E+03  0.27339568531E+03  0.25500000000E-02 0.  1.
    5000001    1    1    2    0    0  0.74971804338E+02 -0.50929172903E+02 -0.60036098693E+02  0.19759525613E+03  0.16500000000E+03 0.  0.
   -5000001    1    1    2    0    0 -0.74971804338E+02  0.50929172903E+02 -0.83299834026E+02  0.20586018179E+03  0.16500000000E+03 0.  0.
<mgrwt>
<rscale>  0 0.37713539E+03</rscale>
<asrwt>0</asrwt>
<pdfrwt beam="1">  1        2 0.39056527E-01 0.37713539E+03</pdfrwt>
<pdfrwt beam="2">  1       -2 0.18579965E-01 0.37713539E+03</pdfrwt>
<totfact> 0.31473759E+03</totfact>
</mgrwt>
</event>
<event>
 4    1  0.3541639E-005  0.9910275E+03  0.7818608E-02  0.9318441E-01
          2   -1    0    0  501    0  0.00000000000E+00  0.00000000000E+00  0.10751268443E+04  0.10751268443E+04  0.25500000000E-02 0.  1.
         -2   -1    0    0    0  501 -0.00000000000E+00 -0.00000000000E+00 -0.22837668153E+03  0.22837668154E+03  0.25500000000E-02 0. -1.
    5000001    1    1    2    0    0  0.99950548007E+02 -0.42926218406E+03  0.62736513767E+03  0.78426280715E+03  0.16500000000E+03 0.  0.
   -5000001    1    1    2    0    0 -0.99950548007E+02  0.42926218406E+03  0.21938502510E+03  0.51924071869E+03  0.16500000000E+03 0.  0.
<mgrwt>
<rscale>  0 0.99102755E+03</rscale>
<asrwt>0</asrwt>
<pdfrwt beam="1">  1        2 0.15358955E+00 0.99102755E+03</pdfrwt>
<pdfrwt beam="2">  1       -2 0.32625240E-01 0.99102755E+03</pdfrwt>
<totfact> 0.22055076E+02</totfact>
</mgrwt>
</event>
<event>
 4    1  0.3541639E-005  0.6011229E+03  0.7818608E-02  0.9903079E-01
          2   -1    0    0  501    0  0.00000000000E+00  0.00000000000E+00  0.15392564752E+04  0.15392564752E+04  0.25500000000E-02 0.  1.
         -2   -1    0    0    0  501 -0.00000000000E+00 -0.00000000000E+00 -0.58688838362E+02  0.58688838417E+02  0.25500000000E-02 0. -1.
    5000001    1    1    2    0    0 -0.10694962937E+03 -0.20067968655E+03  0.10241292086E+04  0.10619680766E+04  0.16500000000E+03 0.  0.
   -5000001    1    1    2    0    0  0.10694962937E+03  0.20067968655E+03  0.45643842818E+03  0.53597723696E+03  0.16500000000E+03 0.  0.
<mgrwt>
<rscale>  0 0.60112286E+03</rscale>
<asrwt>0</asrwt>
<pdfrwt beam="1">  1        2 0.21989375E+00 0.60112286E+03</pdfrwt>
<pdfrwt beam="2">  1       -2 0.83841211E-02 0.60112286E+03</pdfrwt>
<totfact> 0.12910947E+03</totfact>
</mgrwt>
</event>
<event>
 4    1  0.3541639E-005  0.3742427E+03  0.7818608E-02  0.1053082E+00
         -2   -1    0    0    0  501 -0.00000000000E+00  0.00000000000E+00  0.13300416107E+02  0.13300416352E+02  0.25500000000E-02 0. -1.
          2   -1    0    0  501    0  0.00000000000E+00 -0.00000000000E+00 -0.26325793227E+04  0.26325793227E+04  0.25500000000E-02 0.  1.
    5000001    1    1    2    0    0  0.63030104854E+01 -0.75993309872E+02 -0.99546838945E+03  0.10119273815E+04  0.16500000000E+03 0.  0.
   -5000001    1    1    2    0    0 -0.63030104854E+01  0.75993309872E+02 -0.16238105172E+04  0.16339523576E+04  0.16500000000E+03 0.  0.
<mgrwt>
<rscale>  0 0.37424271E+03</rscale>
<asrwt>0</asrwt>
<pdfrwt beam="1">  1        2 0.37608243E+00 0.37424271E+03</pdfrwt>
<pdfrwt beam="2">  1       -2 0.19000611E-02 0.37424271E+03</pdfrwt>
<totfact> 0.35676221E+03</totfact>
</mgrwt>
</event>
<event>
 4    1  0.3541639E-005  0.7549780E+03  0.7818608E-02  0.9627573E-01
         -2   -1    0    0    0  501 -0.00000000000E+00  0.00000000000E+00  0.12859818437E+03  0.12859818439E+03  0.25500000000E-02 0. -1.
          2   -1    0    0  501    0  0.00000000000E+00 -0.00000000000E+00 -0.11080867828E+04  0.11080867828E+04  0.25500000000E-02 0.  1.
    5000001    1    1    2    0    0 -0.60075043735E+02  0.29874973606E+03 -0.73497240776E+03  0.81256990828E+03  0.16500000000E+03 0.  0.
   -5000001    1    1    2    0    0  0.60075043735E+02 -0.29874973606E+03 -0.24451619063E+03  0.42411505887E+03  0.16500000000E+03 0.  0.
<mgrwt>
<rscale>  0 0.75497801E+03</rscale>
<asrwt>0</asrwt>
<pdfrwt beam="1">  1        2 0.15829811E+00 0.75497801E+03</pdfrwt>
<pdfrwt beam="2">  1       -2 0.18371170E-01 0.75497801E+03</pdfrwt>
<totfact> 0.60059441E+02</totfact>
</mgrwt>
</event>
<event>
 4    1  0.3541639E-005  0.3713181E+03  0.7818608E-02  0.1054190E+00
         -2   -1    0    0    0  501 -0.00000000000E+00  0.00000000000E+00  0.29024941328E+02  0.29024941440E+02  0.25500000000E-02 0. -1.
          2   -1    0    0  501    0  0.00000000000E+00 -0.00000000000E+00 -0.11875745676E+04  0.11875745676E+04  0.25500000000E-02 0.  1.
    5000001    1    1    2    0    0 -0.62491947786E+02  0.44728324432E+02 -0.69914109336E+03  0.72244663123E+03  0.16500000000E+03 0.  0.
   -5000001    1    1    2    0    0  0.62491947786E+02 -0.44728324432E+02 -0.45940853294E+03  0.49415287785E+03  0.16500000000E+03 0.  0.
<mgrwt>
<rscale>  0 0.37131810E+03</rscale>
<asrwt>0</asrwt>
<pdfrwt beam="1">  1        2 0.16965348E+00 0.37131810E+03</pdfrwt>
<pdfrwt beam="2">  1       -2 0.41464210E-02 0.37131810E+03</pdfrwt>
<totfact> 0.59568792E+03</totfact>
</mgrwt>
</event>
<event>
 4    1  0.3541639E-005  0.1763083E+04  0.7818608E-02  0.8726182E-01
         -2   -1    0    0    0  501 -0.00000000000E+00  0.00000000000E+00  0.17467840907E+04  0.17467840907E+04  0.25500000000E-02 0. -1.
          2   -1    0    0  501    0  0.00000000000E+00 -0.00000000000E+00 -0.44488329630E+03  0.44488329631E+03  0.25500000000E-02 0.  1.
    5000001    1    1    2    0    0  0.16557860297E+03 -0.61259644048E+03 -0.81522337593E+02  0.66072805615E+03  0.16500000000E+03 0.  0.
   -5000001    1    1    2    0    0 -0.16557860297E+03  0.61259644048E+03  0.13834231320E+04  0.15309393309E+04  0.16500000000E+03 0.  0.
<mgrwt>
<rscale>  0 0.17630826E+04</rscale>
<asrwt>0</asrwt>
<pdfrwt beam="1">  1        2 0.63554758E-01 0.17630826E+04</pdfrwt>
<pdfrwt beam="2">  1       -2 0.24954058E+00 0.17630826E+04</pdfrwt>
<totfact> 0.47106108E+00</totfact>
</mgrwt>
</event>
<event>
 4    1  0.3541639E-005  0.7394576E+03  0.7818608E-02  0.9652036E-01
         -2   -1    0    0    0  501 -0.00000000000E+00  0.00000000000E+00  0.13562277714E+04  0.13562277714E+04  0.25500000000E-02 0. -1.
          2   -1    0    0  501    0  0.00000000000E+00 -0.00000000000E+00 -0.10079382426E+03  0.10079382429E+03  0.25500000000E-02 0.  1.
    5000001    1    1    2    0    0  0.24790993583E+03  0.15488457084E+03  0.32230096421E+03  0.46535091930E+03  0.16500000000E+03 0.  0.
   -5000001    1    1    2    0    0 -0.24790993583E+03 -0.15488457084E+03  0.93313298291E+03  0.99167067637E+03  0.16500000000E+03 0.  0.
<mgrwt>
<rscale>  0 0.73945759E+03</rscale>
<asrwt>0</asrwt>
<pdfrwt beam="1">  1        2 0.14399118E-01 0.73945759E+03</pdfrwt>
<pdfrwt beam="2">  1       -2 0.19374682E+00 0.73945759E+03</pdfrwt>
<totfact> 0.62731961E+01</totfact>
</mgrwt>
</event>
<event>
 4    1  0.3541639E-005  0.4259083E+03  0.7818608E-02  0.1035160E+00
          2   -1    0    0  501    0  0.00000000000E+00  0.00000000000E+00  0.14066037123E+04  0.14066037123E+04  0.25500000000E-02 0.  1.
         -2   -1    0    0    0  501 -0.00000000000E+00 -0.00000000000E+00 -0.32240404147E+02  0.32240404248E+02  0.25500000000E-02 0. -1.
    5000001    1    1    2    0    0 -0.71608963929E+02  0.77803209071E+02  0.40568044944E+03  0.45053613630E+03  0.16500000000E+03 0.  0.
   -5000001    1    1    2    0    0  0.71608963929E+02 -0.77803209071E+02  0.96868285868E+03  0.98830798022E+03  0.16500000000E+03 0.  0.
<mgrwt>
<rscale>  0 0.42590831E+03</rscale>
<asrwt>0</asrwt>
<pdfrwt beam="1">  1        2 0.20094334E+00 0.42590831E+03</pdfrwt>
<pdfrwt beam="2">  1       -2 0.46057731E-02 0.42590831E+03</pdfrwt>
<totfact> 0.38761781E+03</totfact>
</mgrwt>
</event>
<event>
 4    1  0.3541639E-005  0.7758488E+03  0.7818608E-02  0.9595648E-01
         -2   -1    0    0    0  501 -0.00000000000E+00  0.00000000000E+00  0.79100689007E+02  0.79100689048E+02  0.25500000000E-02 0. -1.
          2   -1    0    0  501    0  0.00000000000E+00 -0.00000000000E+00 -0.19024527540E+04  0.19024527540E+04  0.25500000000E-02 0.  1.
    5000001    1    1    2    0    0 -0.17538201014E+03  0.18249649586E+03 -0.15330839000E+04  0.15625732191E+04  0.16500000000E+03 0.  0.
   -5000001    1    1    2    0    0  0.17538201014E+03 -0.18249649586E+03 -0.29026816496E+03  0.41898022396E+03  0.16500000000E+03 0.  0.
<mgrwt>
<rscale>  0 0.77584876E+03</rscale>
<asrwt>0</asrwt>
<pdfrwt beam="1">  1        2 0.27177894E+00 0.77584876E+03</pdfrwt>
<pdfrwt beam="2">  1       -2 0.11300100E-01 0.77584876E+03</pdfrwt>
<totfact> 0.51438106E+02</totfact>
</mgrwt>
</event>
<event>
 4    1  0.3541639E-005  0.4158081E+03  0.7818608E-02  0.1038439E+00
          2   -1    0    0  501    0  0.00000000000E+00  0.00000000000E+00  0.33923463075E+03  0.33923463076E+03  0.25500000000E-02 0.  1.
         -2   -1    0    0    0  501 -0.00000000000E+00 -0.00000000000E+00 -0.12741650784E+03  0.12741650787E+03  0.25500000000E-02 0. -1.
    5000001    1    1    2    0    0  0.46381475654E+02  0.11766483871E+03  0.10401895388E+03  0.23246762854E+03  0.16500000000E+03 0.  0.
   -5000001    1    1    2    0    0 -0.46381475654E+02 -0.11766483871E+03  0.10779916903E+03  0.23418351009E+03  0.16500000000E+03 0.  0.
<mgrwt>
<rscale>  0 0.41580809E+03</rscale>
<asrwt>0</asrwt>
<pdfrwt beam="1">  1        2 0.48462090E-01 0.41580809E+03</pdfrwt>
<pdfrwt beam="2">  1       -2 0.18202358E-01 0.41580809E+03</pdfrwt>
<totfact> 0.25809277E+03</totfact>
</mgrwt>
</event>
<event>
 4    1  0.3541639E-005  0.3985981E+03  0.7818608E-02  0.1044266E+00
         -2   -1    0    0    0  501 -0.00000000000E+00  0.00000000000E+00  0.77181580146E+02  0.77181580188E+02  0.25500000000E-02 0. -1.
          2   -1    0    0  501    0  0.00000000000E+00 -0.00000000000E+00 -0.51463195980E+03  0.51463195981E+03  0.25500000000E-02 0.  1.
    5000001    1    1    2    0    0 -0.90145435607E+02 -0.79971451005E+00 -0.12059460949E+03  0.22337166101E+03  0.16500000000E+03 0.  0.
   -5000001    1    1    2    0    0  0.90145435607E+02  0.79971451005E+00 -0.31685577017E+03  0.36844187899E+03  0.16500000000E+03 0.  0.
<mgrwt>
<rscale>  0 0.39859808E+03</rscale>
<asrwt>0</asrwt>
<pdfrwt beam="1">  1        2 0.73518850E-01 0.39859808E+03</pdfrwt>
<pdfrwt beam="2">  1       -2 0.11025940E-01 0.39859808E+03</pdfrwt>
<totfact> 0.37410511E+03</totfact>
</mgrwt>
</event>
<event>
 4    1  0.3541639E-005  0.3923332E+03  0.7818608E-02  0.1046467E+00
          2   -1    0    0  501    0  0.00000000000E+00  0.00000000000E+00  0.16775028155E+04  0.16775028155E+04  0.25500000000E-02 0.  1.
         -2   -1    0    0    0  501 -0.00000000000E+00 -0.00000000000E+00 -0.22939650566E+02  0.22939650708E+02  0.25500000000E-02 0. -1.
    5000001    1    1    2    0    0 -0.21970978254E+02 -0.10312682960E+03  0.77628140441E+03  0.80059708075E+03  0.16500000000E+03 0.  0.
   -5000001    1    1    2    0    0  0.21970978254E+02  0.10312682960E+03  0.87828176053E+03  0.89984538547E+03  0.16500000000E+03 0.  0.
<mgrwt>
<rscale>  0 0.39233317E+03</rscale>
<asrwt>0</asrwt>
<pdfrwt beam="1">  1        2 0.23964326E+00 0.39233317E+03</pdfrwt>
<pdfrwt beam="2">  1       -2 0.32770930E-02 0.39233317E+03</pdfrwt>
<totfact> 0.47271212E+03</totfact>
</mgrwt>
</event>
<event>
 4    1  0.3541639E-005  0.6592942E+03  0.7818608E-02  0.9789494E-01
          2   -1    0    0  501    0  0.00000000000E+00  0.00000000000E+00  0.96812817208E+02  0.96812817242E+02  0.25500000000E-02 0.  1.
         -2   -1    0    0    0  501 -0.00000000000E+00 -0.00000000000E+00 -0.11224465145E+04  0.11224465145E+04  0.25500000000E-02 0. -1.
    5000001    1    1    2    0    0  0.13274198932E+03 -0.13863676851E+03 -0.12225290081E+03  0.28108959616E+03  0.16500000000E+03 0.  0.
   -5000001    1    1    2    0    0 -0.13274198932E+03  0.13863676851E+03 -0.90338079653E+03  0.93816973563E+03  0.16500000000E+03 0.  0.
<mgrwt>
<rscale>  0 0.65929420E+03</rscale>
<asrwt>0</asrwt>
<pdfrwt beam="1">  1        2 0.13830403E-01 0.65929420E+03</pdfrwt>
<pdfrwt beam="2">  1       -2 0.16034949E+00 0.65929420E+03</pdfrwt>
<totfact> 0.11266929E+02</totfact>
</mgrwt>
</event>
<event>
 4    1  0.3541639E-005  0.5434188E+03  0.7818608E-02  0.1003029E+00
         -2   -1    0    0    0  501 -0.00000000000E+00  0.00000000000E+00  0.83128538152E+02  0.83128538191E+02  0.25500000000E-02 0. -1.
          2   -1    0    0  501    0  0.00000000000E+00 -0.00000000000E+00 -0.88809449239E+03  0.88809449239E+03  0.25500000000E-02 0.  1.
    5000001    1    1    2    0    0 -0.10464715212E+03  0.18375393509E+03 -0.32489793752E+03  0.42130773185E+03  0.16500000000E+03 0.  0.
   -5000001    1    1    2    0    0  0.10464715212E+03 -0.18375393509E+03 -0.48006801671E+03  0.54991529873E+03  0.16500000000E+03 0.  0.
<mgrwt>
<rscale>  0 0.54341880E+03</rscale>
<asrwt>0</asrwt>
<pdfrwt beam="1">  1        2 0.12687064E+00 0.54341880E+03</pdfrwt>
<pdfrwt beam="2">  1       -2 0.11875506E-01 0.54341880E+03</pdfrwt>
<totfact> 0.17175152E+03</totfact>
</mgrwt>
</event>
<event>
 4    1  0.3541639E-005  0.1205624E+04  0.7818608E-02  0.9107948E-01
          2   -1    0    0  501    0  0.00000000000E+00  0.00000000000E+00  0.15152369728E+04  0.15152369728E+04  0.25500000000E-02 0.  1.
         -2   -1    0    0    0  501 -0.00000000000E+00 -0.00000000000E+00 -0.23981878630E+03  0.23981878632E+03  0.25500000000E-02 0. -1.
    5000001    1    1    2    0    0 -0.76274687019E+02  0.53610244083E+03  0.33607676761E+03  0.65832837449E+03  0.16500000000E+03 0.  0.
   -5000001    1    1    2    0    0  0.76274687019E+02 -0.53610244083E+03  0.93934141886E+03  0.10967273846E+04  0.16500000000E+03 0.  0.
<mgrwt>
<rscale>  0 0.12056240E+04</rscale>
<asrwt>0</asrwt>
<pdfrwt beam="1">  1        2 0.21646243E+00 0.12056240E+04</pdfrwt>
<pdfrwt beam="2">  1       -2 0.34259826E-01 0.12056240E+04</pdfrwt>
<totfact> 0.11284466E+02</totfact>
</mgrwt>
</event>
<event>
 4    1  0.3541639E-005  0.4690915E+03  0.7818608E-02  0.1022177E+00
          2   -1    0    0  501    0  0.00000000000E+00  0.00000000000E+00  0.21661498985E+03  0.21661498986E+03  0.25500000000E-02 0.  1.
         -2   -1    0    0    0  501 -0.00000000000E+00 -0.00000000000E+00 -0.25396081941E+03  0.25396081942E+03  0.25500000000E-02 0. -1.
    5000001    1    1    2    0    0  0.12566727973E+03 -0.10589983420E+03 -0.46684020619E+02  0.23751092156E+03  0.16500000000E+03 0.  0.
   -5000001    1    1    2    0    0 -0.12566727973E+03  0.10589983420E+03  0.93381910563E+01  0.23306488773E+03  0.16500000000E+03 0.  0.
<mgrwt>
<rscale>  0 0.46909155E+03</rscale>
<asrwt>0</asrwt>
<pdfrwt beam="1">  1        2 0.30944999E-01 0.46909155E+03</pdfrwt>
<pdfrwt beam="2">  1       -2 0.36280117E-01 0.46909155E+03</pdfrwt>
<totfact> 0.12264604E+03</totfact>
</mgrwt>
</event>
<event>
 4    1  0.3541639E-005  0.4520004E+03  0.7818608E-02  0.1027127E+00
          2   -1    0    0  501    0  0.00000000000E+00  0.00000000000E+00  0.11679449179E+04  0.11679449179E+04  0.25500000000E-02 0.  1.
         -2   -1    0    0    0  501 -0.00000000000E+00 -0.00000000000E+00 -0.43731594812E+02  0.43731594886E+02  0.25500000000E-02 0. -1.
    5000001    1    1    2    0    0  0.23467839911E+02  0.13802731253E+03  0.38737090327E+03  0.44371555665E+03  0.16500000000E+03 0.  0.
   -5000001    1    1    2    0    0 -0.23467839911E+02 -0.13802731253E+03  0.73684241985E+03  0.76796095617E+03  0.16500000000E+03 0.  0.
<mgrwt>
<rscale>  0 0.45200042E+03</rscale>
<asrwt>0</asrwt>
<pdfrwt beam="1">  1        2 0.16684924E+00 0.45200042E+03</pdfrwt>
<pdfrwt beam="2">  1       -2 0.62473721E-02 0.45200042E+03</pdfrwt>
<totfact> 0.32567156E+03</totfact>
</mgrwt>
</event>
<event>
 4    1  0.3541639E-005  0.4692030E+03  0.7818608E-02  0.1022145E+00
          2   -1    0    0  501    0  0.00000000000E+00  0.00000000000E+00  0.28574651733E+04  0.28574651733E+04  0.25500000000E-02 0.  1.
         -2   -1    0    0    0  501 -0.00000000000E+00 -0.00000000000E+00 -0.19261080766E+02  0.19261080935E+02  0.25500000000E-02 0. -1.
    5000001    1    1    2    0    0 -0.13332382114E+03 -0.10017794059E+03  0.14277871635E+04  0.14469319422E+04  0.16500000000E+03 0.  0.
   -5000001    1    1    2    0    0  0.13332382114E+03  0.10017794059E+03  0.14104169290E+04  0.14297943120E+04  0.16500000000E+03 0.  0.
<mgrwt>
<rscale>  0 0.46920302E+03</rscale>
<asrwt>0</asrwt>
<pdfrwt beam="1">  1        2 0.40820927E+00 0.46920302E+03</pdfrwt>
<pdfrwt beam="2">  1       -2 0.27515833E-02 0.46920302E+03</pdfrwt>
<totfact> 0.15569305E+03</totfact>
</mgrwt>
</event>
<event>
 4    1  0.3541639E-005  0.4116576E+03  0.7818608E-02  0.1039816E+00
          2   -1    0    0  501    0  0.00000000000E+00  0.00000000000E+00  0.25206476780E+04  0.25206476780E+04  0.25500000000E-02 0.  1.
         -2   -1    0    0    0  501 -0.00000000000E+00 -0.00000000000E+00 -0.16807384644E+02  0.16807384838E+02  0.25500000000E-02 0. -1.
    5000001    1    1    2    0    0 -0.12484559858E+02 -0.12178269220E+03  0.11755246639E+04  0.11933440928E+04  0.16500000000E+03 0.  0.
   -5000001    1    1    2    0    0  0.12484559858E+02  0.12178269220E+03  0.13283156294E+04  0.13441109700E+04  0.16500000000E+03 0.  0.
<mgrwt>
<rscale>  0 0.41165760E+03</rscale>
<asrwt>0</asrwt>
<pdfrwt beam="1">  1        2 0.36009260E+00 0.41165760E+03</pdfrwt>
<pdfrwt beam="2">  1       -2 0.24010544E-02 0.41165760E+03</pdfrwt>
<totfact> 0.28652831E+03</totfact>
</mgrwt>
</event>
<event>
 4    1  0.3541639E-005  0.9360358E+03  0.7818608E-02  0.9381623E-01
          2   -1    0    0  501    0  0.00000000000E+00  0.00000000000E+00  0.76097704098E+03  0.76097704098E+03  0.25500000000E-02 0.  1.
         -2   -1    0    0    0  501 -0.00000000000E+00 -0.00000000000E+00 -0.28784146350E+03  0.28784146351E+03  0.25500000000E-02 0. -1.
    5000001    1    1    2    0    0 -0.43336905951E+03  0.60613975479E+02  0.21612232272E+03  0.51518603838E+03  0.16500000000E+03 0.  0.
   -5000001    1    1    2    0    0  0.43336905951E+03 -0.60613975479E+02  0.25701325475E+03  0.53363246611E+03  0.16500000000E+03 0.  0.
<mgrwt>
<rscale>  0 0.93603578E+03</rscale>
<asrwt>0</asrwt>
<pdfrwt beam="1">  1        2 0.10871100E+00 0.93603578E+03</pdfrwt>
<pdfrwt beam="2">  1       -2 0.41120210E-01 0.93603578E+03</pdfrwt>
<totfact> 0.22703955E+02</totfact>
</mgrwt>
</event>
<event>
 4    1  0.3541639E-005  0.5676398E+03  0.7818608E-02  0.9974915E-01
          2   -1    0    0  501    0  0.00000000000E+00  0.00000000000E+00  0.39504164500E+03  0.39504164500E+03  0.25500000000E-02 0. -1.
         -2   -1    0    0    0  501 -0.00000000000E+00 -0.00000000000E+00 -0.20391199030E+03  0.20391199032E+03  0.25500000000E-02 0.  1.
    5000001    1    1    2    0    0 -0.54969327857E+02 -0.19227480375E+03 -0.26294175066E+02  0.26059088780E+03  0.16500000000E+03 0.  0.
   -5000001    1    1    2    0    0  0.54969327857E+02  0.19227480375E+03  0.21742382976E+03  0.33836274752E+03  0.16500000000E+03 0.  0.
<mgrwt>
<rscale>  0 0.56763977E+03</rscale>
<asrwt>0</asrwt>
<pdfrwt beam="1">  1        2 0.56434521E-01 0.56763977E+03</pdfrwt>
<pdfrwt beam="2">  1       -2 0.29130284E-01 0.56763977E+03</pdfrwt>
<totfact> 0.95182220E+02</totfact>
</mgrwt>
</event>
<event>
 4    1  0.3541639E-005  0.3877745E+03  0.7818608E-02  0.1048097E+00
          2   -1    0    0  501    0  0.00000000000E+00  0.00000000000E+00  0.14784592131E+04  0.14784592131E+04  0.25500000000E-02 0.  1.
         -2   -1    0    0    0  501 -0.00000000000E+00 -0.00000000000E+00 -0.25426656761E+02  0.25426656888E+02  0.25500000000E-02 0. -1.
    5000001    1    1    2    0    0  0.98847331113E+02 -0.18547765902E+02  0.78813778958E+03  0.81148073906E+03  0.16500000000E+03 0.  0.
   -5000001    1    1    2    0    0 -0.98847331113E+02  0.18547765902E+02  0.66489476679E+03  0.69240513097E+03  0.16500000000E+03 0.  0.
<mgrwt>
<rscale>  0 0.38777455E+03</rscale>
<asrwt>0</asrwt>
<pdfrwt beam="1">  1        2 0.21120852E+00 0.38777455E+03</pdfrwt>
<pdfrwt beam="2">  1       -2 0.36323786E-02 0.38777455E+03</pdfrwt>
<totfact> 0.51048379E+03</totfact>
</mgrwt>
</event>
<event>
 4    1  0.3541639E-005  0.6233864E+03  0.7818608E-02  0.9858040E-01
         -2   -1    0    0    0  501 -0.00000000000E+00  0.00000000000E+00  0.12853799225E+03  0.12853799228E+03  0.25500000000E-02 0. -1.
          2   -1    0    0  501    0  0.00000000000E+00 -0.00000000000E+00 -0.75582819426E+03  0.75582819426E+03  0.25500000000E-02 0.  1.
    5000001    1    1    2    0    0  0.17042901558E+03  0.20163323687E+03 -0.29233574161E+03  0.42706814138E+03  0.16500000000E+03 0.  0.
   -5000001    1    1    2    0    0 -0.17042901558E+03 -0.20163323687E+03 -0.33495446040E+03  0.45729804516E+03  0.16500000000E+03 0.  0.
<mgrwt>
<rscale>  0 0.62338636E+03</rscale>
<asrwt>0</asrwt>
<pdfrwt beam="1">  1        2 0.10797545E+00 0.62338636E+03</pdfrwt>
<pdfrwt beam="2">  1       -2 0.18362571E-01 0.62338636E+03</pdfrwt>
<totfact> 0.10152547E+03</totfact>
</mgrwt>
</event>
<event>
 4    1  0.3541639E-005  0.6776252E+03  0.7818608E-02  0.9756280E-01
         -2   -1    0    0    0  501 -0.00000000000E+00  0.00000000000E+00  0.15244502027E+03  0.15244502029E+03  0.25500000000E-02 0. -1.
          2   -1    0    0  501    0  0.00000000000E+00 -0.00000000000E+00 -0.75301896368E+03  0.75301896369E+03  0.25500000000E-02 0.  1.
    5000001    1    1    2    0    0 -0.20481962568E+03 -0.16529341671E+03 -0.11954472976E+03  0.33284971847E+03  0.16500000000E+03 0.  0.
   -5000001    1    1    2    0    0  0.20481962568E+03  0.16529341671E+03 -0.48102921366E+03  0.57261426551E+03  0.16500000000E+03 0.  0.
<mgrwt>
<rscale>  0 0.67762524E+03</rscale>
<asrwt>0</asrwt>
<pdfrwt beam="1">  1        2 0.10757414E+00 0.67762524E+03</pdfrwt>
<pdfrwt beam="2">  1       -2 0.21777861E-01 0.67762524E+03</pdfrwt>
<totfact> 0.75656868E+02</totfact>
</mgrwt>
</event>
<event>
 4    1  0.3541639E-005  0.5944410E+03  0.7818608E-02  0.9917007E-01
          2   -1    0    0  501    0  0.00000000000E+00  0.00000000000E+00  0.14758740876E+04  0.14758740876E+04  0.25500000000E-02 0.  1.
         -2   -1    0    0    0  501 -0.00000000000E+00 -0.00000000000E+00 -0.59856075791E+02  0.59856075845E+02  0.25500000000E-02 0. -1.
    5000001    1    1    2    0    0  0.17571692758E+03 -0.97667998494E+02  0.10797039434E+04  0.11105859183E+04  0.16500000000E+03 0.  0.
   -5000001    1    1    2    0    0 -0.17571692758E+03  0.97667998494E+02  0.33631406846E+03  0.42514424519E+03  0.16500000000E+03 0.  0.
<mgrwt>
<rscale>  0 0.59444102E+03</rscale>
<asrwt>0</asrwt>
<pdfrwt beam="1">  1        2 0.21083915E+00 0.59444102E+03</pdfrwt>
<pdfrwt beam="2">  1       -2 0.85508683E-02 0.59444102E+03</pdfrwt>
<totfact> 0.13501287E+03</totfact>
</mgrwt>
</event>
<event>
 4    1  0.3541639E-005  0.4715623E+03  0.7818608E-02  0.1021480E+00
          2   -1    0    0  501    0  0.00000000000E+00  0.00000000000E+00  0.11026231035E+03  0.11026231038E+03  0.25500000000E-02 0.  1.
         -2   -1    0    0    0  501 -0.00000000000E+00 -0.00000000000E+00 -0.50418632666E+03  0.50418632667E+03  0.25500000000E-02 0. -1.
    5000001    1    1    2    0    0  0.13991658238E+03  0.33998466231E+02 -0.31081824414E+03  0.38021773580E+03  0.16500000000E+03 0.  0.
   -5000001    1    1    2    0    0 -0.13991658238E+03 -0.33998466231E+02 -0.83105772172E+02  0.23423090125E+03  0.16500000000E+03 0.  0.
<mgrwt>
<rscale>  0 0.47156229E+03</rscale>
<asrwt>0</asrwt>
<pdfrwt beam="1">  1        2 0.15751759E-01 0.47156229E+03</pdfrwt>
<pdfrwt beam="2">  1       -2 0.72026617E-01 0.47156229E+03</pdfrwt>
<totfact> 0.66391483E+02</totfact>
</mgrwt>
</event>
<event>
 4    1  0.3541639E-005  0.5901347E+03  0.7818608E-02  0.9926087E-01
          2   -1    0    0  501    0  0.00000000000E+00  0.00000000000E+00  0.74671619310E+03  0.74671619310E+03  0.25500000000E-02 0.  1.
         -2   -1    0    0    0  501 -0.00000000000E+00 -0.00000000000E+00 -0.11659683906E+03  0.11659683909E+03  0.25500000000E-02 0. -1.
    5000001    1    1    2    0    0  0.42057983738E+01  0.24432316857E+03  0.29849270837E+03  0.41956453185E+03  0.16500000000E+03 0.  0.
   -5000001    1    1    2    0    0 -0.42057983738E+01 -0.24432316857E+03  0.33162664567E+03  0.44374850034E+03  0.16500000000E+03 0.  0.
<mgrwt>
<rscale>  0 0.59013472E+03</rscale>
<asrwt>0</asrwt>
<pdfrwt beam="1">  1        2 0.10667374E+00 0.59013472E+03</pdfrwt>
<pdfrwt beam="2">  1       -2 0.16656691E-01 0.59013472E+03</pdfrwt>
<totfact> 0.12188045E+03</totfact>
</mgrwt>
</event>
<event>
 4    1  0.3541639E-005  0.4650428E+03  0.7818608E-02  0.1023329E+00
         -2   -1    0    0    0  501 -0.00000000000E+00  0.00000000000E+00  0.18317824755E+03  0.18317824757E+03  0.25500000000E-02 0. -1.
          2   -1    0    0  501    0  0.00000000000E+00 -0.00000000000E+00 -0.29515625696E+03  0.29515625697E+03  0.25500000000E-02 0.  1.
    5000001    1    1    2    0    0  0.90989530146E+02  0.99042047462E+02 -0.15221931281E+03  0.26169474766E+03  0.16500000000E+03 0.  0.
   -5000001    1    1    2    0    0 -0.90989530146E+02 -0.99042047462E+02  0.40241303402E+02  0.21663975688E+03  0.16500000000E+03 0.  0.
<mgrwt>
<rscale>  0 0.46504282E+03</rscale>
<asrwt>0</asrwt>
<pdfrwt beam="1">  1        2 0.42165179E-01 0.46504282E+03</pdfrwt>
<pdfrwt beam="2">  1       -2 0.26168321E-01 0.46504282E+03</pdfrwt>
<totfact> 0.15935990E+03</totfact>
</mgrwt>
</event>
<event>
 4    1  0.3541639E-005  0.7390649E+03  0.7818608E-02  0.9652664E-01
         -2   -1    0    0    0  501 -0.00000000000E+00  0.00000000000E+00  0.65814689784E+03  0.65814689784E+03  0.25500000000E-02 0.  1.
          2   -1    0    0  501    0  0.00000000000E+00 -0.00000000000E+00 -0.20748292191E+03  0.20748292193E+03  0.25500000000E-02 0. -1.
    5000001    1    1    2    0    0  0.48101745893E+02  0.27992872704E+03  0.27063983354E+02  0.32959267191E+03  0.16500000000E+03 0.  0.
   -5000001    1    1    2    0    0 -0.48101745893E+02 -0.27992872704E+03  0.42359999257E+03  0.53603714786E+03  0.16500000000E+03 0.  0.
<mgrwt>
<rscale>  0 0.73906493E+03</rscale>
<asrwt>0</asrwt>
<pdfrwt beam="1">  1        2 0.29640418E-01 0.73906493E+03</pdfrwt>
<pdfrwt beam="2">  1       -2 0.94020984E-01 0.73906493E+03</pdfrwt>
<totfact> 0.17381719E+02</totfact>
</mgrwt>
</event>
<event>
 4    1  0.3541639E-005  0.4794129E+03  0.7818608E-02  0.1019297E+00
         -2   -1    0    0    0  501 -0.00000000000E+00  0.00000000000E+00  0.74734195175E+02  0.74734195219E+02  0.25500000000E-02 0. -1.
          2   -1    0    0  501    0  0.00000000000E+00 -0.00000000000E+00 -0.76884740253E+03  0.76884740253E+03  0.25500000000E-02 0.  1.
    5000001    1    1    2    0    0 -0.14249959714E+03 -0.43689212870E+02 -0.18948214333E+03  0.29213586762E+03  0.16500000000E+03 0.  0.
   -5000001    1    1    2    0    0  0.14249959714E+03  0.43689212870E+02 -0.50463106402E+03  0.55144573014E+03  0.16500000000E+03 0.  0.
<mgrwt>
<rscale>  0 0.47941294E+03</rscale>
<asrwt>0</asrwt>
<pdfrwt beam="1">  1        2 0.10983534E+00 0.47941294E+03</pdfrwt>
<pdfrwt beam="2">  1       -2 0.10676314E-01 0.47941294E+03</pdfrwt>
<totfact> 0.24594348E+03</totfact>
</mgrwt>
</event>
<event>
 4    1  0.3541639E-005  0.3899092E+03  0.7818608E-02  0.1047331E+00
          2   -1    0    0  501    0  0.00000000000E+00  0.00000000000E+00  0.14382247928E+04  0.14382247928E+04  0.25500000000E-02 0.  1.
         -2   -1    0    0    0  501 -0.00000000000E+00 -0.00000000000E+00 -0.26426536585E+02  0.26426536708E+02  0.25500000000E-02 0. -1.
    5000001    1    1    2    0    0 -0.59301820401E+02  0.78838864251E+02  0.58417655119E+03  0.61499554094E+03  0.16500000000E+03 0.  0.
   -5000001    1    1    2    0    0  0.59301820401E+02 -0.78838864251E+02  0.82762170505E+03  0.84965578859E+03  0.16500000000E+03 0.  0.
<mgrwt>
<rscale>  0 0.38990922E+03</rscale>
<asrwt>0</asrwt>
<pdfrwt beam="1">  1        2 0.20546069E+00 0.38990922E+03</pdfrwt>
<pdfrwt beam="2">  1       -2 0.37752194E-02 0.38990922E+03</pdfrwt>
<totfact> 0.50511933E+03</totfact>
</mgrwt>
</event>
<event>
 4    1  0.3541639E-005  0.3913308E+03  0.7818608E-02  0.1046824E+00
         -2   -1    0    0    0  501 -0.00000000000E+00  0.00000000000E+00  0.34057474594E+02  0.34057474689E+02  0.25500000000E-02 0. -1.
          2   -1    0    0  501    0  0.00000000000E+00 -0.00000000000E+00 -0.11241278997E+04  0.11241278997E+04  0.25500000000E-02 0.  1.
    5000001    1    1    2    0    0 -0.71458124220E+02  0.51848640191E+02 -0.71415834631E+03  0.73826938756E+03  0.16500000000E+03 0.  0.
   -5000001    1    1    2    0    0  0.71458124220E+02 -0.51848640191E+02 -0.37591207875E+03  0.41991598678E+03  0.16500000000E+03 0.  0.
<mgrwt>
<rscale>  0 0.39133084E+03</rscale>
<asrwt>0</asrwt>
<pdfrwt beam="1">  1        2 0.16058968E+00 0.39133084E+03</pdfrwt>
<pdfrwt beam="2">  1       -2 0.48653542E-02 0.39133084E+03</pdfrwt>
<totfact> 0.50678182E+03</totfact>
</mgrwt>
</event>
<event>
 4    1  0.3541639E-005  0.8678877E+03  0.7818608E-02  0.9466638E-01
          2   -1    0    0  501    0  0.00000000000E+00  0.00000000000E+00  0.47437410192E+03  0.47437410192E+03  0.25500000000E-02 0.  1.
         -2   -1    0    0    0  501 -0.00000000000E+00 -0.00000000000E+00 -0.39695940301E+03  0.39695940301E+03  0.25500000000E-02 0. -1.
    5000001    1    1    2    0    0  0.27629973202E+03 -0.28925284046E+03  0.58127596573E+01  0.43274419211E+03  0.16500000000E+03 0.  0.
   -5000001    1    1    2    0    0 -0.27629973202E+03  0.28925284046E+03  0.71601939255E+02  0.43858931283E+03  0.16500000000E+03 0.  0.
<mgrwt>
<rscale>  0 0.86788769E+03</rscale>
<asrwt>0</asrwt>
<pdfrwt beam="1">  1        2 0.67767729E-01 0.86788769E+03</pdfrwt>
<pdfrwt beam="2">  1       -2 0.56708486E-01 0.86788769E+03</pdfrwt>
<totfact> 0.20895819E+02</totfact>
</mgrwt>
</event>
<event>
 4    1  0.3541639E-005  0.5863522E+03  0.7818608E-02  0.9934133E-01
          2   -1    0    0  501    0  0.00000000000E+00  0.00000000000E+00  0.39527341506E+03  0.39527341507E+03  0.25500000000E-02 0.  1.
         -2   -1    0    0    0  501 -0.00000000000E+00 -0.00000000000E+00 -0.21745006004E+03  0.21745006006E+03  0.25500000000E-02 0. -1.
    5000001    1    1    2    0    0  0.87303745429E+02  0.22586518194E+03  0.78986973349E+02  0.30348141020E+03  0.16500000000E+03 0.  0.
   -5000001    1    1    2    0    0 -0.87303745429E+02 -0.22586518194E+03  0.98836381671E+02  0.30924206492E+03  0.16500000000E+03 0.  0.
<mgrwt>
<rscale>  0 0.58635221E+03</rscale>
<asrwt>0</asrwt>
<pdfrwt beam="1">  1        2 0.56467631E-01 0.58635221E+03</pdfrwt>
<pdfrwt beam="2">  1       -2 0.31064294E-01 0.58635221E+03</pdfrwt>
<totfact> 0.84460208E+02</totfact>
</mgrwt>
</event>
<event>
 4    1  0.3541639E-005  0.4928585E+03  0.7818608E-02  0.1015660E+00
          2   -1    0    0  501    0  0.00000000000E+00  0.00000000000E+00  0.38423731928E+04  0.38423731928E+04  0.25500000000E-02 0.  1.
         -2   -1    0    0    0  501 -0.00000000000E+00 -0.00000000000E+00 -0.15804654845E+02  0.15804655050E+02  0.25500000000E-02 0. -1.
    5000001    1    1    2    0    0  0.23101331862E+02  0.18089494521E+03  0.17905717574E+04  0.18073817723E+04  0.16500000000E+03 0.  0.
   -5000001    1    1    2    0    0 -0.23101331862E+02 -0.18089494521E+03  0.20359967806E+04  0.20507960755E+04  0.16500000000E+03 0.  0.
<mgrwt>
<rscale>  0 0.49285853E+03</rscale>
<asrwt>0</asrwt>
<pdfrwt beam="1">  1        2 0.54891107E+00 0.49285853E+03</pdfrwt>
<pdfrwt beam="2">  1       -2 0.22578053E-02 0.49285853E+03</pdfrwt>
<totfact> 0.56572194E+02</totfact>
</mgrwt>
</event>
<event>
 4    1  0.3541639E-005  0.6533310E+03  0.7818608E-02  0.9800549E-01
         -2   -1    0    0    0  501 -0.00000000000E+00  0.00000000000E+00  0.51388031141E+03  0.51388031141E+03  0.25500000000E-02 0. -1.
          2   -1    0    0  501    0  0.00000000000E+00 -0.00000000000E+00 -0.20765602329E+03  0.20765602331E+03  0.25500000000E-02 0.  1.
    5000001    1    1    2    0    0  0.33922042931E+02  0.18130167402E+03 -0.82371311197E+02  0.26082759614E+03  0.16500000000E+03 0.  0.
   -5000001    1    1    2    0    0 -0.33922042931E+02 -0.18130167402E+03  0.38859559931E+03  0.46070873858E+03  0.16500000000E+03 0.  0.
<mgrwt>
<rscale>  0 0.65333098E+03</rscale>
<asrwt>0</asrwt>
<pdfrwt beam="1">  1        2 0.29665147E-01 0.65333098E+03</pdfrwt>
<pdfrwt beam="2">  1       -2 0.73411472E-01 0.65333098E+03</pdfrwt>
<totfact> 0.30473688E+02</totfact>
</mgrwt>
</event>
<event>
 4    1  0.3541639E-005  0.4849771E+03  0.7818608E-02  0.1017776E+00
          2   -1    0    0  501    0  0.00000000000E+00  0.00000000000E+00  0.12027201600E+03  0.12027201603E+03  0.25500000000E-02 0.  1.
         -2   -1    0    0    0  501 -0.00000000000E+00 -0.00000000000E+00 -0.48889752698E+03  0.48889752699E+03  0.25500000000E-02 0. -1.
    5000001    1    1    2    0    0  0.12360470474E+02  0.17726507828E+03 -0.18436878787E+03  0.30461867827E+03  0.16500000000E+03 0.  0.
   -5000001    1    1    2    0    0 -0.12360470474E+02 -0.17726507828E+03 -0.18425672310E+03  0.30455086475E+03  0.16500000000E+03 0.  0.
<mgrwt>
<rscale>  0 0.48497708E+03</rscale>
<asrwt>0</asrwt>
<pdfrwt beam="1">  1        2 0.17181717E-01 0.48497708E+03</pdfrwt>
<pdfrwt beam="2">  1       -2 0.69842503E-01 0.48497708E+03</pdfrwt>
<totfact> 0.63998572E+02</totfact>
</mgrwt>
</event>
<event>
 4    1  0.3541639E-005  0.7728554E+03  0.7818608E-02  0.9600161E-01
         -2   -1    0    0    0  501 -0.00000000000E+00  0.00000000000E+00  0.27456806081E+03  0.27456806082E+03  0.25500000000E-02 0. -1.
          2   -1    0    0  501    0  0.00000000000E+00 -0.00000000000E+00 -0.54385924501E+03  0.54385924501E+03  0.25500000000E-02 0.  1.
    5000001    1    1    2    0    0  0.23201867245E+03  0.26105959173E+03 -0.14608062915E+03  0.41297617971E+03  0.16500000000E+03 0.  0.
   -5000001    1    1    2    0    0 -0.23201867245E+03 -0.26105959173E+03 -0.12321055505E+03  0.40545112612E+03  0.16500000000E+03 0.  0.
<mgrwt>
<rscale>  0 0.77285543E+03</rscale>
<asrwt>0</asrwt>
<pdfrwt beam="1">  1        2 0.77694177E-01 0.77285543E+03</pdfrwt>
<pdfrwt beam="2">  1       -2 0.39224009E-01 0.77285543E+03</pdfrwt>
<totfact> 0.37633576E+02</totfact>
</mgrwt>
</event>
<event>
 4    1  0.3541639E-005  0.4519730E+03  0.7818608E-02  0.1027135E+00
          2   -1    0    0  501    0  0.00000000000E+00  0.00000000000E+00  0.18450239968E+04  0.18450239968E+04  0.25500000000E-02 0.  1.
         -2   -1    0    0    0  501 -0.00000000000E+00 -0.00000000000E+00 -0.27679800830E+02  0.27679800948E+02  0.25500000000E-02 0. -1.
    5000001    1    1    2    0    0  0.71683327973E+02 -0.13148096906E+03  0.10647606611E+04  0.10878262775E+04  0.16500000000E+03 0.  0.
   -5000001    1    1    2    0    0 -0.71683327973E+02  0.13148096906E+03  0.75258353488E+03  0.78487752019E+03  0.16500000000E+03 0.  0.
<mgrwt>
<rscale>  0 0.45197299E+03</rscale>
<asrwt>0</asrwt>
<pdfrwt beam="1">  1        2 0.26357490E+00 0.45197299E+03</pdfrwt>
<pdfrwt beam="2">  1       -2 0.39542567E-02 0.45197299E+03</pdfrwt>
<totfact> 0.29299798E+03</totfact>
</mgrwt>
</event>
<event>
 4    1  0.3541639E-005  0.5736371E+03  0.7818608E-02  0.9961662E-01
          2   -1    0    0  501    0  0.00000000000E+00  0.00000000000E+00  0.65816052989E+03  0.65816052989E+03  0.25500000000E-02 0.  1.
         -2   -1    0    0    0  501 -0.00000000000E+00 -0.00000000000E+00 -0.12499212160E+03  0.12499212163E+03  0.25500000000E-02 0. -1.
    5000001    1    1    2    0    0 -0.17211711668E+03 -0.25122446238E+02  0.51653351537E+02  0.24525192738E+03  0.16500000000E+03 0.  0.
   -5000001    1    1    2    0    0  0.17211711668E+03  0.25122446238E+02  0.48151505675E+03  0.53790072414E+03  0.16500000000E+03 0.  0.
<mgrwt>
<rscale>  0 0.57363710E+03</rscale>
<asrwt>0</asrwt>
<pdfrwt beam="1">  1        2 0.94022933E-01 0.57363710E+03</pdfrwt>
<pdfrwt beam="2">  1       -2 0.17856017E-01 0.57363710E+03</pdfrwt>
<totfact> 0.12632738E+03</totfact>
</mgrwt>
</event>
<event>
 4    1  0.3541639E-005  0.6497798E+03  0.7818608E-02  0.9807192E-01
          2   -1    0    0  501    0  0.00000000000E+00  0.00000000000E+00  0.83285078470E+03  0.83285078471E+03  0.25500000000E-02 0.  1.
         -2   -1    0    0    0  501 -0.00000000000E+00 -0.00000000000E+00 -0.12673751958E+03  0.12673751960E+03  0.25500000000E-02 0. -1.
    5000001    1    1    2    0    0  0.18320578352E+03  0.20092386901E+03  0.25516781579E+03  0.40776264477E+03  0.16500000000E+03 0.  0.
   -5000001    1    1    2    0    0 -0.18320578352E+03 -0.20092386901E+03  0.45094544933E+03  0.55182565954E+03  0.16500000000E+03 0.  0.
<mgrwt>
<rscale>  0 0.64977979E+03</rscale>
<asrwt>0</asrwt>
<pdfrwt beam="1">  1        2 0.11897869E+00 0.64977979E+03</pdfrwt>
<pdfrwt beam="2">  1       -2 0.18105360E-01 0.64977979E+03</pdfrwt>
<totfact> 0.91849777E+02</totfact>
</mgrwt>
</event>
<event>
 4    1  0.3541639E-005  0.4809901E+03  0.7818608E-02  0.1018863E+00
         -2   -1    0    0    0  501 -0.00000000000E+00  0.00000000000E+00  0.14889541674E+02  0.14889541893E+02  0.25500000000E-02 0. -1.
          2   -1    0    0  501    0  0.00000000000E+00 -0.00000000000E+00 -0.38844627823E+04  0.38844627823E+04  0.25500000000E-02 0.  1.
    5000001    1    1    2    0    0  0.74640345504E+02 -0.12299183850E+03 -0.27420143361E+04  0.27507391357E+04  0.16500000000E+03 0.  0.
   -5000001    1    1    2    0    0 -0.74640345504E+02  0.12299183850E+03 -0.11275589046E+04  0.11486131885E+04  0.16500000000E+03 0.  0.
<mgrwt>
<rscale>  0 0.48099011E+03</rscale>
<asrwt>0</asrwt>
<pdfrwt beam="1">  1        2 0.55492261E+00 0.48099011E+03</pdfrwt>
<pdfrwt beam="2">  1       -2 0.21270799E-02 0.48099011E+03</pdfrwt>
<totfact> 0.58243566E+02</totfact>
</mgrwt>
</event>
<event>
 4    1  0.3541639E-005  0.4041477E+03  0.7818608E-02  0.1042353E+00
          2   -1    0    0  501    0  0.00000000000E+00  0.00000000000E+00  0.44334565233E+03  0.44334565233E+03  0.25500000000E-02 0.  1.
         -2   -1    0    0    0  501 -0.00000000000E+00 -0.00000000000E+00 -0.92103866610E+02  0.92103866646E+02  0.25500000000E-02 0. -1.
    5000001    1    1    2    0    0  0.96435330562E+02 -0.63946840581E+02  0.15597513850E+03  0.25483762523E+03  0.16500000000E+03 0.  0.
   -5000001    1    1    2    0    0 -0.96435330562E+02  0.63946840581E+02  0.19526664721E+03  0.28061189375E+03  0.16500000000E+03 0.  0.
<mgrwt>
<rscale>  0 0.40414774E+03</rscale>
<asrwt>0</asrwt>
<pdfrwt beam="1">  1        2 0.63335093E-01 0.40414774E+03</pdfrwt>
<pdfrwt beam="2">  1       -2 0.13157695E-01 0.40414774E+03</pdfrwt>
<totfact> 0.33122292E+03</totfact>
</mgrwt>
</event>
<event>
 4    1  0.3541639E-005  0.3565022E+03  0.7818608E-02  0.1059977E+00
          2   -1    0    0  501    0  0.00000000000E+00  0.00000000000E+00  0.55387000058E+03  0.55387000058E+03  0.25500000000E-02 0.  1.
         -2   -1    0    0    0  501 -0.00000000000E+00 -0.00000000000E+00 -0.57366252237E+02  0.57366252294E+02  0.25500000000E-02 0. -1.
    5000001    1    1    2    0    0 -0.43795824737E+02  0.51210143654E+02  0.24343493912E+03  0.30170535737E+03  0.16500000000E+03 0.  0.
   -5000001    1    1    2    0    0  0.43795824737E+02 -0.51210143654E+02  0.25306880921E+03  0.30953089551E+03  0.16500000000E+03 0.  0.
<mgrwt>
<rscale>  0 0.35650215E+03</rscale>
<asrwt>0</asrwt>
<pdfrwt beam="1">  1        2 0.79124292E-01 0.35650215E+03</pdfrwt>
<pdfrwt beam="2">  1       -2 0.81951782E-02 0.35650215E+03</pdfrwt>
<totfact> 0.55150439E+03</totfact>
</mgrwt>
</event>
<event>
 4    1  0.3541639E-005  0.5623446E+03  0.7818608E-02  0.9986764E-01
         -2   -1    0    0    0  501 -0.00000000000E+00  0.00000000000E+00  0.32823235825E+02  0.32823235924E+02  0.25500000000E-02 0. -1.
          2   -1    0    0  501    0  0.00000000000E+00 -0.00000000000E+00 -0.24085940793E+04  0.24085940793E+04  0.25500000000E-02 0.  1.
    5000001    1    1    2    0    0 -0.23379386157E+02  0.22630783153E+03 -0.11512978331E+04  0.11851048606E+04  0.16500000000E+03 0.  0.
   -5000001    1    1    2    0    0  0.23379386157E+02 -0.22630783153E+03 -0.12244730104E+04  0.12563124546E+04  0.16500000000E+03 0.  0.
<mgrwt>
<rscale>  0 0.56234456E+03</rscale>
<asrwt>0</asrwt>
<pdfrwt beam="1">  1        2 0.34408476E+00 0.56234456E+03</pdfrwt>
<pdfrwt beam="2">  1       -2 0.46890352E-02 0.56234456E+03</pdfrwt>
<totfact> 0.11711199E+03</totfact>
</mgrwt>
</event>
<event>
 4    1  0.3541639E-005  0.5995118E+03  0.7818608E-02  0.9906419E-01
          2   -1    0    0  501    0  0.00000000000E+00  0.00000000000E+00  0.74189113956E+03  0.74189113957E+03  0.25500000000E-02 0.  1.
         -2   -1    0    0    0  501 -0.00000000000E+00 -0.00000000000E+00 -0.12111426367E+03  0.12111426369E+03  0.25500000000E-02 0. -1.
    5000001    1    1    2    0    0 -0.96932104825E+02  0.16228533390E+03  0.74307164950E+02  0.26168476706E+03  0.16500000000E+03 0.  0.
   -5000001    1    1    2    0    0  0.96932104825E+02 -0.16228533390E+03  0.54646971094E+03  0.60132063621E+03  0.16500000000E+03 0.  0.
<mgrwt>
<rscale>  0 0.59951180E+03</rscale>
<asrwt>0</asrwt>
<pdfrwt beam="1">  1        2 0.10598445E+00 0.59951180E+03</pdfrwt>
<pdfrwt beam="2">  1       -2 0.17302038E-01 0.59951180E+03</pdfrwt>
<totfact> 0.11513829E+03</totfact>
</mgrwt>
</event>
<event>
 4    1  0.3541639E-005  0.5806822E+03  0.7818608E-02  0.9946315E-01
          2   -1    0    0  501    0  0.00000000000E+00  0.00000000000E+00  0.17749066872E+04  0.17749066872E+04  0.25500000000E-02 0.  1.
         -2   -1    0    0    0  501 -0.00000000000E+00 -0.00000000000E+00 -0.47494294595E+02  0.47494294664E+02  0.25500000000E-02 0. -1.
    5000001    1    1    2    0    0  0.56561737600E+02 -0.22032287984E+03  0.63454990708E+03  0.69398846252E+03  0.16500000000E+03 0.  0.
   -5000001    1    1    2    0    0 -0.56561737600E+02  0.22032287984E+03  0.10928624855E+04  0.11284125194E+04  0.16500000000E+03 0.  0.
<mgrwt>
<rscale>  0 0.58068215E+03</rscale>
<asrwt>0</asrwt>
<pdfrwt beam="1">  1        2 0.25355808E+00 0.58068215E+03</pdfrwt>
<pdfrwt beam="2">  1       -2 0.67848997E-02 0.58068215E+03</pdfrwt>
<totfact> 0.13703776E+03</totfact>
</mgrwt>
</event>
<event>
 4    1  0.3541639E-005  0.5068830E+03  0.7818608E-02  0.1011998E+00
         -2   -1    0    0    0  501 -0.00000000000E+00  0.00000000000E+00  0.43941952208E+02  0.43941952282E+02  0.25500000000E-02 0. -1.
          2   -1    0    0  501    0  0.00000000000E+00 -0.00000000000E+00 -0.14617603550E+04  0.14617603551E+04  0.25500000000E-02 0.  1.
    5000001    1    1    2    0    0 -0.18320493706E+03 -0.58449684310E+02 -0.69341999274E+03  0.73826600957E+03  0.16500000000E+03 0.  0.
   -5000001    1    1    2    0    0  0.18320493706E+03  0.58449684310E+02 -0.72439841010E+03  0.76743629776E+03  0.16500000000E+03 0.  0.
<mgrwt>
<rscale>  0 0.50688304E+03</rscale>
<asrwt>0</asrwt>
<pdfrwt beam="1">  1        2 0.20882288E+00 0.50688304E+03</pdfrwt>
<pdfrwt beam="2">  1       -2 0.62774227E-02 0.50688304E+03</pdfrwt>
<totfact> 0.22446434E+03</totfact>
</mgrwt>
</event>
<event>
 4    1  0.3541639E-005  0.6976174E+03  0.7818608E-02  0.9721315E-01
         -2   -1    0    0    0  501 -0.00000000000E+00  0.00000000000E+00  0.20618778628E+03  0.20618778630E+03  0.25500000000E-02 0. -1.
          2   -1    0    0  501    0  0.00000000000E+00 -0.00000000000E+00 -0.59008108874E+03  0.59008108875E+03  0.25500000000E-02 0.  1.
    5000001    1    1    2    0    0  0.20531874935E+03  0.18533059856E+03 -0.34482468905E+03  0.47183925841E+03  0.16500000000E+03 0.  0.
   -5000001    1    1    2    0    0 -0.20531874935E+03 -0.18533059856E+03 -0.39068613407E+02  0.32442961663E+03  0.16500000000E+03 0.  0.
<mgrwt>
<rscale>  0 0.69761741E+03</rscale>
<asrwt>0</asrwt>
<pdfrwt beam="1">  1        2 0.84297298E-01 0.69761741E+03</pdfrwt>
<pdfrwt beam="2">  1       -2 0.29455398E-01 0.69761741E+03</pdfrwt>
<totfact> 0.58959020E+02</totfact>
</mgrwt>
</event>
<event>
 4    1  0.3541639E-005  0.7019766E+03  0.7818608E-02  0.9713858E-01
          2   -1    0    0  501    0  0.00000000000E+00  0.00000000000E+00  0.79144125970E+03  0.79144125970E+03  0.25500000000E-02 0.  1.
         -2   -1    0    0    0  501 -0.00000000000E+00 -0.00000000000E+00 -0.15565624161E+03  0.15565624163E+03  0.25500000000E-02 0. -1.
    5000001    1    1    2    0    0  0.19937808703E+03 -0.17063220669E+03  0.95785051731E+02  0.32444837445E+03  0.16500000000E+03 0.  0.
   -5000001    1    1    2    0    0 -0.19937808703E+03  0.17063220669E+03  0.53999996635E+03  0.62264912689E+03  0.16500000000E+03 0.  0.
<mgrwt>
<rscale>  0 0.70197656E+03</rscale>
<asrwt>0</asrwt>
<pdfrwt beam="1">  1        2 0.11306304E+00 0.70197656E+03</pdfrwt>
<pdfrwt beam="2">  1       -2 0.22236606E-01 0.70197656E+03</pdfrwt>
<totfact> 0.68416001E+02</totfact>
</mgrwt>
</event>
<event>
 4    1  0.3541639E-005  0.4276123E+03  0.7818608E-02  0.1034617E+00
         -2   -1    0    0    0  501 -0.00000000000E+00  0.00000000000E+00  0.22335294099E+02  0.22335294245E+02  0.25500000000E-02 0. -1.
          2   -1    0    0  501    0  0.00000000000E+00 -0.00000000000E+00 -0.20466738021E+04  0.20466738021E+04  0.25500000000E-02 0.  1.
    5000001    1    1    2    0    0 -0.95656801245E+02  0.83692450148E+02 -0.12458957391E+04  0.12631848014E+04  0.16500000000E+03 0.  0.
   -5000001    1    1    2    0    0  0.95656801245E+02 -0.83692450148E+02 -0.77844276890E+03  0.80582429493E+03  0.16500000000E+03 0.  0.
<mgrwt>
<rscale>  0 0.42761226E+03</rscale>
<asrwt>0</asrwt>
<pdfrwt beam="1">  1        2 0.29238185E+00 0.42761226E+03</pdfrwt>
<pdfrwt beam="2">  1       -2 0.31907576E-02 0.42761226E+03</pdfrwt>
<totfact> 0.32235586E+03</totfact>
</mgrwt>
</event>
<event>
 4    1  0.3541639E-005  0.7698491E+03  0.7818608E-02  0.9604715E-01
          2   -1    0    0  501    0  0.00000000000E+00  0.00000000000E+00  0.28039482565E+04  0.28039482565E+04  0.25500000000E-02 0.  1.
         -2   -1    0    0    0  501 -0.00000000000E+00 -0.00000000000E+00 -0.52842245975E+02  0.52842246036E+02  0.25500000000E-02 0. -1.
    5000001    1    1    2    0    0  0.30533017674E+03 -0.11941056537E+03  0.18060193521E+04  0.18429368682E+04  0.16500000000E+03 0.  0.
   -5000001    1    1    2    0    0 -0.30533017674E+03  0.11941056537E+03  0.94508665837E+03  0.10138536343E+04  0.16500000000E+03 0.  0.
<mgrwt>
<rscale>  0 0.76984914E+03</rscale>
<asrwt>0</asrwt>
<pdfrwt beam="1">  1        2 0.40056401E+00 0.76984914E+03</pdfrwt>
<pdfrwt beam="2">  1       -2 0.75488929E-02 0.76984914E+03</pdfrwt>
<totfact> 0.33982506E+02</totfact>
</mgrwt>
</event>
<event>
 4    1  0.3541639E-005  0.6299083E+03  0.7818608E-02  0.9845228E-01
          2   -1    0    0  501    0  0.00000000000E+00  0.00000000000E+00  0.13384365257E+04  0.13384365257E+04  0.25500000000E-02 0.  1.
         -2   -1    0    0    0  501 -0.00000000000E+00 -0.00000000000E+00 -0.74113436078E+02  0.74113436122E+02  0.25500000000E-02 0. -1.
    5000001    1    1    2    0    0  0.82354136643E+02 -0.20240354388E+03  0.28315863272E+03  0.39389492213E+03  0.16500000000E+03 0.  0.
   -5000001    1    1    2    0    0 -0.82354136643E+02  0.20240354388E+03  0.98116445692E+03  0.10186550397E+04  0.16500000000E+03 0.  0.
<mgrwt>
<rscale>  0 0.62990834E+03</rscale>
<asrwt>0</asrwt>
<pdfrwt beam="1">  1        2 0.19120520E+00 0.62990834E+03</pdfrwt>
<pdfrwt beam="2">  1       -2 0.10587635E-01 0.62990834E+03</pdfrwt>
<totfact> 0.11295943E+03</totfact>
</mgrwt>
</event>
<event>
 4    1  0.3541639E-005  0.5289620E+03  0.7818608E-02  0.1006484E+00
          2   -1    0    0  501    0  0.00000000000E+00  0.00000000000E+00  0.17261348713E+04  0.17261348713E+04  0.25500000000E-02 0.  1.
         -2   -1    0    0    0  501 -0.00000000000E+00 -0.00000000000E+00 -0.40524176592E+02  0.40524176673E+02  0.25500000000E-02 0. -1.
    5000001    1    1    2    0    0 -0.19275631171E+03  0.15701518618E+02  0.10864929755E+04  0.11158375864E+04  0.16500000000E+03 0.  0.
   -5000001    1    1    2    0    0  0.19275631171E+03 -0.15701518618E+02  0.59911771922E+03  0.65082146160E+03  0.16500000000E+03 0.  0.
<mgrwt>
<rscale>  0 0.52896198E+03</rscale>
<asrwt>0</asrwt>
<pdfrwt beam="1">  1        2 0.24659073E+00 0.52896198E+03</pdfrwt>
<pdfrwt beam="2">  1       -2 0.57891674E-02 0.52896198E+03</pdfrwt>
<totfact> 0.18637506E+03</totfact>
</mgrwt>
</event>
<event>
 4    1  0.3541639E-005  0.4979206E+03  0.7818608E-02  0.1014323E+00
         -2   -1    0    0    0  501 -0.00000000000E+00  0.00000000000E+00  0.16773784572E+03  0.16773784574E+03  0.25500000000E-02 0. -1.
          2   -1    0    0  501    0  0.00000000000E+00 -0.00000000000E+00 -0.36951254784E+03  0.36951254785E+03  0.25500000000E-02 0.  1.
    5000001    1    1    2    0    0 -0.98913140850E+02  0.11346798699E+03 -0.21956350230E+03  0.31319630433E+03  0.16500000000E+03 0.  0.
   -5000001    1    1    2    0    0  0.98913140850E+02 -0.11346798699E+03  0.17788800178E+02  0.22405408927E+03  0.16500000000E+03 0.  0.
<mgrwt>
<rscale>  0 0.49792063E+03</rscale>
<asrwt>0</asrwt>
<pdfrwt beam="1">  1        2 0.52787507E-01 0.49792063E+03</pdfrwt>
<pdfrwt beam="2">  1       -2 0.23962549E-01 0.49792063E+03</pdfrwt>
<totfact> 0.14583380E+03</totfact>
</mgrwt>
</event>
<event>
 4    1  0.3541639E-005  0.6750128E+03  0.7818608E-02  0.9760944E-01
          2   -1    0    0  501    0  0.00000000000E+00  0.00000000000E+00  0.17380595016E+04  0.17380595016E+04  0.25500000000E-02 0.  1.
         -2   -1    0    0    0  501 -0.00000000000E+00 -0.00000000000E+00 -0.65538938310E+02  0.65538938359E+02  0.25500000000E-02 0. -1.
    5000001    1    1    2    0    0  0.23763676671E+03 -0.14994096087E+03  0.60131043973E+03  0.68392453500E+03  0.16500000000E+03 0.  0.
   -5000001    1    1    2    0    0 -0.23763676671E+03  0.14994096087E+03  0.10712101235E+04  0.11196739049E+04  0.16500000000E+03 0.  0.
<mgrwt>
<rscale>  0 0.67501281E+03</rscale>
<asrwt>0</asrwt>
<pdfrwt beam="1">  1        2 0.24829420E+00 0.67501281E+03</pdfrwt>
<pdfrwt beam="2">  1       -2 0.93627060E-02 0.67501281E+03</pdfrwt>
<totfact> 0.85202067E+02</totfact>
</mgrwt>
</event>
<event>
 4    1  0.3541639E-005  0.4239162E+03  0.7818608E-02  0.1035799E+00
          2   -1    0    0  501    0  0.00000000000E+00  0.00000000000E+00  0.61375439300E+03  0.61375439301E+03  0.25500000000E-02 0.  1.
         -2   -1    0    0    0  501 -0.00000000000E+00 -0.00000000000E+00 -0.73199055194E+02  0.73199055238E+02  0.25500000000E-02 0. -1.
    5000001    1    1    2    0    0  0.42975782968E+02 -0.12568446548E+03  0.25796416647E+03  0.33378737838E+03  0.16500000000E+03 0.  0.
   -5000001    1    1    2    0    0 -0.42975782968E+02  0.12568446548E+03  0.28259117134E+03  0.35316606986E+03  0.16500000000E+03 0.  0.
<mgrwt>
<rscale>  0 0.42391623E+03</rscale>
<asrwt>0</asrwt>
<pdfrwt beam="1">  1        2 0.87679199E-01 0.42391623E+03</pdfrwt>
<pdfrwt beam="2">  1       -2 0.10457008E-01 0.42391623E+03</pdfrwt>
<totfact> 0.33336365E+03</totfact>
</mgrwt>
</event>
<event>
 4    1  0.3541639E-005  0.3671613E+03  0.7818608E-02  0.1055784E+00
         -2   -1    0    0    0  501 -0.00000000000E+00  0.00000000000E+00  0.65127271656E+03  0.65127271656E+03  0.25500000000E-02 0. -1.
          2   -1    0    0  501    0  0.00000000000E+00 -0.00000000000E+00 -0.51747680916E+02  0.51747680979E+02  0.25500000000E-02 0.  1.
    5000001    1    1    2    0    0 -0.46061678836E+02  0.52875029378E+02  0.22415053813E+03  0.28702945970E+03  0.16500000000E+03 0.  0.
   -5000001    1    1    2    0    0  0.46061678836E+02 -0.52875029378E+02  0.37537449751E+03  0.41599093784E+03  0.16500000000E+03 0.  0.
<mgrwt>
<rscale>  0 0.36716129E+03</rscale>
<asrwt>0</asrwt>
<pdfrwt beam="1">  1        2 0.73925260E-02 0.36716129E+03</pdfrwt>
<pdfrwt beam="2">  1       -2 0.93038958E-01 0.36716129E+03</pdfrwt>
<totfact> 0.96046322E+02</totfact>
</mgrwt>
</event>
<event>
 4    1  0.3541639E-005  0.3934062E+03  0.7818608E-02  0.1046087E+00
         -2   -1    0    0    0  501 -0.00000000000E+00  0.00000000000E+00  0.93656996980E+02  0.93656997014E+02  0.25500000000E-02 0. -1.
          2   -1    0    0  501    0  0.00000000000E+00 -0.00000000000E+00 -0.41312565648E+03  0.41312565649E+03  0.25500000000E-02 0.  1.
    5000001    1    1    2    0    0 -0.97531262434E+02 -0.33490269742E+02 -0.12255123366E+03  0.22995162576E+03  0.16500000000E+03 0.  0.
   -5000001    1    1    2    0    0  0.97531262434E+02  0.33490269742E+02 -0.19691742584E+03  0.27683102774E+03  0.16500000000E+03 0.  0.
<mgrwt>
<rscale>  0 0.39340619E+03</rscale>
<asrwt>0</asrwt>
<pdfrwt beam="1">  1        2 0.59017950E-01 0.39340619E+03</pdfrwt>
<pdfrwt beam="2">  1       -2 0.13379571E-01 0.39340619E+03</pdfrwt>
<totfact> 0.34811688E+03</totfact>
</mgrwt>
</event>
<event>
 4    1  0.3541639E-005  0.5056827E+03  0.7818608E-02  0.1012306E+00
         -2   -1    0    0    0  501 -0.00000000000E+00  0.00000000000E+00  0.60763727924E+02  0.60763727978E+02  0.25500000000E-02 0. -1.
          2   -1    0    0  501    0  0.00000000000E+00 -0.00000000000E+00 -0.10520874013E+04  0.10520874013E+04  0.25500000000E-02 0.  1.
    5000001    1    1    2    0    0  0.11558060546E+03  0.14746407359E+03 -0.40765558758E+03  0.47802992316E+03  0.16500000000E+03 0.  0.
   -5000001    1    1    2    0    0 -0.11558060546E+03 -0.14746407359E+03 -0.58366808581E+03  0.63482120613E+03  0.16500000000E+03 0.  0.
<mgrwt>
<rscale>  0 0.50568272E+03</rscale>
<asrwt>0</asrwt>
<pdfrwt beam="1">  1        2 0.15029819E+00 0.50568272E+03</pdfrwt>
<pdfrwt beam="2">  1       -2 0.86805332E-02 0.50568272E+03</pdfrwt>
<totfact> 0.22597931E+03</totfact>
</mgrwt>
</event>
<event>
 4    1  0.3541639E-005  0.8525900E+03  0.7818608E-02  0.9486867E-01
          2   -1    0    0  501    0  0.00000000000E+00  0.00000000000E+00  0.13341077782E+04  0.13341077782E+04  0.25500000000E-02 0.  1.
         -2   -1    0    0    0  501 -0.00000000000E+00 -0.00000000000E+00 -0.13621644960E+03  0.13621644962E+03  0.25500000000E-02 0. -1.
    5000001    1    1    2    0    0  0.16932134767E+03 -0.25236040874E+03  0.10288607872E+04  0.10854192804E+04  0.16500000000E+03 0.  0.
   -5000001    1    1    2    0    0 -0.16932134767E+03  0.25236040874E+03  0.16903054139E+03  0.38490494749E+03  0.16500000000E+03 0.  0.
<mgrwt>
<rscale>  0 0.85259000E+03</rscale>
<asrwt>0</asrwt>
<pdfrwt beam="1">  1        2 0.19058682E+00 0.85259000E+03</pdfrwt>
<pdfrwt beam="2">  1       -2 0.19459493E-01 0.85259000E+03</pdfrwt>
<totfact> 0.40362402E+02</totfact>
</mgrwt>
</event>
<event>
 4    1  0.3541639E-005  0.4337884E+03  0.7818608E-02  0.1032670E+00
          2   -1    0    0  501    0  0.00000000000E+00  0.00000000000E+00  0.29034979027E+03  0.29034979028E+03  0.25500000000E-02 0.  1.
         -2   -1    0    0    0  501 -0.00000000000E+00 -0.00000000000E+00 -0.16202216979E+03  0.16202216981E+03  0.25500000000E-02 0. -1.
    5000001    1    1    2    0    0  0.10969337545E+03 -0.46311387971E+02 -0.14158419031E+02  0.20396774770E+03  0.16500000000E+03 0.  0.
   -5000001    1    1    2    0    0 -0.10969337545E+03  0.46311387971E+02  0.14248603951E+03  0.24840421238E+03  0.16500000000E+03 0.  0.
<mgrwt>
<rscale>  0 0.43378844E+03</rscale>
<asrwt>0</asrwt>
<pdfrwt beam="1">  1        2 0.41478542E-01 0.43378844E+03</pdfrwt>
<pdfrwt beam="2">  1       -2 0.23146024E-01 0.43378844E+03</pdfrwt>
<totfact> 0.20174624E+03</totfact>
</mgrwt>
</event>
<event>
 4    1  0.3541639E-005  0.6962481E+03  0.7818608E-02  0.9723670E-01
          2   -1    0    0  501    0  0.00000000000E+00  0.00000000000E+00  0.11984717135E+04  0.11984717135E+04  0.25500000000E-02 0.  1.
         -2   -1    0    0    0  501 -0.00000000000E+00 -0.00000000000E+00 -0.10112074710E+03  0.10112074713E+03  0.25500000000E-02 0. -1.
    5000001    1    1    2    0    0  0.82460655162E+02 -0.28745377550E+03  0.67438726001E+03  0.75594484532E+03  0.16500000000E+03 0.  0.
   -5000001    1    1    2    0    0 -0.82460655162E+02  0.28745377550E+03  0.42296370635E+03  0.54364761526E+03  0.16500000000E+03 0.  0.
<mgrwt>
<rscale>  0 0.69624810E+03</rscale>
<asrwt>0</asrwt>
<pdfrwt beam="1">  1        2 0.17121023E+00 0.69624810E+03</pdfrwt>
<pdfrwt beam="2">  1       -2 0.14445822E-01 0.69624810E+03</pdfrwt>
<totfact> 0.80482509E+02</totfact>
</mgrwt>
</event>
<event>
 4    1  0.3541639E-005  0.4557159E+03  0.7818608E-02  0.1026031E+00
         -2   -1    0    0    0  501 -0.00000000000E+00  0.00000000000E+00  0.12671383628E+03  0.12671383631E+03  0.25500000000E-02 0.  1.
          2   -1    0    0  501    0  0.00000000000E+00 -0.00000000000E+00 -0.40973619661E+03  0.40973619662E+03  0.25500000000E-02 0. -1.
    5000001    1    1    2    0    0  0.50287632027E+02  0.13965462804E+03 -0.20224601265E+03  0.30026773170E+03  0.16500000000E+03 0.  0.
   -5000001    1    1    2    0    0 -0.50287632027E+02 -0.13965462804E+03 -0.80776347678E+02  0.23618230123E+03  0.16500000000E+03 0.  0.
<mgrwt>
<rscale>  0 0.45571590E+03</rscale>
<asrwt>0</asrwt>
<pdfrwt beam="1">  1        2 0.58533742E-01 0.45571590E+03</pdfrwt>
<pdfrwt beam="2">  1       -2 0.18101977E-01 0.45571590E+03</pdfrwt>
<totfact> 0.21201836E+03</totfact>
</mgrwt>
</event>
<event>
 4    1  0.3541639E-005  0.7301863E+03  0.7818608E-02  0.9666958E-01
         -2   -1    0    0    0  501 -0.00000000000E+00  0.00000000000E+00  0.80119440223E+03  0.80119440223E+03  0.25500000000E-02 0. -1.
          2   -1    0    0  501    0  0.00000000000E+00 -0.00000000000E+00 -0.16636785738E+03  0.16636785740E+03  0.25500000000E-02 0.  1.
    5000001    1    1    2    0    0  0.30590458601E+03  0.10219515581E+03  0.37735846561E+03  0.52311172533E+03  0.16500000000E+03 0.  0.
   -5000001    1    1    2    0    0 -0.30590458601E+03 -0.10219515581E+03  0.25746807924E+03  0.44445053430E+03  0.16500000000E+03 0.  0.
<mgrwt>
<rscale>  0 0.73018627E+03</rscale>
<asrwt>0</asrwt>
<pdfrwt beam="1">  1        2 0.23766837E-01 0.73018627E+03</pdfrwt>
<pdfrwt beam="2">  1       -2 0.11445634E+00 0.73018627E+03</pdfrwt>
<totfact> 0.13994059E+02</totfact>
</mgrwt>
</event>
<event>
 4    1  0.3541639E-005  0.3691704E+03  0.7818608E-02  0.1055011E+00
          2   -1    0    0  501    0  0.00000000000E+00  0.00000000000E+00  0.66808165047E+03  0.66808165048E+03  0.25500000000E-02 0.  1.
         -2   -1    0    0    0  501 -0.00000000000E+00 -0.00000000000E+00 -0.50999312197E+02  0.50999312261E+02  0.25500000000E-02 0. -1.
    5000001    1    1    2    0    0  0.81041828561E+02  0.13371049699E+02  0.28904907777E+03  0.34281326156E+03  0.16500000000E+03 0.  0.
   -5000001    1    1    2    0    0 -0.81041828561E+02 -0.13371049699E+02  0.32803326051E+03  0.37626770118E+03  0.16500000000E+03 0.  0.
<mgrwt>
<rscale>  0 0.36917045E+03</rscale>
<asrwt>0</asrwt>
<pdfrwt beam="1">  1        2 0.95440223E-01 0.36917045E+03</pdfrwt>
<pdfrwt beam="2">  1       -2 0.72856170E-02 0.36917045E+03</pdfrwt>
<totfact> 0.53425360E+03</totfact>
</mgrwt>
</event>
<event>
 4    1  0.3541639E-005  0.5033572E+03  0.7818608E-02  0.1012906E+00
         -2   -1    0    0    0  501 -0.00000000000E+00  0.00000000000E+00  0.94148413737E+02  0.94148413772E+02  0.25500000000E-02 0. -1.
          2   -1    0    0  501    0  0.00000000000E+00 -0.00000000000E+00 -0.67279002024E+03  0.67279002024E+03  0.25500000000E-02 0.  1.
    5000001    1    1    2    0    0 -0.17753110549E+03  0.19480880665E+02 -0.19033870178E+03  0.30878895628E+03  0.16500000000E+03 0.  0.
   -5000001    1    1    2    0    0  0.17753110549E+03 -0.19480880665E+02 -0.38830290472E+03  0.45814947773E+03  0.16500000000E+03 0.  0.
<mgrwt>
<rscale>  0 0.50335718E+03</rscale>
<asrwt>0</asrwt>
<pdfrwt beam="1">  1        2 0.96112858E-01 0.50335718E+03</pdfrwt>
<pdfrwt beam="2">  1       -2 0.13449774E-01 0.50335718E+03</pdfrwt>
<totfact> 0.19841044E+03</totfact>
</mgrwt>
</event>
<event>
 4    1  0.3541639E-005  0.4434367E+03  0.7818608E-02  0.1029698E+00
         -2   -1    0    0    0  501 -0.00000000000E+00  0.00000000000E+00  0.41108880317E+02  0.41108880396E+02  0.25500000000E-02 0. -1.
          2   -1    0    0  501    0  0.00000000000E+00 -0.00000000000E+00 -0.11958250945E+04  0.11958250945E+04  0.25500000000E-02 0.  1.
    5000001    1    1    2    0    0  0.12533861714E+03  0.75211089973E+02 -0.51090453012E+03  0.55643051309E+03  0.16500000000E+03 0.  0.
   -5000001    1    1    2    0    0 -0.12533861714E+03 -0.75211089973E+02 -0.64381168410E+03  0.68050346185E+03  0.16500000000E+03 0.  0.
<mgrwt>
<rscale>  0 0.44343672E+03</rscale>
<asrwt>0</asrwt>
<pdfrwt beam="1">  1        2 0.17083213E+00 0.44343672E+03</pdfrwt>
<pdfrwt beam="2">  1       -2 0.58726980E-02 0.44343672E+03</pdfrwt>
<totfact> 0.34593731E+03</totfact>
</mgrwt>
</event>
<event>
 4    1  0.3541639E-005  0.4614355E+03  0.7818608E-02  0.1024366E+00
         -2   -1    0    0    0  501 -0.00000000000E+00  0.00000000000E+00  0.15189721713E+02  0.15189721927E+02  0.25500000000E-02 0. -1.
          2   -1    0    0  501    0  0.00000000000E+00 -0.00000000000E+00 -0.35043887246E+04  0.35043887246E+04  0.25500000000E-02 0.  1.
    5000001    1    1    2    0    0 -0.52287017233E+02  0.11455459830E+03 -0.97619257772E+03  0.99801484807E+03  0.16500000000E+03 0.  0.
   -5000001    1    1    2    0    0  0.52287017233E+02 -0.11455459830E+03 -0.25130064251E+04  0.25215635984E+04  0.16500000000E+03 0.  0.
<mgrwt>
<rscale>  0 0.46143554E+03</rscale>
<asrwt>0</asrwt>
<pdfrwt beam="1">  1        2 0.50062645E+00 0.46143554E+03</pdfrwt>
<pdfrwt beam="2">  1       -2 0.21699625E-02 0.46143554E+03</pdfrwt>
<totfact> 0.97121218E+02</totfact>
</mgrwt>
</event>
<event>
 4    1  0.3541639E-005  0.1135861E+04  0.7818608E-02  0.9170927E-01
         -2   -1    0    0    0  501 -0.00000000000E+00  0.00000000000E+00  0.30018529451E+03  0.30018529452E+03  0.25500000000E-02 0. -1.
          2   -1    0    0  501    0  0.00000000000E+00 -0.00000000000E+00 -0.10744872688E+04  0.10744872688E+04  0.25500000000E-02 0.  1.
    5000001    1    1    2    0    0  0.40167193338E+03  0.36035082637E+03 -0.46490137832E+03  0.73113018792E+03  0.16500000000E+03 0.  0.
   -5000001    1    1    2    0    0 -0.40167193338E+03 -0.36035082637E+03 -0.30940059596E+03  0.64354237538E+03  0.16500000000E+03 0.  0.
<mgrwt>
<rscale>  0 0.11358614E+04</rscale>
<asrwt>0</asrwt>
<pdfrwt beam="1">  1        2 0.15349818E+00 0.11358614E+04</pdfrwt>
<pdfrwt beam="2">  1       -2 0.42883614E-01 0.11358614E+04</pdfrwt>
<totfact> 0.12912700E+02</totfact>
</mgrwt>
</event>
<event>
 4    1  0.3541639E-005  0.6349299E+03  0.7818608E-02  0.9835475E-01
         -2   -1    0    0    0  501 -0.00000000000E+00  0.00000000000E+00  0.86284136262E+02  0.86284136299E+02  0.25500000000E-02 0. -1.
          2   -1    0    0  501    0  0.00000000000E+00 -0.00000000000E+00 -0.11680479502E+04  0.11680479502E+04  0.25500000000E-02 0.  1.
    5000001    1    1    2    0    0  0.14357761088E+03 -0.23003978440E+03 -0.53077457763E+03  0.61844925824E+03  0.16500000000E+03 0.  0.
   -5000001    1    1    2    0    0 -0.14357761088E+03  0.23003978440E+03 -0.55098923628E+03  0.63588282824E+03  0.16500000000E+03 0.  0.
<mgrwt>
<rscale>  0 0.63492994E+03</rscale>
<asrwt>0</asrwt>
<pdfrwt beam="1">  1        2 0.16686398E+00 0.63492994E+03</pdfrwt>
<pdfrwt beam="2">  1       -2 0.12326306E-01 0.63492994E+03</pdfrwt>
<totfact> 0.10931083E+03</totfact>
</mgrwt>
</event>
<event>
 4    1  0.3541639E-005  0.4056325E+03  0.7818608E-02  0.1041847E+00
          2   -1    0    0  501    0  0.00000000000E+00  0.00000000000E+00  0.11193708226E+04  0.11193708226E+04  0.25500000000E-02 0.  1.
         -2   -1    0    0    0  501 -0.00000000000E+00 -0.00000000000E+00 -0.36747820860E+02  0.36747820949E+02  0.25500000000E-02 0. -1.
    5000001    1    1    2    0    0  0.11824670125E+02  0.71323343981E+02  0.27573207570E+03  0.32936305164E+03  0.16500000000E+03 0.  0.
   -5000001    1    1    2    0    0 -0.11824670125E+02 -0.71323343981E+02  0.80689092607E+03  0.82675559193E+03  0.16500000000E+03 0.  0.
<mgrwt>
<rscale>  0 0.40563254E+03</rscale>
<asrwt>0</asrwt>
<pdfrwt beam="1">  1        2 0.15991014E+00 0.40563254E+03</pdfrwt>
<pdfrwt beam="2">  1       -2 0.52496878E-02 0.40563254E+03</pdfrwt>
<totfact> 0.45391110E+03</totfact>
</mgrwt>
</event>
<event>
 4    1  0.3541639E-005  0.6879350E+03  0.7818608E-02  0.9738090E-01
         -2   -1    0    0    0  501 -0.00000000000E+00  0.00000000000E+00  0.22348802952E+03  0.22348802954E+03  0.25500000000E-02 0. -1.
          2   -1    0    0  501    0  0.00000000000E+00 -0.00000000000E+00 -0.52939587458E+03  0.52939587459E+03  0.25500000000E-02 0.  1.
    5000001    1    1    2    0    0 -0.11915755594E+02  0.27164434849E+03 -0.29630094322E+03  0.43468596280E+03  0.16500000000E+03 0.  0.
   -5000001    1    1    2    0    0  0.11915755594E+02 -0.27164434849E+03 -0.96069018355E+01  0.31819794132E+03  0.16500000000E+03 0.  0.
<mgrwt>
<rscale>  0 0.68793500E+03</rscale>
<asrwt>0</asrwt>
<pdfrwt beam="1">  1        2 0.75627982E-01 0.68793500E+03</pdfrwt>
<pdfrwt beam="2">  1       -2 0.31926862E-01 0.68793500E+03</pdfrwt>
<totfact> 0.57614153E+02</totfact>
</mgrwt>
</event>
<event>
 4    1  0.3541639E-005  0.4852585E+03  0.7818608E-02  0.1017700E+00
         -2   -1    0    0    0  501 -0.00000000000E+00  0.00000000000E+00  0.43158890301E+03  0.43158890302E+03  0.25500000000E-02 0. -1.
          2   -1    0    0  501    0  0.00000000000E+00 -0.00000000000E+00 -0.13640051828E+03  0.13640051831E+03  0.25500000000E-02 0.  1.
    5000001    1    1    2    0    0  0.66366161789E+02  0.13828659564E+03  0.42144296599E+02  0.22919160477E+03  0.16500000000E+03 0.  0.
   -5000001    1    1    2    0    0 -0.66366161789E+02 -0.13828659564E+03  0.25304408813E+03  0.33879781655E+03  0.16500000000E+03 0.  0.
<mgrwt>
<rscale>  0 0.48525849E+03</rscale>
<asrwt>0</asrwt>
<pdfrwt beam="1">  1        2 0.19485788E-01 0.48525849E+03</pdfrwt>
<pdfrwt beam="2">  1       -2 0.61655557E-01 0.48525849E+03</pdfrwt>
<totfact> 0.72018035E+02</totfact>
</mgrwt>
</event>
<event>
 4    1  0.3541639E-005  0.6259152E+03  0.7818608E-02  0.9853053E-01
         -2   -1    0    0    0  501 -0.00000000000E+00  0.00000000000E+00  0.59255324530E+02  0.59255324585E+02  0.25500000000E-02 0.  1.
          2   -1    0    0  501    0  0.00000000000E+00 -0.00000000000E+00 -0.16528887973E+04  0.16528887973E+04  0.25500000000E-02 0. -1.
    5000001    1    1    2    0    0 -0.16258646389E+03 -0.96174103732E+02 -0.13088138132E+04  0.13326298864E+04  0.16500000000E+03 0.  0.
   -5000001    1    1    2    0    0  0.16258646389E+03  0.96174103732E+02 -0.28481965958E+03  0.37951423551E+03  0.16500000000E+03 0.  0.
<mgrwt>
<rscale>  0 0.62591521E+03</rscale>
<asrwt>0</asrwt>
<pdfrwt beam="1">  1        2 0.23612694E+00 0.62591521E+03</pdfrwt>
<pdfrwt beam="2">  1       -2 0.84650474E-02 0.62591521E+03</pdfrwt>
<totfact> 0.11100845E+03</totfact>
</mgrwt>
</event>
<event>
 4    1  0.3541639E-005  0.4239397E+03  0.7818608E-02  0.1035792E+00
         -2   -1    0    0    0  501 -0.00000000000E+00  0.00000000000E+00  0.14527227883E+03  0.14527227885E+03  0.25500000000E-02 0. -1.
          2   -1    0    0  501    0  0.00000000000E+00 -0.00000000000E+00 -0.30928970680E+03  0.30928970681E+03  0.25500000000E-02 0.  1.
    5000001    1    1    2    0    0 -0.74146019648E+02  0.87594214496E+02 -0.15422214231E+03  0.25333741891E+03  0.16500000000E+03 0.  0.
   -5000001    1    1    2    0    0  0.74146019648E+02 -0.87594214496E+02 -0.97952856684E+01  0.20122456675E+03  0.16500000000E+03 0.  0.
<mgrwt>
<rscale>  0 0.42393972E+03</rscale>
<asrwt>0</asrwt>
<pdfrwt beam="1">  1        2 0.44184244E-01 0.42393972E+03</pdfrwt>
<pdfrwt beam="2">  1       -2 0.20753183E-01 0.42393972E+03</pdfrwt>
<totfact> 0.22784529E+03</totfact>
</mgrwt>
</event>
<event>
 4    1  0.3541639E-005  0.6416325E+03  0.7818608E-02  0.9822608E-01
         -2   -1    0    0    0  501 -0.00000000000E+00  0.00000000000E+00  0.87110378656E+02  0.87110378693E+02  0.25500000000E-02 0. -1.
          2   -1    0    0  501    0  0.00000000000E+00 -0.00000000000E+00 -0.11815245433E+04  0.11815245433E+04  0.25500000000E-02 0.  1.
    5000001    1    1    2    0    0  0.13239119659E+03  0.23128431804E+03 -0.41197209350E+03  0.51765419976E+03  0.16500000000E+03 0.  0.
   -5000001    1    1    2    0    0 -0.13239119659E+03 -0.23128431804E+03 -0.68244207113E+03  0.75098072223E+03  0.16500000000E+03 0.  0.
<mgrwt>
<rscale>  0 0.64163245E+03</rscale>
<asrwt>0</asrwt>
<pdfrwt beam="1">  1        2 0.16878921E+00 0.64163245E+03</pdfrwt>
<pdfrwt beam="2">  1       -2 0.12444340E-01 0.64163245E+03</pdfrwt>
<totfact> 0.10570537E+03</totfact>
</mgrwt>
</event>
<event>
 4    1  0.3541639E-005  0.5287813E+03  0.7818608E-02  0.1006528E+00
         -2   -1    0    0    0  501 -0.00000000000E+00  0.00000000000E+00  0.17436128002E+03  0.17436128004E+03  0.25500000000E-02 0. -1.
          2   -1    0    0  501    0  0.00000000000E+00 -0.00000000000E+00 -0.40090555591E+03  0.40090555592E+03  0.25500000000E-02 0.  1.
    5000001    1    1    2    0    0 -0.23241627604E+02  0.19849461045E+03 -0.56355350427E+02  0.26521917192E+03  0.16500000000E+03 0.  0.
   -5000001    1    1    2    0    0  0.23241627604E+02 -0.19849461045E+03 -0.17018892546E+03  0.31004766404E+03  0.16500000000E+03 0.  0.
<mgrwt>
<rscale>  0 0.52878126E+03</rscale>
<asrwt>0</asrwt>
<pdfrwt beam="1">  1        2 0.57272222E-01 0.52878126E+03</pdfrwt>
<pdfrwt beam="2">  1       -2 0.24908754E-01 0.52878126E+03</pdfrwt>
<totfact> 0.12438631E+03</totfact>
</mgrwt>
</event>
<event>
 4    1  0.3541639E-005  0.5958339E+03  0.7818608E-02  0.9914087E-01
         -2   -1    0    0    0  501 -0.00000000000E+00  0.00000000000E+00  0.14313559168E+03  0.14313559171E+03  0.25500000000E-02 0. -1.
          2   -1    0    0  501    0  0.00000000000E+00 -0.00000000000E+00 -0.62007292846E+03  0.62007292846E+03  0.25500000000E-02 0.  1.
    5000001    1    1    2    0    0  0.24356833533E+03  0.12995509919E+02 -0.18068439797E+03  0.34549423863E+03  0.16500000000E+03 0.  0.
   -5000001    1    1    2    0    0 -0.24356833533E+03 -0.12995509919E+02 -0.29625293880E+03  0.41771428154E+03  0.16500000000E+03 0.  0.
<mgrwt>
<rscale>  0 0.59583389E+03</rscale>
<asrwt>0</asrwt>
<pdfrwt beam="1">  1        2 0.88581846E-01 0.59583389E+03</pdfrwt>
<pdfrwt beam="2">  1       -2 0.20447942E-01 0.59583389E+03</pdfrwt>
<totfact> 0.10725465E+03</totfact>
</mgrwt>
</event>
<event>
 4    1  0.3541639E-005  0.3825714E+03  0.7818608E-02  0.1049987E+00
         -2   -1    0    0    0  501 -0.00000000000E+00  0.00000000000E+00  0.16928498801E+02  0.16928498993E+02  0.25500000000E-02 0. -1.
          2   -1    0    0  501    0  0.00000000000E+00 -0.00000000000E+00 -0.21614571574E+04  0.21614571574E+04  0.25500000000E-02 0.  1.
    5000001    1    1    2    0    0 -0.74755380146E+02 -0.51698858511E+02 -0.12614654648E+04  0.12754533538E+04  0.16500000000E+03 0.  0.
   -5000001    1    1    2    0    0  0.74755380146E+02  0.51698858511E+02 -0.88306319388E+03  0.90293230268E+03  0.16500000000E+03 0.  0.
<mgrwt>
<rscale>  0 0.38257143E+03</rscale>
<asrwt>0</asrwt>
<pdfrwt beam="1">  1        2 0.30877942E+00 0.38257143E+03</pdfrwt>
<pdfrwt beam="2">  1       -2 0.24183584E-02 0.38257143E+03</pdfrwt>
<totfact> 0.42926241E+03</totfact>
</mgrwt>
</event>
<event>
 4    1  0.3541639E-005  0.9239246E+03  0.7818608E-02  0.9396159E-01
         -2   -1    0    0    0  501 -0.00000000000E+00  0.00000000000E+00  0.10729050776E+03  0.10729050779E+03  0.25500000000E-02 0. -1.
          2   -1    0    0  501    0  0.00000000000E+00 -0.00000000000E+00 -0.19890778527E+04  0.19890778527E+04  0.25500000000E-02 0.  1.
    5000001    1    1    2    0    0  0.36409747387E+03 -0.23155086077E+03 -0.94357952850E+03  0.10505951162E+04  0.16500000000E+03 0.  0.
   -5000001    1    1    2    0    0 -0.36409747387E+03  0.23155086077E+03 -0.93820781640E+03  0.10457732442E+04  0.16500000000E+03 0.  0.
<mgrwt>
<rscale>  0 0.92392461E+03</rscale>
<asrwt>0</asrwt>
<pdfrwt beam="1">  1        2 0.28415396E+00 0.92392461E+03</pdfrwt>
<pdfrwt beam="2">  1       -2 0.15327217E-01 0.92392461E+03</pdfrwt>
<totfact> 0.27657251E+02</totfact>
</mgrwt>
</event>
<event>
 4    1  0.3541639E-005  0.4790249E+03  0.7818608E-02  0.1019404E+00
         -2   -1    0    0    0  501 -0.00000000000E+00  0.00000000000E+00  0.58621243737E+02  0.58621243793E+02  0.25500000000E-02 0. -1.
          2   -1    0    0  501    0  0.00000000000E+00 -0.00000000000E+00 -0.97859069967E+03  0.97859069967E+03  0.25500000000E-02 0.  1.
    5000001    1    1    2    0    0 -0.10683348983E+02  0.13511423243E+03 -0.69490478003E+03  0.72697155588E+03  0.16500000000E+03 0.  0.
   -5000001    1    1    2    0    0  0.10683348983E+02 -0.13511423243E+03 -0.22506467590E+03  0.31024038758E+03  0.16500000000E+03 0.  0.
<mgrwt>
<rscale>  0 0.47902486E+03</rscale>
<asrwt>0</asrwt>
<pdfrwt beam="1">  1        2 0.13979866E+00 0.47902486E+03</pdfrwt>
<pdfrwt beam="2">  1       -2 0.83744640E-02 0.47902486E+03</pdfrwt>
<totfact> 0.26487515E+03</totfact>
</mgrwt>
</event>
<event>
 4    1  0.3541639E-005  0.6437667E+03  0.7818608E-02  0.9818546E-01
          2   -1    0    0  501    0  0.00000000000E+00  0.00000000000E+00  0.70680276895E+03  0.70680276895E+03  0.25500000000E-02 0.  1.
         -2   -1    0    0    0  501 -0.00000000000E+00 -0.00000000000E+00 -0.14658813477E+03  0.14658813479E+03  0.25500000000E-02 0. -1.
    5000001    1    1    2    0    0  0.25601606016E+03  0.38705202086E+02  0.40823109651E+03  0.51080323402E+03  0.16500000000E+03 0.  0.
   -5000001    1    1    2    0    0 -0.25601606016E+03 -0.38705202086E+02  0.15198353767E+03  0.34258766973E+03  0.16500000000E+03 0.  0.
<mgrwt>
<rscale>  0 0.64376673E+03</rscale>
<asrwt>0</asrwt>
<pdfrwt beam="1">  1        2 0.10097183E+00 0.64376673E+03</pdfrwt>
<pdfrwt beam="2">  1       -2 0.20941162E-01 0.64376673E+03</pdfrwt>
<totfact> 0.87766061E+02</totfact>
</mgrwt>
</event>
<event>
 4    1  0.3541639E-005  0.5658972E+03  0.7818608E-02  0.9978799E-01
         -2   -1    0    0    0  501 -0.00000000000E+00  0.00000000000E+00  0.34542356345E+02  0.34542356439E+02  0.25500000000E-02 0. -1.
          2   -1    0    0  501    0  0.00000000000E+00 -0.00000000000E+00 -0.23177312073E+04  0.23177312073E+04  0.25500000000E-02 0.  1.
    5000001    1    1    2    0    0 -0.86973314569E+02  0.17514182502E+03 -0.63940741454E+03  0.68869867002E+03  0.16500000000E+03 0.  0.
   -5000001    1    1    2    0    0  0.86973314569E+02 -0.17514182502E+03 -0.16437814364E+04  0.16635748937E+04  0.16500000000E+03 0.  0.
<mgrwt>
<rscale>  0 0.56589715E+03</rscale>
<asrwt>0</asrwt>
<pdfrwt beam="1">  1        2 0.33110436E+00 0.56589715E+03</pdfrwt>
<pdfrwt beam="2">  1       -2 0.49346238E-02 0.56589715E+03</pdfrwt>
<totfact> 0.12030212E+03</totfact>
</mgrwt>
</event>
<event>
 4    1  0.3541639E-005  0.7735708E+03  0.7818608E-02  0.9599080E-01
          2   -1    0    0  501    0  0.00000000000E+00  0.00000000000E+00  0.45065300560E+04  0.45065300560E+04  0.25500000000E-02 0.  1.
         -2   -1    0    0    0  501 -0.00000000000E+00 -0.00000000000E+00 -0.33196924045E+02  0.33196924143E+02  0.25500000000E-02 0. -1.
    5000001    1    1    2    0    0  0.21939065186E+03 -0.12580640188E+03  0.36550857987E+04  0.36675382350E+04  0.16500000000E+03 0.  0.
   -5000001    1    1    2    0    0 -0.21939065186E+03  0.12580640188E+03  0.81824733317E+03  0.87218874512E+03  0.16500000000E+03 0.  0.
<mgrwt>
<rscale>  0 0.77357078E+03</rscale>
<asrwt>0</asrwt>
<pdfrwt beam="1">  1        2 0.64378993E+00 0.77357078E+03</pdfrwt>
<pdfrwt beam="2">  1       -2 0.47424183E-02 0.77357078E+03</pdfrwt>
<totfact> 0.59572060E+01</totfact>
</mgrwt>
</event>
<event>
 4    1  0.3541639E-005  0.3763450E+03  0.7818608E-02  0.1052293E+00
          2   -1    0    0  501    0  0.00000000000E+00  0.00000000000E+00  0.32247723614E+03  0.32247723615E+03  0.25500000000E-02 0.  1.
         -2   -1    0    0    0  501 -0.00000000000E+00 -0.00000000000E+00 -0.10980274742E+03  0.10980274745E+03  0.25500000000E-02 0. -1.
    5000001    1    1    2    0    0  0.28377363820E+02 -0.50652997455E+02  0.26651292531E+02  0.17693584239E+03  0.16500000000E+03 0.  0.
   -5000001    1    1    2    0    0 -0.28377363820E+02  0.50652997455E+02  0.18602319619E+03  0.25534414121E+03  0.16500000000E+03 0.  0.
<mgrwt>
<rscale>  0 0.37634498E+03</rscale>
<asrwt>0</asrwt>
<pdfrwt beam="1">  1        2 0.46068177E-01 0.37634498E+03</pdfrwt>
<pdfrwt beam="2">  1       -2 0.15686107E-01 0.37634498E+03</pdfrwt>
<totfact> 0.35004657E+03</totfact>
</mgrwt>
</event>
<event>
 4    1  0.3541639E-005  0.4841412E+03  0.7818608E-02  0.1018003E+00
         -2   -1    0    0    0  501 -0.00000000000E+00  0.00000000000E+00  0.54404474286E+02  0.54404474345E+02  0.25500000000E-02 0. -1.
          2   -1    0    0  501    0  0.00000000000E+00 -0.00000000000E+00 -0.10770837842E+04  0.10770837842E+04  0.25500000000E-02 0.  1.
    5000001    1    1    2    0    0 -0.13050418220E+03  0.10291368055E+03 -0.65446908728E+03  0.69510959813E+03  0.16500000000E+03 0.  0.
   -5000001    1    1    2    0    0  0.13050418220E+03 -0.10291368055E+03 -0.36821022268E+03  0.43637866046E+03  0.16500000000E+03 0.  0.
<mgrwt>
<rscale>  0 0.48414121E+03</rscale>
<asrwt>0</asrwt>
<pdfrwt beam="1">  1        2 0.15386910E+00 0.48414121E+03</pdfrwt>
<pdfrwt beam="2">  1       -2 0.77720684E-02 0.48414121E+03</pdfrwt>
<totfact> 0.26046883E+03</totfact>
</mgrwt>
</event>
<event>
 4    1  0.3541639E-005  0.8639595E+03  0.7818608E-02  0.9471790E-01
         -2   -1    0    0    0  501 -0.00000000000E+00  0.00000000000E+00  0.18765281667E+03  0.18765281669E+03  0.25500000000E-02 0. -1.
          2   -1    0    0  501    0  0.00000000000E+00 -0.00000000000E+00 -0.99442431754E+03  0.99442431754E+03  0.25500000000E-02 0.  1.
    5000001    1    1    2    0    0 -0.29955490615E+03  0.22440604100E+03 -0.21335581306E+03  0.46134251485E+03  0.16500000000E+03 0.  0.
   -5000001    1    1    2    0    0  0.29955490615E+03 -0.22440604100E+03 -0.59341568780E+03  0.72073461938E+03  0.16500000000E+03 0.  0.
<mgrwt>
<rscale>  0 0.86395955E+03</rscale>
<asrwt>0</asrwt>
<pdfrwt beam="1">  1        2 0.14206061E+00 0.86395955E+03</pdfrwt>
<pdfrwt beam="2">  1       -2 0.26807546E-01 0.86395955E+03</pdfrwt>
<totfact> 0.35762358E+02</totfact>
</mgrwt>
</event>
<event>
 4    1  0.3541639E-005  0.4770546E+03  0.7818608E-02  0.1019948E+00
          2   -1    0    0  501    0  0.00000000000E+00  0.00000000000E+00  0.41025739072E+04  0.41025739072E+04  0.25500000000E-02 0.  1.
         -2   -1    0    0    0  501 -0.00000000000E+00 -0.00000000000E+00 -0.13868191413E+02  0.13868191648E+02  0.25500000000E-02 0. -1.
    5000001    1    1    2    0    0  0.29180024572E+02  0.16965076579E+03  0.20971404889E+04  0.21106530000E+04  0.16500000000E+03 0.  0.
   -5000001    1    1    2    0    0 -0.29180024572E+02 -0.16965076579E+03  0.19915652269E+04  0.20057890989E+04  0.16500000000E+03 0.  0.
<mgrwt>
<rscale>  0 0.47705463E+03</rscale>
<asrwt>0</asrwt>
<pdfrwt beam="1">  1        2 0.58608124E+00 0.47705463E+03</pdfrwt>
<pdfrwt beam="2">  1       -2 0.19811728E-02 0.47705463E+03</pdfrwt>
<totfact> 0.46484767E+02</totfact>
</mgrwt>
</event>
<event>
 4    1  0.3541639E-005  0.4134375E+03  0.7818608E-02  0.1039224E+00
         -2   -1    0    0    0  501 -0.00000000000E+00  0.00000000000E+00  0.12351160827E+03  0.12351160829E+03  0.25500000000E-02 0. -1.
          2   -1    0    0  501    0  0.00000000000E+00 -0.00000000000E+00 -0.34598068881E+03  0.34598068882E+03  0.25500000000E-02 0.  1.
    5000001    1    1    2    0    0  0.87087134285E+02  0.82026208344E+02 -0.15049291519E+03  0.25334874252E+03  0.16500000000E+03 0.  0.
   -5000001    1    1    2    0    0 -0.87087134285E+02 -0.82026208344E+02 -0.71976165357E+02  0.21614355459E+03  0.16500000000E+03 0.  0.
<mgrwt>
<rscale>  0 0.41343745E+03</rscale>
<asrwt>0</asrwt>
<pdfrwt beam="1">  1        2 0.49425812E-01 0.41343745E+03</pdfrwt>
<pdfrwt beam="2">  1       -2 0.17644516E-01 0.41343745E+03</pdfrwt>
<totfact> 0.26633326E+03</totfact>
</mgrwt>
</event>
<event>
 4    1  0.3541639E-005  0.4151791E+03  0.7818608E-02  0.1038647E+00
         -2   -1    0    0    0  501 -0.00000000000E+00  0.00000000000E+00  0.27424614904E+02  0.27424615022E+02  0.25500000000E-02 0. -1.
          2   -1    0    0  501    0  0.00000000000E+00 -0.00000000000E+00 -0.15713413007E+04  0.15713413007E+04  0.25500000000E-02 0.  1.
    5000001    1    1    2    0    0 -0.39420434000E+02  0.36177202551E+01 -0.31144926135E+03  0.35467266728E+03  0.16500000000E+03 0.  0.
   -5000001    1    1    2    0    0  0.39420434000E+02 -0.36177202551E+01 -0.12324674245E+04  0.12440932485E+04  0.16500000000E+03 0.  0.
<mgrwt>
<rscale>  0 0.41517914E+03</rscale>
<asrwt>0</asrwt>
<pdfrwt beam="1">  1        2 0.22447727E+00 0.41517914E+03</pdfrwt>
<pdfrwt beam="2">  1       -2 0.39178031E-02 0.41517914E+03</pdfrwt>
<totfact> 0.40808371E+03</totfact>
</mgrwt>
</event>
<event>
 4    1  0.3541639E-005  0.1518865E+04  0.7818608E-02  0.8872004E-01
         -2   -1    0    0    0  501 -0.00000000000E+00  0.00000000000E+00  0.37770570067E+03  0.37770570068E+03  0.25500000000E-02 0. -1.
          2   -1    0    0  501    0  0.00000000000E+00 -0.00000000000E+00 -0.15269505688E+04  0.15269505688E+04  0.25500000000E-02 0.  1.
    5000001    1    1    2    0    0 -0.47218342890E+03 -0.26746706529E+03 -0.12078823785E+04  0.13344289647E+04  0.16500000000E+03 0.  0.
   -5000001    1    1    2    0    0  0.47218342890E+03  0.26746706529E+03  0.58637510335E+02  0.57022730482E+03  0.16500000000E+03 0.  0.
<mgrwt>
<rscale>  0 0.15188653E+04</rscale>
<asrwt>0</asrwt>
<pdfrwt beam="1">  1        2 0.21813579E+00 0.15188653E+04</pdfrwt>
<pdfrwt beam="2">  1       -2 0.53957958E-01 0.15188653E+04</pdfrwt>
<totfact> 0.44209136E+01</totfact>
</mgrwt>
</event>
<event>
 4    1  0.3541639E-005  0.6159384E+03  0.7818608E-02  0.9872880E-01
          2   -1    0    0  501    0  0.00000000000E+00  0.00000000000E+00  0.13014324637E+03  0.13014324640E+03  0.25500000000E-02 0.  1.
         -2   -1    0    0    0  501 -0.00000000000E+00 -0.00000000000E+00 -0.72877404671E+03  0.72877404672E+03  0.25500000000E-02 0. -1.
    5000001    1    1    2    0    0 -0.14294398372E+02  0.21084577815E+03 -0.51061449948E+03  0.57672561853E+03  0.16500000000E+03 0.  0.
   -5000001    1    1    2    0    0  0.14294398372E+02 -0.21084577815E+03 -0.88016300868E+02  0.28219167459E+03  0.16500000000E+03 0.  0.
<mgrwt>
<rscale>  0 0.61593837E+03</rscale>
<asrwt>0</asrwt>
<pdfrwt beam="1">  1        2 0.18591893E-01 0.61593837E+03</pdfrwt>
<pdfrwt beam="2">  1       -2 0.10411058E+00 0.61593837E+03</pdfrwt>
<totfact> 0.23513893E+02</totfact>
</mgrwt>
</event>
<event>
 4    1  0.3541639E-005  0.7212098E+03  0.7818608E-02  0.9681633E-01
         -2   -1    0    0    0  501 -0.00000000000E+00  0.00000000000E+00  0.50596986581E+02  0.50596986646E+02  0.25500000000E-02 0. -1.
          2   -1    0    0  501    0  0.00000000000E+00 -0.00000000000E+00 -0.25700321173E+04  0.25700321173E+04  0.25500000000E-02 0.  1.
    5000001    1    1    2    0    0  0.25427291878E+03  0.19516747016E+03 -0.12302374271E+04  0.12819727710E+04  0.16500000000E+03 0.  0.
   -5000001    1    1    2    0    0 -0.25427291878E+03 -0.19516747016E+03 -0.12891977036E+04  0.13386563329E+04  0.16500000000E+03 0.  0.
<mgrwt>
<rscale>  0 0.72120976E+03</rscale>
<asrwt>0</asrwt>
<pdfrwt beam="1">  1        2 0.36714736E+00 0.72120976E+03</pdfrwt>
<pdfrwt beam="2">  1       -2 0.72281426E-02 0.72120976E+03</pdfrwt>
<totfact> 0.48545167E+02</totfact>
</mgrwt>
</event>
<event>
 4    1  0.3541639E-005  0.5507413E+03  0.7818608E-02  0.1001322E+00
          2   -1    0    0  501    0  0.00000000000E+00  0.00000000000E+00  0.35705779250E+03  0.35705779250E+03  0.25500000000E-02 0.  1.
         -2   -1    0    0    0  501 -0.00000000000E+00 -0.00000000000E+00 -0.21237179416E+03  0.21237179418E+03  0.25500000000E-02 0. -1.
    5000001    1    1    2    0    0 -0.19398039831E+03  0.24106242427E+02  0.17775598637E+03  0.31149911163E+03  0.16500000000E+03 0.  0.
   -5000001    1    1    2    0    0  0.19398039831E+03 -0.24106242427E+02 -0.33069988032E+02  0.25793047506E+03  0.16500000000E+03 0.  0.
<mgrwt>
<rscale>  0 0.55074133E+03</rscale>
<asrwt>0</asrwt>
<pdfrwt beam="1">  1        2 0.51008256E-01 0.55074133E+03</pdfrwt>
<pdfrwt beam="2">  1       -2 0.30338828E-01 0.55074133E+03</pdfrwt>
<totfact> 0.98776277E+02</totfact>
</mgrwt>
</event>
<event>
 4    1  0.3541639E-005  0.4100710E+03  0.7818608E-02  0.1040347E+00
         -2   -1    0    0    0  501 -0.00000000000E+00  0.00000000000E+00  0.70028300083E+02  0.70028300130E+02  0.25500000000E-02 0. -1.
          2   -1    0    0  501    0  0.00000000000E+00 -0.00000000000E+00 -0.60032243071E+03  0.60032243071E+03  0.25500000000E-02 0.  1.
    5000001    1    1    2    0    0  0.20199089557E+02  0.11931735907E+03 -0.28645642046E+03  0.35203254994E+03  0.16500000000E+03 0.  0.
   -5000001    1    1    2    0    0 -0.20199089557E+02 -0.11931735907E+03 -0.24383771016E+03  0.31831818090E+03  0.16500000000E+03 0.  0.
<mgrwt>
<rscale>  0 0.41007102E+03</rscale>
<asrwt>0</asrwt>
<pdfrwt beam="1">  1        2 0.85760344E-01 0.41007102E+03</pdfrwt>
<pdfrwt beam="2">  1       -2 0.10004043E-01 0.41007102E+03</pdfrwt>
<totfact> 0.36716582E+03</totfact>
</mgrwt>
</event>
<event>
 4    1  0.3541639E-005  0.4491720E+03  0.7818608E-02  0.1027969E+00
         -2   -1    0    0    0  501 -0.00000000000E+00  0.00000000000E+00  0.28495225313E+04  0.28495225313E+04  0.25500000000E-02 0. -1.
          2   -1    0    0  501    0  0.00000000000E+00 -0.00000000000E+00 -0.17700816346E+02  0.17700816529E+02  0.25500000000E-02 0.  1.
    5000001    1    1    2    0    0 -0.12140320241E+03  0.72814764518E+02  0.17754895767E+04  0.17887506714E+04  0.16500000000E+03 0.  0.
   -5000001    1    1    2    0    0  0.12140320241E+03 -0.72814764518E+02  0.10563321383E+04  0.10784726765E+04  0.16500000000E+03 0.  0.
<mgrwt>
<rscale>  0 0.44917202E+03</rscale>
<asrwt>0</asrwt>
<pdfrwt beam="1">  1        2 0.25286904E-02 0.44917202E+03</pdfrwt>
<pdfrwt beam="2">  1       -2 0.40707428E+00 0.44917202E+03</pdfrwt>
<totfact> 0.31287553E+01</totfact>
</mgrwt>
</event>
<event>
 4    1  0.3541639E-005  0.4989084E+03  0.7818608E-02  0.1014064E+00
          2   -1    0    0  501    0  0.00000000000E+00  0.00000000000E+00  0.93838347589E+03  0.93838347590E+03  0.25500000000E-02 0.  1.
         -2   -1    0    0    0  501 -0.00000000000E+00 -0.00000000000E+00 -0.66313394770E+02  0.66313394819E+02  0.25500000000E-02 0. -1.
    5000001    1    1    2    0    0 -0.78926659225E+02  0.16950558247E+03  0.44890344188E+03  0.51351812057E+03  0.16500000000E+03 0.  0.
   -5000001    1    1    2    0    0  0.78926659225E+02 -0.16950558247E+03  0.42316663924E+03  0.49117875014E+03  0.16500000000E+03 0.  0.
<mgrwt>
<rscale>  0 0.49890838E+03</rscale>
<asrwt>0</asrwt>
<pdfrwt beam="1">  1        2 0.13405478E+00 0.49890838E+03</pdfrwt>
<pdfrwt beam="2">  1       -2 0.94733422E-02 0.49890838E+03</pdfrwt>
<totfact> 0.23031671E+03</totfact>
</mgrwt>
</event>
<event>
 4    1  0.3541639E-005  0.4265847E+03  0.7818608E-02  0.1034944E+00
         -2   -1    0    0    0  501 -0.00000000000E+00  0.00000000000E+00  0.38163209209E+02  0.38163209294E+02  0.25500000000E-02 0.  1.
          2   -1    0    0  501    0  0.00000000000E+00 -0.00000000000E+00 -0.11920807508E+04  0.11920807508E+04  0.25500000000E-02 0. -1.
    5000001    1    1    2    0    0 -0.75075152805E+02 -0.10841112820E+03 -0.49143767983E+03  0.53490676239E+03  0.16500000000E+03 0.  0.
   -5000001    1    1    2    0    0  0.75075152805E+02  0.10841112820E+03 -0.66247986174E+03  0.69533719769E+03  0.16500000000E+03 0.  0.
<mgrwt>
<rscale>  0 0.42658470E+03</rscale>
<asrwt>0</asrwt>
<pdfrwt beam="1">  1        2 0.17029723E+00 0.42658470E+03</pdfrwt>
<pdfrwt beam="2">  1       -2 0.54518878E-02 0.42658470E+03</pdfrwt>
<totfact> 0.38995350E+03</totfact>
</mgrwt>
</event>
<event>
 4    1  0.3541639E-005  0.5442726E+03  0.7818608E-02  0.1002828E+00
         -2   -1    0    0    0  501 -0.00000000000E+00  0.00000000000E+00  0.88017219523E+02  0.88017219560E+02  0.25500000000E-02 0. -1.
          2   -1    0    0  501    0  0.00000000000E+00 -0.00000000000E+00 -0.84140533776E+03  0.84140533776E+03  0.25500000000E-02 0.  1.
    5000001    1    1    2    0    0  0.14762744906E+03 -0.94480488181E+02 -0.15993295695E+03  0.28900515062E+03  0.16500000000E+03 0.  0.
   -5000001    1    1    2    0    0 -0.14762744906E+03  0.94480488181E+02 -0.59345516128E+03  0.64041740671E+03  0.16500000000E+03 0.  0.
<mgrwt>
<rscale>  0 0.54427257E+03</rscale>
<asrwt>0</asrwt>
<pdfrwt beam="1">  1        2 0.12020076E+00 0.54427257E+03</pdfrwt>
<pdfrwt beam="2">  1       -2 0.12573889E-01 0.54427257E+03</pdfrwt>
<totfact> 0.16781044E+03</totfact>
</mgrwt>
</event>
<event>
 4    1  0.3541639E-005  0.3853526E+03  0.7818608E-02  0.1048973E+00
         -2   -1    0    0    0  501 -0.00000000000E+00  0.00000000000E+00  0.16234196969E+02  0.16234197169E+02  0.25500000000E-02 0. -1.
          2   -1    0    0  501    0  0.00000000000E+00 -0.00000000000E+00 -0.22867871862E+04  0.22867871862E+04  0.25500000000E-02 0.  1.
    5000001    1    1    2    0    0 -0.12656839849E+02  0.93377636541E+02 -0.94444531602E+03  0.96336988408E+03  0.16500000000E+03 0.  0.
   -5000001    1    1    2    0    0  0.12656839849E+02 -0.93377636541E+02 -0.13261076732E+04  0.13396514993E+04  0.16500000000E+03 0.  0.
<mgrwt>
<rscale>  0 0.38535259E+03</rscale>
<asrwt>0</asrwt>
<pdfrwt beam="1">  1        2 0.32668368E+00 0.38535259E+03</pdfrwt>
<pdfrwt beam="2">  1       -2 0.23191725E-02 0.38535259E+03</pdfrwt>
<totfact> 0.39594496E+03</totfact>
</mgrwt>
</event>
<event>
 4    1  0.3541639E-005  0.3723506E+03  0.7818608E-02  0.1053798E+00
          2   -1    0    0  501    0  0.00000000000E+00  0.00000000000E+00  0.14996988435E+04  0.14996988435E+04  0.25500000000E-02 0.  1.
         -2   -1    0    0    0  501 -0.00000000000E+00 -0.00000000000E+00 -0.23112129373E+02  0.23112129513E+02  0.25500000000E-02 0. -1.
    5000001    1    1    2    0    0 -0.71320677515E+02  0.29810338350E+02  0.58197500861E+03  0.60983211293E+03  0.16500000000E+03 0.  0.
   -5000001    1    1    2    0    0  0.71320677515E+02 -0.29810338350E+02  0.89461170549E+03  0.91297886006E+03  0.16500000000E+03 0.  0.
<mgrwt>
<rscale>  0 0.37235055E+03</rscale>
<asrwt>0</asrwt>
<pdfrwt beam="1">  1        2 0.21424268E+00 0.37235055E+03</pdfrwt>
<pdfrwt beam="2">  1       -2 0.33017329E-02 0.37235055E+03</pdfrwt>
<totfact> 0.57484104E+03</totfact>
</mgrwt>
</event>
<event>
 4    1  0.3541639E-005  0.4507555E+03  0.7818608E-02  0.1027497E+00
          2   -1    0    0  501    0  0.00000000000E+00  0.00000000000E+00  0.71980048598E+03  0.71980048598E+03  0.25500000000E-02 0. -1.
         -2   -1    0    0    0  501 -0.00000000000E+00 -0.00000000000E+00 -0.70568352347E+02  0.70568352393E+02  0.25500000000E-02 0.  1.
    5000001    1    1    2    0    0 -0.14172437413E+02 -0.13078234764E+03  0.46340604084E+03  0.50919057250E+03  0.16500000000E+03 0.  0.
   -5000001    1    1    2    0    0  0.14172437413E+02  0.13078234764E+03  0.18582609279E+03  0.28117826587E+03  0.16500000000E+03 0.  0.
<mgrwt>
<rscale>  0 0.45075552E+03</rscale>
<asrwt>0</asrwt>
<pdfrwt beam="1">  1        2 0.10282864E+00 0.45075552E+03</pdfrwt>
<pdfrwt beam="2">  1       -2 0.10081193E-01 0.45075552E+03</pdfrwt>
<totfact> 0.29259040E+03</totfact>
</mgrwt>
</event>
<event>
 4    1  0.3541639E-005  0.4236848E+03  0.7818608E-02  0.1035874E+00
          2   -1    0    0  501    0  0.00000000000E+00  0.00000000000E+00  0.25777223246E+03  0.25777223247E+03  0.25500000000E-02 0.  1.
         -2   -1    0    0    0  501 -0.00000000000E+00 -0.00000000000E+00 -0.17409633873E+03  0.17409633875E+03  0.25500000000E-02 0. -1.
    5000001    1    1    2    0    0 -0.11403666768E+03 -0.36547449085E+02 -0.16824750989E+02  0.20456820343E+03  0.16500000000E+03 0.  0.
   -5000001    1    1    2    0    0  0.11403666768E+03  0.36547449085E+02  0.10050064471E+03  0.22730036779E+03  0.16500000000E+03 0.  0.
<mgrwt>
<rscale>  0 0.42368480E+03</rscale>
<asrwt>0</asrwt>
<pdfrwt beam="1">  1        2 0.36824604E-01 0.42368480E+03</pdfrwt>
<pdfrwt beam="2">  1       -2 0.24870906E-01 0.42368480E+03</pdfrwt>
<totfact> 0.20231039E+03</totfact>
</mgrwt>
</event>
<event>
 4    1  0.3541639E-005  0.5936052E+03  0.7818608E-02  0.9918763E-01
          2   -1    0    0  501    0  0.00000000000E+00  0.00000000000E+00  0.63983101135E+03  0.63983101136E+03  0.25500000000E-02 0.  1.
         -2   -1    0    0    0  501 -0.00000000000E+00 -0.00000000000E+00 -0.13767975617E+03  0.13767975620E+03  0.25500000000E-02 0. -1.
    5000001    1    1    2    0    0  0.87287655415E+02 -0.22931200463E+03  0.21733311445E+03  0.36696295847E+03  0.16500000000E+03 0.  0.
   -5000001    1    1    2    0    0 -0.87287655415E+02  0.22931200463E+03  0.28481814073E+03  0.41054780909E+03  0.16500000000E+03 0.  0.
<mgrwt>
<rscale>  0 0.59360518E+03</rscale>
<asrwt>0</asrwt>
<pdfrwt beam="1">  1        2 0.91404432E-01 0.59360518E+03</pdfrwt>
<pdfrwt beam="2">  1       -2 0.19668536E-01 0.59360518E+03</pdfrwt>
<totfact> 0.11056651E+03</totfact>
</mgrwt>
</event>
<event>
 4    1  0.3541639E-005  0.4229657E+03  0.7818608E-02  0.1036105E+00
         -2   -1    0    0    0  501 -0.00000000000E+00  0.00000000000E+00  0.19799612503E+02  0.19799612667E+02  0.25500000000E-02 0. -1.
          2   -1    0    0  501    0  0.00000000000E+00 -0.00000000000E+00 -0.22588819197E+04  0.22588819197E+04  0.25500000000E-02 0.  1.
    5000001    1    1    2    0    0  0.30833464501E+02 -0.73243898840E+02 -0.54978495598E+03  0.57948586615E+03  0.16500000000E+03 0.  0.
   -5000001    1    1    2    0    0 -0.30833464501E+02  0.73243898840E+02 -0.16892973512E+04  0.16991956662E+04  0.16500000000E+03 0.  0.
<mgrwt>
<rscale>  0 0.42296566E+03</rscale>
<asrwt>0</asrwt>
<pdfrwt beam="1">  1        2 0.32269725E+00 0.42296566E+03</pdfrwt>
<pdfrwt beam="2">  1       -2 0.28285175E-02 0.42296566E+03</pdfrwt>
<totfact> 0.30325863E+03</totfact>
</mgrwt>
</event>
<event>
 4    1  0.3541639E-005  0.1064285E+04  0.7818608E-02  0.9240719E-01
         -2   -1    0    0    0  501 -0.00000000000E+00  0.00000000000E+00  0.11243115926E+03  0.11243115929E+03  0.25500000000E-02 0. -1.
          2   -1    0    0  501    0  0.00000000000E+00 -0.00000000000E+00 -0.25186566824E+04  0.25186566824E+04  0.25500000000E-02 0.  1.
    5000001    1    1    2    0    0  0.17630953400E+03 -0.36917185556E+03 -0.19388782726E+04  0.19884282403E+04  0.16500000000E+03 0.  0.
   -5000001    1    1    2    0    0 -0.17630953400E+03  0.36917185556E+03 -0.46734725049E+03  0.64265960139E+03  0.16500000000E+03 0.  0.
<mgrwt>
<rscale>  0 0.10642847E+04</rscale>
<asrwt>0</asrwt>
<pdfrwt beam="1">  1        2 0.35980806E+00 0.10642847E+04</pdfrwt>
<pdfrwt beam="2">  1       -2 0.16061596E-01 0.10642847E+04</pdfrwt>
<totfact> 0.13506014E+02</totfact>
</mgrwt>
</event>
<event>
 4    1  0.3541639E-005  0.4532745E+03  0.7818608E-02  0.1026750E+00
          2   -1    0    0  501    0  0.00000000000E+00  0.00000000000E+00  0.13671538809E+03  0.13671538811E+03  0.25500000000E-02 0.  1.
         -2   -1    0    0    0  501 -0.00000000000E+00 -0.00000000000E+00 -0.37570341754E+03  0.37570341754E+03  0.25500000000E-02 0. -1.
    5000001    1    1    2    0    0 -0.10599124428E+03 -0.74794555426E+02 -0.21615567216E+03  0.30129162615E+03  0.16500000000E+03 0.  0.
   -5000001    1    1    2    0    0  0.10599124428E+03  0.74794555426E+02 -0.22832357292E+02  0.21112717950E+03  0.16500000000E+03 0.  0.
<mgrwt>
<rscale>  0 0.45327448E+03</rscale>
<asrwt>0</asrwt>
<pdfrwt beam="1">  1        2 0.19530770E-01 0.45327448E+03</pdfrwt>
<pdfrwt beam="2">  1       -2 0.53671916E-01 0.45327448E+03</pdfrwt>
<totfact> 0.95761240E+02</totfact>
</mgrwt>
</event>
<event>
 4    1  0.3541639E-005  0.7532399E+03  0.7818608E-02  0.9630281E-01
         -2   -1    0    0    0  501 -0.00000000000E+00  0.00000000000E+00  0.10616793445E+03  0.10616793448E+03  0.25500000000E-02 0. -1.
          2   -1    0    0  501    0  0.00000000000E+00 -0.00000000000E+00 -0.13360210692E+04  0.13360210692E+04  0.25500000000E-02 0.  1.
    5000001    1    1    2    0    0 -0.11838724135E+03 -0.28455965706E+03 -0.88316766790E+03  0.94984202211E+03  0.16500000000E+03 0.  0.
   -5000001    1    1    2    0    0  0.11838724135E+03  0.28455965706E+03 -0.34668546686E+03  0.49234698158E+03  0.16500000000E+03 0.  0.
<mgrwt>
<rscale>  0 0.75323993E+03</rscale>
<asrwt>0</asrwt>
<pdfrwt beam="1">  1        2 0.19086014E+00 0.75323993E+03</pdfrwt>
<pdfrwt beam="2">  1       -2 0.15166849E-01 0.75323993E+03</pdfrwt>
<totfact> 0.62082403E+02</totfact>
</mgrwt>
</event>
<event>
 4    1  0.3541639E-005  0.6687096E+03  0.7818608E-02  0.9772292E-01
          2   -1    0    0  501    0  0.00000000000E+00  0.00000000000E+00  0.96915682940E+03  0.96915682940E+03  0.25500000000E-02 0.  1.
         -2   -1    0    0    0  501 -0.00000000000E+00 -0.00000000000E+00 -0.11535090962E+03  0.11535090965E+03  0.25500000000E-02 0. -1.
    5000001    1    1    2    0    0 -0.20785658446E+03  0.14943045904E+03  0.65065323268E+03  0.71840688401E+03  0.16500000000E+03 0.  0.
   -5000001    1    1    2    0    0  0.20785658446E+03 -0.14943045904E+03  0.20315268709E+03  0.36610085504E+03  0.16500000000E+03 0.  0.
<mgrwt>
<rscale>  0 0.66870957E+03</rscale>
<asrwt>0</asrwt>
<pdfrwt beam="1">  1        2 0.13845097E+00 0.66870957E+03</pdfrwt>
<pdfrwt beam="2">  1       -2 0.16478702E-01 0.66870957E+03</pdfrwt>
<totfact> 0.88014878E+02</totfact>
</mgrwt>
</event>
<event>
 4    1  0.3541639E-005  0.3860125E+03  0.7818608E-02  0.1048734E+00
         -2   -1    0    0    0  501 -0.00000000000E+00  0.00000000000E+00  0.26541771805E+02  0.26541771927E+02  0.25500000000E-02 0. -1.
          2   -1    0    0  501    0  0.00000000000E+00 -0.00000000000E+00 -0.14035010266E+04  0.14035010266E+04  0.25500000000E-02 0.  1.
    5000001    1    1    2    0    0  0.69081605483E+02 -0.72278434444E+02 -0.66820065745E+03  0.69549518972E+03  0.16500000000E+03 0.  0.
   -5000001    1    1    2    0    0 -0.69081605483E+02  0.72278434444E+02 -0.70875859732E+03  0.73454760879E+03  0.16500000000E+03 0.  0.
<mgrwt>
<rscale>  0 0.38601246E+03</rscale>
<asrwt>0</asrwt>
<pdfrwt beam="1">  1        2 0.20050010E+00 0.38601246E+03</pdfrwt>
<pdfrwt beam="2">  1       -2 0.37916826E-02 0.38601246E+03</pdfrwt>
<totfact> 0.52305539E+03</totfact>
</mgrwt>
</event>
<event>
 4    1  0.3541639E-005  0.4601845E+03  0.7818608E-02  0.1024728E+00
          2   -1    0    0  501    0  0.00000000000E+00  0.00000000000E+00  0.10184784199E+04  0.10184784199E+04  0.25500000000E-02 0.  1.
         -2   -1    0    0    0  501 -0.00000000000E+00 -0.00000000000E+00 -0.51981907628E+02  0.51981907690E+02  0.25500000000E-02 0. -1.
    5000001    1    1    2    0    0 -0.46337377760E+02 -0.80026356907E+02  0.78801960322E+03  0.81040191599E+03  0.16500000000E+03 0.  0.
   -5000001    1    1    2    0    0  0.46337377760E+02  0.80026356907E+02  0.17847690902E+03  0.26005841158E+03  0.16500000000E+03 0.  0.
<mgrwt>
<rscale>  0 0.46018453E+03</rscale>
<asrwt>0</asrwt>
<pdfrwt beam="1">  1        2 0.14549692E+00 0.46018453E+03</pdfrwt>
<pdfrwt beam="2">  1       -2 0.74259865E-02 0.46018453E+03</pdfrwt>
<totfact> 0.30306230E+03</totfact>
</mgrwt>
</event>
<event>
 4    1  0.3541639E-005  0.4292792E+03  0.7818608E-02  0.1034088E+00
         -2   -1    0    0    0  501 -0.00000000000E+00  0.00000000000E+00  0.14576605296E+03  0.14576605298E+03  0.25500000000E-02 0. -1.
          2   -1    0    0  501    0  0.00000000000E+00 -0.00000000000E+00 -0.31605549040E+03  0.31605549041E+03  0.25500000000E-02 0.  1.
    5000001    1    1    2    0    0  0.11123753432E+03  0.50075098529E+02 -0.15287662608E+03  0.25588584825E+03  0.16500000000E+03 0.  0.
   -5000001    1    1    2    0    0 -0.11123753432E+03 -0.50075098529E+02 -0.17412811362E+02  0.20593569514E+03  0.16500000000E+03 0.  0.
<mgrwt>
<rscale>  0 0.42927922E+03</rscale>
<asrwt>0</asrwt>
<pdfrwt beam="1">  1        2 0.45150784E-01 0.42927922E+03</pdfrwt>
<pdfrwt beam="2">  1       -2 0.20823722E-01 0.42927922E+03</pdfrwt>
<totfact> 0.22125032E+03</totfact>
</mgrwt>
</event>
<event>
 4    1  0.3541639E-005  0.4349265E+03  0.7818608E-02  0.1032315E+00
         -2   -1    0    0    0  501 -0.00000000000E+00  0.00000000000E+00  0.34001433215E+03  0.34001433216E+03  0.25500000000E-02 0. -1.
          2   -1    0    0  501    0  0.00000000000E+00 -0.00000000000E+00 -0.13908313061E+03  0.13908313064E+03  0.25500000000E-02 0.  1.
    5000001    1    1    2    0    0  0.42320300830E+02  0.12919730225E+03  0.14428368741E+03  0.25792582892E+03  0.16500000000E+03 0.  0.
   -5000001    1    1    2    0    0 -0.42320300830E+02 -0.12919730225E+03  0.56647514120E+02  0.22117163387E+03  0.16500000000E+03 0.  0.
<mgrwt>
<rscale>  0 0.43492647E+03</rscale>
<asrwt>0</asrwt>
<pdfrwt beam="1">  1        2 0.19869019E-01 0.43492647E+03</pdfrwt>
<pdfrwt beam="2">  1       -2 0.48573476E-01 0.43492647E+03</pdfrwt>
<totfact> 0.11484904E+03</totfact>
</mgrwt>
</event>
<event>
 4    1  0.3541639E-005  0.6782549E+03  0.7818608E-02  0.9755159E-01
         -2   -1    0    0    0  501 -0.00000000000E+00  0.00000000000E+00  0.70521017613E+02  0.70521017660E+02  0.25500000000E-02 0. -1.
          2   -1    0    0  501    0  0.00000000000E+00 -0.00000000000E+00 -0.16308249566E+04  0.16308249566E+04  0.25500000000E-02 0.  1.
    5000001    1    1    2    0    0  0.46882803427E+02  0.22809425748E+03 -0.32064283912E+03  0.42925728628E+03  0.16500000000E+03 0.  0.
   -5000001    1    1    2    0    0 -0.46882803427E+02 -0.22809425748E+03 -0.12396610999E+04  0.12720886880E+04  0.16500000000E+03 0.  0.
<mgrwt>
<rscale>  0 0.67825492E+03</rscale>
<asrwt>0</asrwt>
<pdfrwt beam="1">  1        2 0.23297497E+00 0.67825492E+03</pdfrwt>
<pdfrwt beam="2">  1       -2 0.10074432E-01 0.67825492E+03</pdfrwt>
<totfact> 0.85832984E+02</totfact>
</mgrwt>
</event>
<event>
 4    1  0.3541639E-005  0.4297803E+03  0.7818608E-02  0.1033929E+00
         -2   -1    0    0    0  501 -0.00000000000E+00  0.00000000000E+00  0.25606870779E+02  0.25606870906E+02  0.25500000000E-02 0. -1.
          2   -1    0    0  501    0  0.00000000000E+00 -0.00000000000E+00 -0.18033354837E+04  0.18033354837E+04  0.25500000000E-02 0.  1.
    5000001    1    1    2    0    0  0.11491589883E+03  0.56854077681E+02 -0.67546201140E+03  0.70704453806E+03  0.16500000000E+03 0.  0.
   -5000001    1    1    2    0    0 -0.11491589883E+03 -0.56854077681E+02 -0.11022666016E+04  0.11218978166E+04  0.16500000000E+03 0.  0.
<mgrwt>
<rscale>  0 0.42978031E+03</rscale>
<asrwt>0</asrwt>
<pdfrwt beam="1">  1        2 0.25761928E+00 0.42978031E+03</pdfrwt>
<pdfrwt beam="2">  1       -2 0.36581255E-02 0.42978031E+03</pdfrwt>
<totfact> 0.34617124E+03</totfact>
</mgrwt>
</event>
<event>
 4    1  0.3541639E-005  0.3800914E+03  0.7818608E-02  0.1050900E+00
          2   -1    0    0  501    0  0.00000000000E+00  0.00000000000E+00  0.89750046965E+02  0.89750047001E+02  0.25500000000E-02 0.  1.
         -2   -1    0    0    0  501 -0.00000000000E+00 -0.00000000000E+00 -0.40242168747E+03  0.40242168748E+03  0.25500000000E-02 0. -1.
    5000001    1    1    2    0    0  0.74968667616E+02  0.31039943011E+02 -0.94119877430E+02  0.20656071871E+03  0.16500000000E+03 0.  0.
   -5000001    1    1    2    0    0 -0.74968667616E+02 -0.31039943011E+02 -0.21855176308E+03  0.28561101577E+03  0.16500000000E+03 0.  0.
<mgrwt>
<rscale>  0 0.38009139E+03</rscale>
<asrwt>0</asrwt>
<pdfrwt beam="1">  1        2 0.12821435E-01 0.38009139E+03</pdfrwt>
<pdfrwt beam="2">  1       -2 0.57488812E-01 0.38009139E+03</pdfrwt>
<totfact> 0.13714811E+03</totfact>
</mgrwt>
</event>
<event>
 4    1  0.3541639E-005  0.5509882E+03  0.7818608E-02  0.1001265E+00
         -2   -1    0    0    0  501 -0.00000000000E+00  0.00000000000E+00  0.13089031780E+03  0.13089031782E+03  0.25500000000E-02 0. -1.
          2   -1    0    0  501    0  0.00000000000E+00 -0.00000000000E+00 -0.57985191784E+03  0.57985191784E+03  0.25500000000E-02 0.  1.
    5000001    1    1    2    0    0 -0.13728047237E+03 -0.16336505173E+03 -0.15222184233E+03  0.30972658507E+03  0.16500000000E+03 0.  0.
   -5000001    1    1    2    0    0  0.13728047237E+03  0.16336505173E+03 -0.29673975771E+03  0.40101565059E+03  0.16500000000E+03 0.  0.
<mgrwt>
<rscale>  0 0.55098821E+03</rscale>
<asrwt>0</asrwt>
<pdfrwt beam="1">  1        2 0.82835987E-01 0.55098821E+03</pdfrwt>
<pdfrwt beam="2">  1       -2 0.18698617E-01 0.55098821E+03</pdfrwt>
<totfact> 0.13557320E+03</totfact>
</mgrwt>
</event>
<event>
 4    1  0.3541639E-005  0.9922404E+03  0.7818608E-02  0.9317097E-01
         -2   -1    0    0    0  501 -0.00000000000E+00  0.00000000000E+00  0.23960535902E+03  0.23960535903E+03  0.25500000000E-02 0.  1.
          2   -1    0    0  501    0  0.00000000000E+00 -0.00000000000E+00 -0.10272526222E+04  0.10272526222E+04  0.25500000000E-02 0. -1.
    5000001    1    1    2    0    0  0.11664780351E+03 -0.45152778197E+03 -0.44204050390E+03  0.66340700558E+03  0.16500000000E+03 0.  0.
   -5000001    1    1    2    0    0 -0.11664780351E+03  0.45152778197E+03 -0.34560675926E+03  0.60345097564E+03  0.16500000000E+03 0.  0.
<mgrwt>
<rscale>  0 0.99224036E+03</rscale>
<asrwt>0</asrwt>
<pdfrwt beam="1">  1        2 0.14675037E+00 0.99224036E+03</pdfrwt>
<pdfrwt beam="2">  1       -2 0.34229337E-01 0.99224036E+03</pdfrwt>
<totfact> 0.21522622E+02</totfact>
</mgrwt>
</event>
<event>
 4    1  0.3541639E-005  0.4673075E+03  0.7818608E-02  0.1022683E+00
         -2   -1    0    0    0  501 -0.00000000000E+00  0.00000000000E+00  0.57339971674E+02  0.57339971731E+02  0.25500000000E-02 0.  1.
          2   -1    0    0  501    0  0.00000000000E+00 -0.00000000000E+00 -0.95211195731E+03  0.95211195731E+03  0.25500000000E-02 0. -1.
    5000001    1    1    2    0    0 -0.14663487572E+03 -0.71619618902E+02 -0.38870649428E+03  0.45271281768E+03  0.16500000000E+03 0.  0.
   -5000001    1    1    2    0    0  0.14663487572E+03  0.71619618902E+02 -0.50606549135E+03  0.55673911137E+03  0.16500000000E+03 0.  0.
<mgrwt>
<rscale>  0 0.46730749E+03</rscale>
<asrwt>0</asrwt>
<pdfrwt beam="1">  1        2 0.13601598E+00 0.46730749E+03</pdfrwt>
<pdfrwt beam="2">  1       -2 0.81914251E-02 0.46730749E+03</pdfrwt>
<totfact> 0.28480426E+03</totfact>
</mgrwt>
</event>
<event>
 4    1  0.3541639E-005  0.6509607E+03  0.7818608E-02  0.9804978E-01
          2   -1    0    0  501    0  0.00000000000E+00  0.00000000000E+00  0.34447865273E+03  0.34447865274E+03  0.25500000000E-02 0.  1.
         -2   -1    0    0    0  501 -0.00000000000E+00 -0.00000000000E+00 -0.30752982581E+03  0.30752982582E+03  0.25500000000E-02 0. -1.
    5000001    1    1    2    0    0  0.13251404099E+03 -0.21596332127E+03  0.13913545930E+03  0.33284200941E+03  0.16500000000E+03 0.  0.
   -5000001    1    1    2    0    0 -0.13251404099E+03  0.21596332127E+03 -0.10218663238E+03  0.31916646915E+03  0.16500000000E+03 0.  0.
<mgrwt>
<rscale>  0 0.65096071E+03</rscale>
<asrwt>0</asrwt>
<pdfrwt beam="1">  1        2 0.49211236E-01 0.65096071E+03</pdfrwt>
<pdfrwt beam="2">  1       -2 0.43932832E-01 0.65096071E+03</pdfrwt>
<totfact> 0.50593956E+02</totfact>
</mgrwt>
</event>
<event>
 4    1  0.3541639E-005  0.3898269E+03  0.7818608E-02  0.1047360E+00
          2   -1    0    0  501    0  0.00000000000E+00  0.00000000000E+00  0.15183991931E+04  0.15183991931E+04  0.25500000000E-02 0.  1.
         -2   -1    0    0    0  501 -0.00000000000E+00 -0.00000000000E+00 -0.25020600134E+02  0.25020600264E+02  0.25500000000E-02 0. -1.
    5000001    1    1    2    0    0  0.78100087016E+02 -0.64746589986E+02  0.66044367855E+03  0.68826055898E+03  0.16500000000E+03 0.  0.
   -5000001    1    1    2    0    0 -0.78100087016E+02  0.64746589986E+02  0.83293491437E+03  0.85515923435E+03  0.16500000000E+03 0.  0.
<mgrwt>
<rscale>  0 0.38982693E+03</rscale>
<asrwt>0</asrwt>
<pdfrwt beam="1">  1        2 0.21691419E+00 0.38982693E+03</pdfrwt>
<pdfrwt beam="2">  1       -2 0.35743712E-02 0.38982693E+03</pdfrwt>
<totfact> 0.49899899E+03</totfact>
</mgrwt>
</event>
<event>
 4    1  0.3541639E-005  0.4606484E+03  0.7818608E-02  0.1024593E+00
          2   -1    0    0  501    0  0.00000000000E+00  0.00000000000E+00  0.12856775252E+04  0.12856775252E+04  0.25500000000E-02 0. -1.
         -2   -1    0    0    0  501 -0.00000000000E+00 -0.00000000000E+00 -0.41261701689E+02  0.41261701768E+02  0.25500000000E-02 0.  1.
    5000001    1    1    2    0    0  0.66572961267E+02  0.39849619559E+02  0.21682905325E+03  0.28330158786E+03  0.16500000000E+03 0.  0.
   -5000001    1    1    2    0    0 -0.66572961267E+02 -0.39849619559E+02  0.10275867702E+04  0.10436376391E+04  0.16500000000E+03 0.  0.
<mgrwt>
<rscale>  0 0.46064842E+03</rscale>
<asrwt>0</asrwt>
<pdfrwt beam="1">  1        2 0.18366819E+00 0.46064842E+03</pdfrwt>
<pdfrwt beam="2">  1       -2 0.58945296E-02 0.46064842E+03</pdfrwt>
<totfact> 0.30714154E+03</totfact>
</mgrwt>
</event>
<event>
 4    1  0.3541639E-005  0.4284630E+03  0.7818608E-02  0.1034347E+00
          2   -1    0    0  501    0  0.00000000000E+00  0.00000000000E+00  0.15958322482E+04  0.15958322482E+04  0.25500000000E-02 0. -1.
         -2   -1    0    0    0  501 -0.00000000000E+00 -0.00000000000E+00 -0.28759370687E+02  0.28759370800E+02  0.25500000000E-02 0.  1.
    5000001    1    1    2    0    0  0.10136430735E+03 -0.88195030102E+02  0.87772309305E+03  0.90314778093E+03  0.16500000000E+03 0.  0.
   -5000001    1    1    2    0    0 -0.10136430735E+03  0.88195030102E+02  0.68934978444E+03  0.72144383804E+03  0.16500000000E+03 0.  0.
<mgrwt>
<rscale>  0 0.42846298E+03</rscale>
<asrwt>0</asrwt>
<pdfrwt beam="1">  1        2 0.22797606E+00 0.42846298E+03</pdfrwt>
<pdfrwt beam="2">  1       -2 0.41084811E-02 0.42846298E+03</pdfrwt>
<totfact> 0.36885632E+03</totfact>
</mgrwt>
</event>
<event>
 4    1  0.3541639E-005  0.5707765E+03  0.7818608E-02  0.9967962E-01
          2   -1    0    0  501    0  0.00000000000E+00  0.00000000000E+00  0.53510387064E+03  0.53510387064E+03  0.25500000000E-02 0.  1.
         -2   -1    0    0    0  501 -0.00000000000E+00 -0.00000000000E+00 -0.15220680982E+03  0.15220680985E+03  0.25500000000E-02 0. -1.
    5000001    1    1    2    0    0  0.15814707137E+03 -0.13803332293E+03  0.70085627996E+02  0.27604472405E+03  0.16500000000E+03 0.  0.
   -5000001    1    1    2    0    0 -0.15814707137E+03  0.13803332293E+03  0.31281143282E+03  0.41126595644E+03  0.16500000000E+03 0.  0.
<mgrwt>
<rscale>  0 0.57077650E+03</rscale>
<asrwt>0</asrwt>
<pdfrwt beam="1">  1        2 0.76443409E-01 0.57077650E+03</pdfrwt>
<pdfrwt beam="2">  1       -2 0.21743830E-01 0.57077650E+03</pdfrwt>
<totfact> 0.11438577E+03</totfact>
</mgrwt>
</event>
<event>
 4    1  0.3541639E-005  0.4469239E+03  0.7818608E-02  0.1028643E+00
          2   -1    0    0  501    0  0.00000000000E+00  0.00000000000E+00  0.12250960833E+04  0.12250960833E+04  0.25500000000E-02 0.  1.
         -2   -1    0    0    0  501 -0.00000000000E+00 -0.00000000000E+00 -0.40760274176E+02  0.40760274256E+02  0.25500000000E-02 0. -1.
    5000001    1    1    2    0    0 -0.65668905571E+02 -0.11630586622E+03  0.78984239457E+03  0.81787252548E+03  0.16500000000E+03 0.  0.
   -5000001    1    1    2    0    0  0.65668905571E+02  0.11630586622E+03  0.39449341456E+03  0.44798383208E+03  0.16500000000E+03 0.  0.
<mgrwt>
<rscale>  0 0.44692394E+03</rscale>
<asrwt>0</asrwt>
<pdfrwt beam="1">  1        2 0.17501368E+00 0.44692394E+03</pdfrwt>
<pdfrwt beam="2">  1       -2 0.58228978E-02 0.44692394E+03</pdfrwt>
<totfact> 0.33774389E+03</totfact>
</mgrwt>
</event>
<event>
 4    1  0.3541639E-005  0.3889453E+03  0.7818608E-02  0.1047676E+00
         -2   -1    0    0    0  501 -0.00000000000E+00  0.00000000000E+00  0.45746200352E+02  0.45746200424E+02  0.25500000000E-02 0. -1.
          2   -1    0    0  501    0  0.00000000000E+00 -0.00000000000E+00 -0.82672692103E+03  0.82672692104E+03  0.25500000000E-02 0.  1.
    5000001    1    1    2    0    0 -0.62627592234E+02  0.75768557300E+02 -0.32202656766E+03  0.37495226344E+03  0.16500000000E+03 0.  0.
   -5000001    1    1    2    0    0  0.62627592234E+02 -0.75768557300E+02 -0.45895415302E+03  0.49752085802E+03  0.16500000000E+03 0.  0.
<mgrwt>
<rscale>  0 0.38894532E+03</rscale>
<asrwt>0</asrwt>
<pdfrwt beam="1">  1        2 0.11810384E+00 0.38894532E+03</pdfrwt>
<pdfrwt beam="2">  1       -2 0.65351720E-02 0.38894532E+03</pdfrwt>
<totfact> 0.48802324E+03</totfact>
</mgrwt>
</event>
<event>
 4    1  0.3541639E-005  0.4305369E+03  0.7818608E-02  0.1033691E+00
         -2   -1    0    0    0  501 -0.00000000000E+00  0.00000000000E+00  0.28177135833E+02  0.28177135949E+02  0.25500000000E-02 0. -1.
          2   -1    0    0  501    0  0.00000000000E+00 -0.00000000000E+00 -0.16446136634E+04  0.16446136634E+04  0.25500000000E-02 0.  1.
    5000001    1    1    2    0    0  0.11170977931E+03  0.80439103909E+02 -0.75816215071E+03  0.78802561570E+03  0.16500000000E+03 0.  0.
   -5000001    1    1    2    0    0 -0.11170977931E+03 -0.80439103909E+02 -0.85827437686E+03  0.88476518366E+03  0.16500000000E+03 0.  0.
<mgrwt>
<rscale>  0 0.43053689E+03</rscale>
<asrwt>0</asrwt>
<pdfrwt beam="1">  1        2 0.23494475E+00 0.43053689E+03</pdfrwt>
<pdfrwt beam="2">  1       -2 0.40253062E-02 0.43053689E+03</pdfrwt>
<totfact> 0.35949870E+03</totfact>
</mgrwt>
</event>
<event>
 4    1  0.3541639E-005  0.4971384E+03  0.7818608E-02  0.1014529E+00
          2   -1    0    0  501    0  0.00000000000E+00  0.00000000000E+00  0.26864718989E+04  0.26864718989E+04  0.25500000000E-02 0.  1.
         -2   -1    0    0    0  501 -0.00000000000E+00 -0.00000000000E+00 -0.22999175230E+02  0.22999175371E+02  0.25500000000E-02 0. -1.
    5000001    1    1    2    0    0  0.18295200538E+03 -0.17623964334E+02  0.11795616351E+04  0.12051442617E+04  0.16500000000E+03 0.  0.
   -5000001    1    1    2    0    0 -0.18295200538E+03  0.17623964334E+02  0.14839110885E+04  0.15043268126E+04  0.16500000000E+03 0.  0.
<mgrwt>
<rscale>  0 0.49713836E+03</rscale>
<asrwt>0</asrwt>
<pdfrwt beam="1">  1        2 0.38378146E+00 0.49713836E+03</pdfrwt>
<pdfrwt beam="2">  1       -2 0.32855985E-02 0.49713836E+03</pdfrwt>
<totfact> 0.14601748E+03</totfact>
</mgrwt>
</event>
<event>
 4    1  0.3541639E-005  0.4673538E+03  0.7818608E-02  0.1022670E+00
          2   -1    0    0  501    0  0.00000000000E+00  0.00000000000E+00  0.23866579294E+04  0.23866579294E+04  0.25500000000E-02 0.  1.
         -2   -1    0    0    0  501 -0.00000000000E+00 -0.00000000000E+00 -0.22879224272E+02  0.22879224414E+02  0.25500000000E-02 0. -1.
    5000001    1    1    2    0    0  0.61022747736E+02 -0.15345167841E+03  0.12356395907E+04  0.12574980682E+04  0.16500000000E+03 0.  0.
   -5000001    1    1    2    0    0 -0.61022747736E+02  0.15345167841E+03  0.11281391144E+04  0.11520390857E+04  0.16500000000E+03 0.  0.
<mgrwt>
<rscale>  0 0.46735375E+03</rscale>
<asrwt>0</asrwt>
<pdfrwt beam="1">  1        2 0.34095133E+00 0.46735375E+03</pdfrwt>
<pdfrwt beam="2">  1       -2 0.32684587E-02 0.46735375E+03</pdfrwt>
<totfact> 0.20990116E+03</totfact>
</mgrwt>
</event>
<event>
 4    1  0.3541639E-005  0.3564168E+03  0.7818608E-02  0.1060012E+00
          2   -1    0    0  501    0  0.00000000000E+00  0.00000000000E+00  0.32378660767E+03  0.32378660768E+03  0.25500000000E-02 0.  1.
         -2   -1    0    0    0  501 -0.00000000000E+00 -0.00000000000E+00 -0.98083821607E+02  0.98083821640E+02  0.25500000000E-02 0. -1.
    5000001    1    1    2    0    0  0.45444712382E+02 -0.45398396760E+02  0.88972529039E+02  0.19815990320E+03  0.16500000000E+03 0.  0.
   -5000001    1    1    2    0    0 -0.45444712382E+02  0.45398396760E+02  0.13673025702E+03  0.22371052612E+03  0.16500000000E+03 0.  0.
<mgrwt>
<rscale>  0 0.35641677E+03</rscale>
<asrwt>0</asrwt>
<pdfrwt beam="1">  1        2 0.46255229E-01 0.35641677E+03</pdfrwt>
<pdfrwt beam="2">  1       -2 0.14011975E-01 0.35641677E+03</pdfrwt>
<totfact> 0.41990398E+03</totfact>
</mgrwt>
</event>
<event>
 4    1  0.3541639E-005  0.5739443E+03  0.7818608E-02  0.9960988E-01
          2   -1    0    0  501    0  0.00000000000E+00  0.00000000000E+00  0.30206823371E+04  0.30206823371E+04  0.25500000000E-02 0.  1.
         -2   -1    0    0    0  501 -0.00000000000E+00 -0.00000000000E+00 -0.27263046428E+02  0.27263046547E+02  0.25500000000E-02 0. -1.
    5000001    1    1    2    0    0 -0.84838336401E+02  0.19995573323E+03  0.10232631721E+04  0.10589959197E+04  0.16500000000E+03 0.  0.
   -5000001    1    1    2    0    0  0.84838336401E+02 -0.19995573323E+03  0.19701561186E+04  0.19889494639E+04  0.16500000000E+03 0.  0.
<mgrwt>
<rscale>  0 0.57394426E+03</rscale>
<asrwt>0</asrwt>
<pdfrwt beam="1">  1        2 0.43152595E+00 0.57394426E+03</pdfrwt>
<pdfrwt beam="2">  1       -2 0.38947218E-02 0.57394426E+03</pdfrwt>
<totfact> 0.74341052E+02</totfact>
</mgrwt>
</event>
<event>
 4    1  0.3541639E-005  0.8835414E+03  0.7818608E-02  0.9446393E-01
          2   -1    0    0  501    0  0.00000000000E+00  0.00000000000E+00  0.10300601999E+04  0.10300601999E+04  0.25500000000E-02 0.  1.
         -2   -1    0    0    0  501 -0.00000000000E+00 -0.00000000000E+00 -0.18946594818E+03  0.18946594820E+03  0.25500000000E-02 0. -1.
    5000001    1    1    2    0    0 -0.25001414140E+03  0.28503923735E+03  0.63493650171E+03  0.75770957426E+03  0.16500000000E+03 0.  0.
   -5000001    1    1    2    0    0  0.25001414140E+03 -0.28503923735E+03  0.20565775001E+03  0.46181657383E+03  0.16500000000E+03 0.  0.
<mgrwt>
<rscale>  0 0.88354136E+03</rscale>
<asrwt>0</asrwt>
<pdfrwt beam="1">  1        2 0.14715146E+00 0.88354136E+03</pdfrwt>
<pdfrwt beam="2">  1       -2 0.27066564E-01 0.88354136E+03</pdfrwt>
<totfact> 0.33386697E+02</totfact>
</mgrwt>
</event>
<event>
 4    1  0.3541639E-005  0.8010886E+03  0.7818608E-02  0.9558443E-01
         -2   -1    0    0    0  501 -0.00000000000E+00  0.00000000000E+00  0.79848826934E+02  0.79848826974E+02  0.25500000000E-02 0. -1.
          2   -1    0    0  501    0  0.00000000000E+00 -0.00000000000E+00 -0.20092433966E+04  0.20092433966E+04  0.25500000000E-02 0.  1.
    5000001    1    1    2    0    0 -0.20228568291E+03  0.29175238294E+03 -0.11855437667E+04  0.12485103017E+04  0.16500000000E+03 0.  0.
   -5000001    1    1    2    0    0  0.20228568291E+03 -0.29175238294E+03 -0.74385080296E+03  0.84058192196E+03  0.16500000000E+03 0.  0.
<mgrwt>
<rscale>  0 0.80108858E+03</rscale>
<asrwt>0</asrwt>
<pdfrwt beam="1">  1        2 0.28703474E+00 0.80108858E+03</pdfrwt>
<pdfrwt beam="2">  1       -2 0.11406977E-01 0.80108858E+03</pdfrwt>
<totfact> 0.44639909E+02</totfact>
</mgrwt>
</event>
<event>
 4    1  0.3541639E-005  0.5327364E+03  0.7818608E-02  0.1005571E+00
         -2   -1    0    0    0  501 -0.00000000000E+00  0.00000000000E+00  0.21378402373E+03  0.21378402374E+03  0.25500000000E-02 0. -1.
          2   -1    0    0  501    0  0.00000000000E+00 -0.00000000000E+00 -0.33188648268E+03  0.33188648269E+03  0.25500000000E-02 0.  1.
    5000001    1    1    2    0    0 -0.11081580865E+03 -0.30309512377E+02  0.11991405885E+03  0.23410081482E+03  0.16500000000E+03 0.  0.
   -5000001    1    1    2    0    0  0.11081580865E+03  0.30309512377E+02 -0.23801651780E+03  0.31156969162E+03  0.16500000000E+03 0.  0.
<mgrwt>
<rscale>  0 0.53273644E+03</rscale>
<asrwt>0</asrwt>
<pdfrwt beam="1">  1        2 0.47412354E-01 0.53273644E+03</pdfrwt>
<pdfrwt beam="2">  1       -2 0.30540575E-01 0.53273644E+03</pdfrwt>
<totfact> 0.10576313E+03</totfact>
</mgrwt>
</event>
<event>
 4    1  0.3541639E-005  0.4084203E+03  0.7818608E-02  0.1040902E+00
          2   -1    0    0  501    0  0.00000000000E+00  0.00000000000E+00  0.77148210746E+03  0.77148210747E+03  0.25500000000E-02 0.  1.
         -2   -1    0    0    0  501 -0.00000000000E+00 -0.00000000000E+00 -0.54054124326E+02  0.54054124386E+02  0.25500000000E-02 0. -1.
    5000001    1    1    2    0    0 -0.10264457183E+03  0.48412113889E+02  0.27793442913E+03  0.34256705591E+03  0.16500000000E+03 0.  0.
   -5000001    1    1    2    0    0  0.10264457183E+03 -0.48412113889E+02  0.43949355401E+03  0.48296917595E+03  0.16500000000E+03 0.  0.
<mgrwt>
<rscale>  0 0.40842032E+03</rscale>
<asrwt>0</asrwt>
<pdfrwt beam="1">  1        2 0.11021174E+00 0.40842032E+03</pdfrwt>
<pdfrwt beam="2">  1       -2 0.77220173E-02 0.40842032E+03</pdfrwt>
<totfact> 0.41026188E+03</totfact>
</mgrwt>
</event>
<event>
 4    1  0.3541639E-005  0.6288052E+03  0.7818608E-02  0.9847383E-01
          2   -1    0    0  501    0  0.00000000000E+00  0.00000000000E+00  0.10446455679E+04  0.10446455679E+04  0.25500000000E-02 0.  1.
         -2   -1    0    0    0  501 -0.00000000000E+00 -0.00000000000E+00 -0.94624445639E+02  0.94624445674E+02  0.25500000000E-02 0. -1.
    5000001    1    1    2    0    0  0.24672591495E+03  0.42604335427E+02  0.30374790173E+03  0.42682150169E+03  0.16500000000E+03 0.  0.
   -5000001    1    1    2    0    0 -0.24672591495E+03 -0.42604335427E+02  0.64627322050E+03  0.71244851185E+03  0.16500000000E+03 0.  0.
<mgrwt>
<rscale>  0 0.62880524E+03</rscale>
<asrwt>0</asrwt>
<pdfrwt beam="1">  1        2 0.14923507E+00 0.62880524E+03</pdfrwt>
<pdfrwt beam="2">  1       -2 0.13517779E-01 0.62880524E+03</pdfrwt>
<totfact> 0.11066741E+03</totfact>
</mgrwt>
</event>
<event>
 4    1  0.3541639E-005  0.6517180E+03  0.7818608E-02  0.9803561E-01
          2   -1    0    0  501    0  0.00000000000E+00  0.00000000000E+00  0.13218318193E+04  0.13218318193E+04  0.25500000000E-02 0.  1.
         -2   -1    0    0    0  501 -0.00000000000E+00 -0.00000000000E+00 -0.80331007810E+02  0.80331007850E+02  0.25500000000E-02 0. -1.
    5000001    1    1    2    0    0 -0.24075792004E+03  0.59184156697E+02  0.33620095204E+03  0.44913608252E+03  0.16500000000E+03 0.  0.
   -5000001    1    1    2    0    0  0.24075792004E+03 -0.59184156697E+02  0.90529985945E+03  0.95302674464E+03  0.16500000000E+03 0.  0.
<mgrwt>
<rscale>  0 0.65171798E+03</rscale>
<asrwt>0</asrwt>
<pdfrwt beam="1">  1        2 0.18883311E+00 0.65171798E+03</pdfrwt>
<pdfrwt beam="2">  1       -2 0.11475859E-01 0.65171798E+03</pdfrwt>
<totfact> 0.10100141E+03</totfact>
</mgrwt>
</event>
<event>
 4    1  0.3541639E-005  0.4817550E+03  0.7818608E-02  0.1018654E+00
          2   -1    0    0  501    0  0.00000000000E+00  0.00000000000E+00  0.45398610739E+03  0.45398610740E+03  0.25500000000E-02 0.  1.
         -2   -1    0    0    0  501 -0.00000000000E+00 -0.00000000000E+00 -0.12780562562E+03  0.12780562564E+03  0.25500000000E-02 0. -1.
    5000001    1    1    2    0    0 -0.13125446048E+03 -0.62505755165E+02  0.28179851618E+03  0.35744944614E+03  0.16500000000E+03 0.  0.
   -5000001    1    1    2    0    0  0.13125446048E+03  0.62505755165E+02  0.44381965595E+02  0.22434228691E+03  0.16500000000E+03 0.  0.
<mgrwt>
<rscale>  0 0.48175504E+03</rscale>
<asrwt>0</asrwt>
<pdfrwt beam="1">  1        2 0.64855158E-01 0.48175504E+03</pdfrwt>
<pdfrwt beam="2">  1       -2 0.18257947E-01 0.48175504E+03</pdfrwt>
<totfact> 0.18655379E+03</totfact>
</mgrwt>
</event>
<event>
 4    1  0.3541639E-005  0.7451116E+03  0.7818608E-02  0.9643051E-01
         -2   -1    0    0    0  501 -0.00000000000E+00  0.00000000000E+00  0.60361700001E+02  0.60361700054E+02  0.25500000000E-02 0. -1.
          2   -1    0    0  501    0  0.00000000000E+00 -0.00000000000E+00 -0.22994354495E+04  0.22994354495E+04  0.25500000000E-02 0.  1.
    5000001    1    1    2    0    0  0.14644421192E+03 -0.29481454454E+03 -0.94006580676E+03  0.10096089559E+04  0.16500000000E+03 0.  0.
   -5000001    1    1    2    0    0 -0.14644421192E+03  0.29481454454E+03 -0.12990079427E+04  0.13501881936E+04  0.16500000000E+03 0.  0.
<mgrwt>
<rscale>  0 0.74511162E+03</rscale>
<asrwt>0</asrwt>
<pdfrwt beam="1">  1        2 0.32849072E+00 0.74511162E+03</pdfrwt>
<pdfrwt beam="2">  1       -2 0.86231015E-02 0.74511162E+03</pdfrwt>
<totfact> 0.50339294E+02</totfact>
</mgrwt>
</event>
<event>
 4    1  0.3541639E-005  0.6500413E+03  0.7818608E-02  0.9806702E-01
          2   -1    0    0  501    0  0.00000000000E+00  0.00000000000E+00  0.15309687612E+04  0.15309687612E+04  0.25500000000E-02 0.  1.
         -2   -1    0    0    0  501 -0.00000000000E+00 -0.00000000000E+00 -0.69001026866E+02  0.69001026913E+02  0.25500000000E-02 0. -1.
    5000001    1    1    2    0    0 -0.22951429477E+03 -0.11893256723E+03  0.46598533572E+03  0.55784325770E+03  0.16500000000E+03 0.  0.
   -5000001    1    1    2    0    0  0.22951429477E+03  0.11893256723E+03  0.99598239859E+03  0.10421265304E+04  0.16500000000E+03 0.  0.
<mgrwt>
<rscale>  0 0.65004128E+03</rscale>
<asrwt>0</asrwt>
<pdfrwt beam="1">  1        2 0.21870981E+00 0.65004128E+03</pdfrwt>
<pdfrwt beam="2">  1       -2 0.98572900E-02 0.65004128E+03</pdfrwt>
<totfact> 0.10027847E+03</totfact>
</mgrwt>
</event>
<event>
 4    1  0.3541639E-005  0.5275881E+03  0.7818608E-02  0.1006819E+00
         -2   -1    0    0    0  501 -0.00000000000E+00  0.00000000000E+00  0.11303762818E+03  0.11303762821E+03  0.25500000000E-02 0. -1.
          2   -1    0    0  501    0  0.00000000000E+00 -0.00000000000E+00 -0.61561188884E+03  0.61561188885E+03  0.25500000000E-02 0.  1.
    5000001    1    1    2    0    0  0.15684066227E+03 -0.47352802933E+02 -0.79225557375E+02  0.24564806172E+03  0.16500000000E+03 0.  0.
   -5000001    1    1    2    0    0 -0.15684066227E+03  0.47352802933E+02 -0.42334870328E+03  0.48300145534E+03  0.16500000000E+03 0.  0.
<mgrwt>
<rscale>  0 0.52758813E+03</rscale>
<asrwt>0</asrwt>
<pdfrwt beam="1">  1        2 0.87944554E-01 0.52758813E+03</pdfrwt>
<pdfrwt beam="2">  1       -2 0.16148233E-01 0.52758813E+03</pdfrwt>
<totfact> 0.16236263E+03</totfact>
</mgrwt>
</event>
<event>
 4    1  0.3541639E-005  0.4622820E+03  0.7818608E-02  0.1024121E+00
         -2   -1    0    0    0  501 -0.00000000000E+00  0.00000000000E+00  0.56558797075E+02  0.56558797132E+02  0.25500000000E-02 0. -1.
          2   -1    0    0  501    0  0.00000000000E+00 -0.00000000000E+00 -0.94461279868E+03  0.94461279869E+03  0.25500000000E-02 0.  1.
    5000001    1    1    2    0    0 -0.33069953858E+02 -0.13730238141E+03 -0.61531855090E+03  0.65252393433E+03  0.16500000000E+03 0.  0.
   -5000001    1    1    2    0    0  0.33069953858E+02  0.13730238141E+03 -0.27273545071E+03  0.34864766149E+03  0.16500000000E+03 0.  0.
<mgrwt>
<rscale>  0 0.46228201E+03</rscale>
<asrwt>0</asrwt>
<pdfrwt beam="1">  1        2 0.13494468E+00 0.46228201E+03</pdfrwt>
<pdfrwt beam="2">  1       -2 0.80798287E-02 0.46228201E+03</pdfrwt>
<totfact> 0.29419098E+03</totfact>
</mgrwt>
</event>
<event>
 4    1  0.3541639E-005  0.4898271E+03  0.7818608E-02  0.1016469E+00
         -2   -1    0    0    0  501 -0.00000000000E+00  0.00000000000E+00  0.12855376272E+03  0.12855376274E+03  0.25500000000E-02 0. -1.
          2   -1    0    0  501    0  0.00000000000E+00 -0.00000000000E+00 -0.46659584994E+03  0.46659584994E+03  0.25500000000E-02 0.  1.
    5000001    1    1    2    0    0  0.47611349689E+02  0.14961213391E+03 -0.59621886694E+02  0.23543661696E+03  0.16500000000E+03 0.  0.
   -5000001    1    1    2    0    0 -0.47611349689E+02 -0.14961213391E+03 -0.27842020052E+03  0.35971299572E+03  0.16500000000E+03 0.  0.
<mgrwt>
<rscale>  0 0.48982712E+03</rscale>
<asrwt>0</asrwt>
<pdfrwt beam="1">  1        2 0.66656549E-01 0.48982712E+03</pdfrwt>
<pdfrwt beam="2">  1       -2 0.18364824E-01 0.48982712E+03</pdfrwt>
<totfact> 0.17914552E+03</totfact>
</mgrwt>
</event>
<event>
 4    1  0.3541639E-005  0.3859293E+03  0.7818608E-02  0.1048764E+00
         -2   -1    0    0    0  501 -0.00000000000E+00  0.00000000000E+00  0.15479210984E+03  0.15479210986E+03  0.25500000000E-02 0. -1.
          2   -1    0    0  501    0  0.00000000000E+00 -0.00000000000E+00 -0.24055077654E+03  0.24055077655E+03  0.25500000000E-02 0.  1.
    5000001    1    1    2    0    0 -0.23756349032E+02 -0.76384334940E+02 -0.10444035685E+03  0.21102539866E+03  0.16500000000E+03 0.  0.
   -5000001    1    1    2    0    0  0.23756349032E+02  0.76384334940E+02  0.18681690153E+02  0.18431748775E+03  0.16500000000E+03 0.  0.
<mgrwt>
<rscale>  0 0.38592933E+03</rscale>
<asrwt>0</asrwt>
<pdfrwt beam="1">  1        2 0.34364397E-01 0.38592933E+03</pdfrwt>
<pdfrwt beam="2">  1       -2 0.22113158E-01 0.38592933E+03</pdfrwt>
<totfact> 0.26818924E+03</totfact>
</mgrwt>
</event>
<event>
 4    1  0.3541639E-005  0.6457130E+03  0.7818608E-02  0.9814857E-01
          2   -1    0    0  501    0  0.00000000000E+00  0.00000000000E+00  0.12203244112E+04  0.12203244112E+04  0.25500000000E-02 0.  1.
         -2   -1    0    0    0  501 -0.00000000000E+00 -0.00000000000E+00 -0.85416882778E+02  0.85416882816E+02  0.25500000000E-02 0. -1.
    5000001    1    1    2    0    0 -0.25446068524E+03  0.11064375996E+03  0.57627405458E+03  0.66053695425E+03  0.16500000000E+03 0.  0.
   -5000001    1    1    2    0    0  0.25446068524E+03 -0.11064375996E+03  0.55863347380E+03  0.64520433973E+03  0.16500000000E+03 0.  0.
<mgrwt>
<rscale>  0 0.64571296E+03</rscale>
<asrwt>0</asrwt>
<pdfrwt beam="1">  1        2 0.17433204E+00 0.64571296E+03</pdfrwt>
<pdfrwt beam="2">  1       -2 0.12202413E-01 0.64571296E+03</pdfrwt>
<totfact> 0.10383325E+03</totfact>
</mgrwt>
</event>
<event>
 4    1  0.3541639E-005  0.1345938E+04  0.7818608E-02  0.8993909E-01
          2   -1    0    0  501    0  0.00000000000E+00  0.00000000000E+00  0.76515907002E+03  0.76515907002E+03  0.25500000000E-02 0.  1.
         -2   -1    0    0    0  501 -0.00000000000E+00 -0.00000000000E+00 -0.59188627263E+03  0.59188627264E+03  0.25500000000E-02 0. -1.
    5000001    1    1    2    0    0 -0.52495479911E+03  0.29851904851E+03 -0.16232440368E+03  0.64673439329E+03  0.16500000000E+03 0.  0.
   -5000001    1    1    2    0    0  0.52495479911E+03 -0.29851904851E+03  0.33559720106E+03  0.71031094937E+03  0.16500000000E+03 0.  0.
<mgrwt>
<rscale>  0 0.13459378E+04</rscale>
<asrwt>0</asrwt>
<pdfrwt beam="1">  1        2 0.10930844E+00 0.13459378E+04</pdfrwt>
<pdfrwt beam="2">  1       -2 0.84555181E-01 0.13459378E+04</pdfrwt>
<totfact> 0.48035018E+01</totfact>
</mgrwt>
</event>
<event>
 4    1  0.3541639E-005  0.5323342E+03  0.7818608E-02  0.1005668E+00
         -2   -1    0    0    0  501 -0.00000000000E+00  0.00000000000E+00  0.21084468795E+03  0.21084468796E+03  0.25500000000E-02 0. -1.
          2   -1    0    0  501    0  0.00000000000E+00 -0.00000000000E+00 -0.33600531842E+03  0.33600531843E+03  0.25500000000E-02 0.  1.
    5000001    1    1    2    0    0 -0.15560384087E+03 -0.10021789661E+03  0.36824821206E+02  0.25067359165E+03  0.16500000000E+03 0.  0.
   -5000001    1    1    2    0    0  0.15560384087E+03  0.10021789661E+03 -0.16198545168E+03  0.29617641474E+03  0.16500000000E+03 0.  0.
<mgrwt>
<rscale>  0 0.53233424E+03</rscale>
<asrwt>0</asrwt>
<pdfrwt beam="1">  1        2 0.48000760E-01 0.53233424E+03</pdfrwt>
<pdfrwt beam="2">  1       -2 0.30120670E-01 0.53233424E+03</pdfrwt>
<totfact> 0.10703876E+03</totfact>
</mgrwt>
</event>
<event>
 4    1  0.3541639E-005  0.4959057E+03  0.7818608E-02  0.1014853E+00
         -2   -1    0    0    0  501 -0.00000000000E+00  0.00000000000E+00  0.54544654830E+03  0.54544654830E+03  0.25500000000E-02 0. -1.
          2   -1    0    0  501    0  0.00000000000E+00 -0.00000000000E+00 -0.11271611236E+03  0.11271611238E+03  0.25500000000E-02 0.  1.
    5000001    1    1    2    0    0 -0.12563533475E+03  0.10870152522E+03  0.32463811926E+03  0.40026886888E+03  0.16500000000E+03 0.  0.
   -5000001    1    1    2    0    0  0.12563533475E+03 -0.10870152522E+03  0.10809231669E+03  0.25789379180E+03  0.16500000000E+03 0.  0.
<mgrwt>
<rscale>  0 0.49590569E+03</rscale>
<asrwt>0</asrwt>
<pdfrwt beam="1">  1        2 0.16102302E-01 0.49590569E+03</pdfrwt>
<pdfrwt beam="2">  1       -2 0.77920935E-01 0.49590569E+03</pdfrwt>
<totfact> 0.54396455E+02</totfact>
</mgrwt>
</event>
<event>
 4    1  0.3541639E-005  0.5963295E+03  0.7818608E-02  0.9913051E-01
         -2   -1    0    0    0  501 -0.00000000000E+00  0.00000000000E+00  0.73669759075E+03  0.73669759076E+03  0.25500000000E-02 0. -1.
          2   -1    0    0  501    0  0.00000000000E+00 -0.00000000000E+00 -0.12067666866E+03  0.12067666869E+03  0.25500000000E-02 0.  1.
    5000001    1    1    2    0    0  0.10305039214E+03 -0.21719807582E+03  0.21842077900E+03  0.36431720267E+03  0.16500000000E+03 0.  0.
   -5000001    1    1    2    0    0 -0.10305039214E+03  0.21719807582E+03  0.39760014309E+03  0.49305705678E+03  0.16500000000E+03 0.  0.
<mgrwt>
<rscale>  0 0.59632948E+03</rscale>
<asrwt>0</asrwt>
<pdfrwt beam="1">  1        2 0.17239523E-01 0.59632948E+03</pdfrwt>
<pdfrwt beam="2">  1       -2 0.10524252E+00 0.59632948E+03</pdfrwt>
<totfact> 0.25077435E+02</totfact>
</mgrwt>
</event>
<event>
 4    1  0.3541639E-005  0.5634767E+03  0.7818608E-02  0.9984219E-01
         -2   -1    0    0    0  501 -0.00000000000E+00  0.00000000000E+00  0.19691921956E+03  0.19691921957E+03  0.25500000000E-02 0. -1.
          2   -1    0    0  501    0  0.00000000000E+00 -0.00000000000E+00 -0.40309161968E+03  0.40309161969E+03  0.25500000000E-02 0.  1.
    5000001    1    1    2    0    0 -0.19615946657E+03 -0.11507937528E+03 -0.81013274999E+02  0.29242084342E+03  0.16500000000E+03 0.  0.
   -5000001    1    1    2    0    0  0.19615946657E+03  0.11507937528E+03 -0.12515912513E+03  0.30758999584E+03  0.16500000000E+03 0.  0.
<mgrwt>
<rscale>  0 0.56347666E+03</rscale>
<asrwt>0</asrwt>
<pdfrwt beam="1">  1        2 0.57584517E-01 0.56347666E+03</pdfrwt>
<pdfrwt beam="2">  1       -2 0.28131317E-01 0.56347666E+03</pdfrwt>
<totfact> 0.99219584E+02</totfact>
</mgrwt>
</event>
<event>
 4    1  0.3541639E-005  0.8796823E+03  0.7818608E-02  0.9451342E-01
          2   -1    0    0  501    0  0.00000000000E+00  0.00000000000E+00  0.98676683376E+03  0.98676683376E+03  0.25500000000E-02 0.  1.
         -2   -1    0    0    0  501 -0.00000000000E+00 -0.00000000000E+00 -0.19605465045E+03  0.19605465047E+03  0.25500000000E-02 0. -1.
    5000001    1    1    2    0    0  0.21705754581E+03  0.32925883399E+03  0.53450680475E+03  0.68443252573E+03  0.16500000000E+03 0.  0.
   -5000001    1    1    2    0    0 -0.21705754581E+03 -0.32925883399E+03  0.25620537856E+03  0.49838895850E+03  0.16500000000E+03 0.  0.
<mgrwt>
<rscale>  0 0.87968228E+03</rscale>
<asrwt>0</asrwt>
<pdfrwt beam="1">  1        2 0.14096669E+00 0.87968228E+03</pdfrwt>
<pdfrwt beam="2">  1       -2 0.28007806E-01 0.87968228E+03</pdfrwt>
<totfact> 0.33344378E+02</totfact>
</mgrwt>
</event>
<event>
 4    1  0.3541639E-005  0.9356171E+03  0.7818608E-02  0.9382122E-01
         -2   -1    0    0    0  501 -0.00000000000E+00  0.00000000000E+00  0.28854913844E+03  0.28854913845E+03  0.25500000000E-02 0. -1.
          2   -1    0    0  501    0  0.00000000000E+00 -0.00000000000E+00 -0.75843185130E+03  0.75843185130E+03  0.25500000000E-02 0.  1.
    5000001    1    1    2    0    0 -0.25102100615E+03  0.24147605001E+03  0.61754148449E+02  0.39033421975E+03  0.16500000000E+03 0.  0.
   -5000001    1    1    2    0    0  0.25102100615E+03 -0.24147605001E+03 -0.53163686131E+03  0.65664677001E+03  0.16500000000E+03 0.  0.
<mgrwt>
<rscale>  0 0.93561714E+03</rscale>
<asrwt>0</asrwt>
<pdfrwt beam="1">  1        2 0.10834741E+00 0.93561714E+03</pdfrwt>
<pdfrwt beam="2">  1       -2 0.41221306E-01 0.93561714E+03</pdfrwt>
<totfact> 0.22691581E+02</totfact>
</mgrwt>
</event>
<event>
 4    1  0.3541639E-005  0.4376462E+03  0.7818608E-02  0.1031471E+00
         -2   -1    0    0    0  501 -0.00000000000E+00  0.00000000000E+00  0.75424387484E+02  0.75424387527E+02  0.25500000000E-02 0. -1.
          2   -1    0    0  501    0  0.00000000000E+00 -0.00000000000E+00 -0.63485496848E+03  0.63485496849E+03  0.25500000000E-02 0.  1.
    5000001    1    1    2    0    0 -0.77828534629E+02 -0.27033375589E+01 -0.47577691192E+03  0.50956183016E+03  0.16500000000E+03 0.  0.
   -5000001    1    1    2    0    0  0.77828534629E+02  0.27033375589E+01 -0.83653669079E+02  0.20071752586E+03  0.16500000000E+03 0.  0.
<mgrwt>
<rscale>  0 0.43764619E+03</rscale>
<asrwt>0</asrwt>
<pdfrwt beam="1">  1        2 0.90693564E-01 0.43764619E+03</pdfrwt>
<pdfrwt beam="2">  1       -2 0.10774913E-01 0.43764619E+03</pdfrwt>
<totfact> 0.30538467E+03</totfact>
</mgrwt>
</event>
<event>
 4    1  0.3541639E-005  0.5249762E+03  0.7818608E-02  0.1007458E+00
         -2   -1    0    0    0  501 -0.00000000000E+00  0.00000000000E+00  0.19421112242E+02  0.19421112410E+02  0.25500000000E-02 0. -1.
          2   -1    0    0  501    0  0.00000000000E+00 -0.00000000000E+00 -0.35476855103E+04  0.35476855103E+04  0.25500000000E-02 0.  1.
    5000001    1    1    2    0    0 -0.11859975529E+03  0.15043069244E+03 -0.22436207431E+04  0.22578207046E+04  0.16500000000E+03 0.  0.
   -5000001    1    1    2    0    0  0.11859975529E+03 -0.15043069244E+03 -0.12846436550E+04  0.13092859182E+04  0.16500000000E+03 0.  0.
<mgrwt>
<rscale>  0 0.52497619E+03</rscale>
<asrwt>0</asrwt>
<pdfrwt beam="1">  1        2 0.50681180E+00 0.52497619E+03</pdfrwt>
<pdfrwt beam="2">  1       -2 0.27744469E-02 0.52497619E+03</pdfrwt>
<totfact> 0.62768259E+02</totfact>
</mgrwt>
</event>
<event>
 4    1  0.3541639E-005  0.9749748E+03  0.7818608E-02  0.9336426E-01
          2   -1    0    0  501    0  0.00000000000E+00  0.00000000000E+00  0.15433453006E+04  0.15433453006E+04  0.25500000000E-02 0.  1.
         -2   -1    0    0    0  501 -0.00000000000E+00 -0.00000000000E+00 -0.15397976308E+03  0.15397976310E+03  0.25500000000E-02 0. -1.
    5000001    1    1    2    0    0  0.41241604977E+03  0.42384985305E+02  0.35293796527E+03  0.56892327463E+03  0.16500000000E+03 0.  0.
   -5000001    1    1    2    0    0 -0.41241604977E+03 -0.42384985305E+02  0.10364275723E+04  0.11284017891E+04  0.16500000000E+03 0.  0.
<mgrwt>
<rscale>  0 0.97497476E+03</rscale>
<asrwt>0</asrwt>
<pdfrwt beam="1">  1        2 0.22047789E+00 0.97497476E+03</pdfrwt>
<pdfrwt beam="2">  1       -2 0.21997110E-01 0.97497476E+03</pdfrwt>
<totfact> 0.24970298E+02</totfact>
</mgrwt>
</event>
<event>
 4    1  0.3541639E-005  0.6134494E+03  0.7818608E-02  0.9877889E-01
         -2   -1    0    0    0  501 -0.00000000000E+00  0.00000000000E+00  0.14523958210E+03  0.14523958212E+03  0.25500000000E-02 0. -1.
          2   -1    0    0  501    0  0.00000000000E+00 -0.00000000000E+00 -0.64775751689E+03  0.64775751689E+03  0.25500000000E-02 0.  1.
    5000001    1    1    2    0    0  0.19567708463E+03 -0.89751837272E+02 -0.43638903049E+03  0.51381446036E+03  0.16500000000E+03 0.  0.
   -5000001    1    1    2    0    0 -0.19567708463E+03  0.89751837272E+02 -0.66128904298E+02  0.27918263866E+03  0.16500000000E+03 0.  0.
<mgrwt>
<rscale>  0 0.61344937E+03</rscale>
<asrwt>0</asrwt>
<pdfrwt beam="1">  1        2 0.92536787E-01 0.61344937E+03</pdfrwt>
<pdfrwt beam="2">  1       -2 0.20748512E-01 0.61344937E+03</pdfrwt>
<totfact> 0.99221871E+02</totfact>
</mgrwt>
</event>
<event>
 4    1  0.3541639E-005  0.4079724E+03  0.7818608E-02  0.1041054E+00
         -2   -1    0    0    0  501 -0.00000000000E+00  0.00000000000E+00  0.43048083261E+02  0.43048083337E+02  0.25500000000E-02 0. -1.
          2   -1    0    0  501    0  0.00000000000E+00 -0.00000000000E+00 -0.96660221854E+03  0.96660221855E+03  0.25500000000E-02 0.  1.
    5000001    1    1    2    0    0 -0.70470051877E+02  0.97043496738E+02 -0.46519225079E+03  0.50794911031E+03  0.16500000000E+03 0.  0.
   -5000001    1    1    2    0    0  0.70470051877E+02 -0.97043496738E+02 -0.45836188449E+03  0.50170119157E+03  0.16500000000E+03 0.  0.
<mgrwt>
<rscale>  0 0.40797241E+03</rscale>
<asrwt>0</asrwt>
<pdfrwt beam="1">  1        2 0.13808602E+00 0.40797241E+03</pdfrwt>
<pdfrwt beam="2">  1       -2 0.61497268E-02 0.40797241E+03</pdfrwt>
<totfact> 0.43713154E+03</totfact>
</mgrwt>
</event>
<event>
 4    1  0.3541639E-005  0.4884129E+03  0.7818608E-02  0.1016848E+00
         -2   -1    0    0    0  501 -0.00000000000E+00  0.00000000000E+00  0.56164400546E+02  0.56164400604E+02  0.25500000000E-02 0. -1.
          2   -1    0    0  501    0  0.00000000000E+00 -0.00000000000E+00 -0.10618252484E+04  0.10618252484E+04  0.25500000000E-02 0.  1.
    5000001    1    1    2    0    0  0.13455267557E+03  0.66744208382E+02 -0.27562149649E+03  0.35461446838E+03  0.16500000000E+03 0.  0.
   -5000001    1    1    2    0    0 -0.13455267557E+03 -0.66744208382E+02 -0.73003935132E+03  0.76337518059E+03  0.16500000000E+03 0.  0.
<mgrwt>
<rscale>  0 0.48841285E+03</rscale>
<asrwt>0</asrwt>
<pdfrwt beam="1">  1        2 0.15168931E+00 0.48841285E+03</pdfrwt>
<pdfrwt beam="2">  1       -2 0.80234864E-02 0.48841285E+03</pdfrwt>
<totfact> 0.25279470E+03</totfact>
</mgrwt>
</event>
<event>
 4    1  0.3541639E-005  0.3687707E+03  0.7818608E-02  0.1055164E+00
          2   -1    0    0  501    0  0.00000000000E+00  0.00000000000E+00  0.60792476086E+03  0.60792476087E+03  0.25500000000E-02 0.  1.
         -2   -1    0    0    0  501 -0.00000000000E+00 -0.00000000000E+00 -0.55924611401E+02  0.55924611460E+02  0.25500000000E-02 0. -1.
    5000001    1    1    2    0    0 -0.15577646921E+02 -0.44208904318E+02  0.15422741679E+03  0.23066899747E+03  0.16500000000E+03 0.  0.
   -5000001    1    1    2    0    0  0.15577646921E+02  0.44208904318E+02  0.39777273267E+03  0.43318037486E+03  0.16500000000E+03 0.  0.
<mgrwt>
<rscale>  0 0.36877069E+03</rscale>
<asrwt>0</asrwt>
<pdfrwt beam="1">  1        2 0.86846390E-01 0.36877069E+03</pdfrwt>
<pdfrwt beam="2">  1       -2 0.79892306E-02 0.36877069E+03</pdfrwt>
<totfact> 0.51631432E+03</totfact>
</mgrwt>
</event>
<event>
 4    1  0.3541639E-005  0.8080320E+03  0.7818608E-02  0.9548463E-01
         -2   -1    0    0    0  501 -0.00000000000E+00  0.00000000000E+00  0.58313289011E+02  0.58313289067E+02  0.25500000000E-02 0. -1.
          2   -1    0    0  501    0  0.00000000000E+00 -0.00000000000E+00 -0.27991722865E+04  0.27991722865E+04  0.25500000000E-02 0.  1.
    5000001    1    1    2    0    0 -0.12567062458E+03 -0.33223252192E+03 -0.17210884859E+04  0.17650898365E+04  0.16500000000E+03 0.  0.
   -5000001    1    1    2    0    0  0.12567062458E+03  0.33223252192E+03 -0.10197705116E+04  0.10923957391E+04  0.16500000000E+03 0.  0.
<mgrwt>
<rscale>  0 0.80803204E+03</rscale>
<asrwt>0</asrwt>
<pdfrwt beam="1">  1        2 0.39988167E+00 0.80803204E+03</pdfrwt>
<pdfrwt beam="2">  1       -2 0.83304716E-02 0.80803204E+03</pdfrwt>
<totfact> 0.29094801E+02</totfact>
</mgrwt>
</event>
<event>
 4    1  0.3541639E-005  0.4723947E+03  0.7818608E-02  0.1021246E+00
          2   -1    0    0  501    0  0.00000000000E+00  0.00000000000E+00  0.13230220899E+04  0.13230220899E+04  0.25500000000E-02 0.  1.
         -2   -1    0    0    0  501 -0.00000000000E+00 -0.00000000000E+00 -0.42167996642E+02  0.42167996719E+02  0.25500000000E-02 0. -1.
    5000001    1    1    2    0    0  0.14293866678E+03 -0.16746874963E+02  0.89651298548E+03  0.92286101522E+03  0.16500000000E+03 0.  0.
   -5000001    1    1    2    0    0 -0.14293866678E+03  0.16746874963E+02  0.38434110782E+03  0.44232907144E+03  0.16500000000E+03 0.  0.
<mgrwt>
<rscale>  0 0.47239471E+03</rscale>
<asrwt>0</asrwt>
<pdfrwt beam="1">  1        2 0.18900316E+00 0.47239471E+03</pdfrwt>
<pdfrwt beam="2">  1       -2 0.60239993E-02 0.47239471E+03</pdfrwt>
<totfact> 0.28349431E+03</totfact>
</mgrwt>
</event>
<event>
 4    1  0.3541639E-005  0.6781779E+03  0.7818608E-02  0.9755296E-01
          2   -1    0    0  501    0  0.00000000000E+00  0.00000000000E+00  0.11137801850E+03  0.11137801853E+03  0.25500000000E-02 0.  1.
         -2   -1    0    0    0  501 -0.00000000000E+00 -0.00000000000E+00 -0.10323520959E+04  0.10323520959E+04  0.25500000000E-02 0. -1.
    5000001    1    1    2    0    0  0.47330040336E+02 -0.26718076333E+03 -0.66096229523E+03  0.73329519890E+03  0.16500000000E+03 0.  0.
   -5000001    1    1    2    0    0 -0.47330040336E+02  0.26718076333E+03 -0.26001178215E+03  0.41043491551E+03  0.16500000000E+03 0.  0.
<mgrwt>
<rscale>  0 0.67817794E+03</rscale>
<asrwt>0</asrwt>
<pdfrwt beam="1">  1        2 0.15911146E-01 0.67817794E+03</pdfrwt>
<pdfrwt beam="2">  1       -2 0.14747887E+00 0.67817794E+03</pdfrwt>
<totfact> 0.11860142E+02</totfact>
</mgrwt>
</event>
<event>
 4    1  0.3541639E-005  0.4572160E+03  0.7818608E-02  0.1025592E+00
          2   -1    0    0  501    0  0.00000000000E+00  0.00000000000E+00  0.13217709670E+04  0.13217709670E+04  0.25500000000E-02 0.  1.
         -2   -1    0    0    0  501 -0.00000000000E+00 -0.00000000000E+00 -0.39539082138E+02  0.39539082220E+02  0.25500000000E-02 0. -1.
    5000001    1    1    2    0    0 -0.10726288277E+03 -0.97352128965E+02  0.83068584260E+03  0.85921285612E+03  0.16500000000E+03 0.  0.
   -5000001    1    1    2    0    0  0.10726288277E+03  0.97352128965E+02  0.45154604225E+03  0.50209719309E+03  0.16500000000E+03 0.  0.
<mgrwt>
<rscale>  0 0.45721597E+03</rscale>
<asrwt>0</asrwt>
<pdfrwt beam="1">  1        2 0.18882439E+00 0.45721597E+03</pdfrwt>
<pdfrwt beam="2">  1       -2 0.56484414E-02 0.45721597E+03</pdfrwt>
<totfact> 0.31382260E+03</totfact>
</mgrwt>
</event>
<event>
 4    1  0.3541639E-005  0.5407259E+03  0.7818608E-02  0.1003664E+00
         -2   -1    0    0    0  501 -0.00000000000E+00  0.00000000000E+00  0.78327588011E+02  0.78327588052E+02  0.25500000000E-02 0. -1.
          2   -1    0    0  501    0  0.00000000000E+00 -0.00000000000E+00 -0.93321056026E+03  0.93321056026E+03  0.25500000000E-02 0.  1.
    5000001    1    1    2    0    0 -0.28172992666E+02  0.13779354963E+03 -0.12527586946E+03  0.25039932769E+03  0.16500000000E+03 0.  0.
   -5000001    1    1    2    0    0  0.28172992666E+02 -0.13779354963E+03 -0.72960710278E+03  0.76113882063E+03  0.16500000000E+03 0.  0.
<mgrwt>
<rscale>  0 0.54072593E+03</rscale>
<asrwt>0</asrwt>
<pdfrwt beam="1">  1        2 0.13331579E+00 0.54072593E+03</pdfrwt>
<pdfrwt beam="2">  1       -2 0.11189656E-01 0.54072593E+03</pdfrwt>
<totfact> 0.17716078E+03</totfact>
</mgrwt>
</event>
<event>
 4    1  0.3541639E-005  0.3871959E+03  0.7818608E-02  0.1048306E+00
         -2   -1    0    0    0  501 -0.00000000000E+00  0.00000000000E+00  0.14314334814E+02  0.14314335041E+02  0.25500000000E-02 0. -1.
          2   -1    0    0  501    0  0.00000000000E+00 -0.00000000000E+00 -0.26183658190E+04  0.26183658190E+04  0.25500000000E-02 0.  1.
    5000001    1    1    2    0    0  0.79172151453E+02 -0.52708937120E+02 -0.15384147498E+04  0.15501585093E+04  0.16500000000E+03 0.  0.
   -5000001    1    1    2    0    0 -0.79172151453E+02  0.52708937120E+02 -0.10656367344E+04  0.10825216447E+04  0.16500000000E+03 0.  0.
<mgrwt>
<rscale>  0 0.38719590E+03</rscale>
<asrwt>0</asrwt>
<pdfrwt beam="1">  1        2 0.37405195E+00 0.38719590E+03</pdfrwt>
<pdfrwt beam="2">  1       -2 0.20449067E-02 0.38719590E+03</pdfrwt>
<totfact> 0.32506903E+03</totfact>
</mgrwt>
</event>
<event>
 4    1  0.3541639E-005  0.5944442E+03  0.7818608E-02  0.9917000E-01
          2   -1    0    0  501    0  0.00000000000E+00  0.00000000000E+00  0.21173212774E+04  0.21173212774E+04  0.25500000000E-02 0. -1.
         -2   -1    0    0    0  501 -0.00000000000E+00 -0.00000000000E+00 -0.41722988844E+02  0.41722988921E+02  0.25500000000E-02 0.  1.
    5000001    1    1    2    0    0  0.17419702282E+03  0.15565982769E+03  0.74404405520E+03  0.79712053091E+03  0.16500000000E+03 0.  0.
   -5000001    1    1    2    0    0 -0.17419702282E+03 -0.15565982769E+03  0.13315542334E+04  0.13619237354E+04  0.16500000000E+03 0.  0.
<mgrwt>
<rscale>  0 0.59444418E+03</rscale>
<asrwt>0</asrwt>
<pdfrwt beam="1">  1        2 0.30247449E+00 0.59444418E+03</pdfrwt>
<pdfrwt beam="2">  1       -2 0.59604265E-02 0.59444418E+03</pdfrwt>
<totfact> 0.11292342E+03</totfact>
</mgrwt>
</event>
<event>
 4    1  0.3541639E-005  0.4913553E+03  0.7818608E-02  0.1016060E+00
          2   -1    0    0  501    0  0.00000000000E+00  0.00000000000E+00  0.93232969460E+02  0.93232969495E+02  0.25500000000E-02 0.  1.
         -2   -1    0    0    0  501 -0.00000000000E+00 -0.00000000000E+00 -0.64738378047E+03  0.64738378048E+03  0.25500000000E-02 0. -1.
    5000001    1    1    2    0    0  0.13111732301E+03  0.49356524325E+01 -0.46723589216E+03  0.51259193515E+03  0.16500000000E+03 0.  0.
   -5000001    1    1    2    0    0 -0.13111732301E+03 -0.49356524325E+01 -0.86914918858E+02  0.22802481483E+03  0.16500000000E+03 0.  0.
<mgrwt>
<rscale>  0 0.49135532E+03</rscale>
<asrwt>0</asrwt>
<pdfrwt beam="1">  1        2 0.13318996E-01 0.49135532E+03</pdfrwt>
<pdfrwt beam="2">  1       -2 0.92483394E-01 0.49135532E+03</pdfrwt>
<totfact> 0.46462655E+02</totfact>
</mgrwt>
</event>
<event>
 4    1  0.3541639E-005  0.5364069E+03  0.7818608E-02  0.1004690E+00
         -2   -1    0    0    0  501 -0.00000000000E+00  0.00000000000E+00  0.15167473340E+03  0.15167473342E+03  0.25500000000E-02 0. -1.
          2   -1    0    0  501    0  0.00000000000E+00 -0.00000000000E+00 -0.47425887857E+03  0.47425887857E+03  0.25500000000E-02 0.  1.
    5000001    1    1    2    0    0  0.17032451716E+03  0.12528529661E+03 -0.15999147046E+03  0.31229652145E+03  0.16500000000E+03 0.  0.
   -5000001    1    1    2    0    0 -0.17032451716E+03 -0.12528529661E+03 -0.16259267471E+03  0.31363709054E+03  0.16500000000E+03 0.  0.
<mgrwt>
<rscale>  0 0.53640689E+03</rscale>
<asrwt>0</asrwt>
<pdfrwt beam="1">  1        2 0.67751268E-01 0.53640689E+03</pdfrwt>
<pdfrwt beam="2">  1       -2 0.21667819E-01 0.53640689E+03</pdfrwt>
<totfact> 0.13203626E+03</totfact>
</mgrwt>
</event>
<event>
 4    1  0.3541639E-005  0.3814681E+03  0.7818608E-02  0.1050392E+00
          2   -1    0    0  501    0  0.00000000000E+00  0.00000000000E+00  0.12314698638E+04  0.12314698638E+04  0.25500000000E-02 0.  1.
         -2   -1    0    0    0  501 -0.00000000000E+00 -0.00000000000E+00 -0.29541508058E+02  0.29541508168E+02  0.25500000000E-02 0. -1.
    5000001    1    1    2    0    0 -0.53938289291E+02  0.72908583403E+02  0.70174547950E+03  0.72656501332E+03  0.16500000000E+03 0.  0.
   -5000001    1    1    2    0    0  0.53938289291E+02 -0.72908583403E+02  0.50018287624E+03  0.53444635865E+03  0.16500000000E+03 0.  0.
<mgrwt>
<rscale>  0 0.38146810E+03</rscale>
<asrwt>0</asrwt>
<pdfrwt beam="1">  1        2 0.17592426E+00 0.38146810E+03</pdfrwt>
<pdfrwt beam="2">  1       -2 0.42202157E-02 0.38146810E+03</pdfrwt>
<totfact> 0.54884565E+03</totfact>
</mgrwt>
</event>
<event>
 4    1  0.3541639E-005  0.4372810E+03  0.7818608E-02  0.1031584E+00
          2   -1    0    0  501    0  0.00000000000E+00  0.00000000000E+00  0.21821523821E+04  0.21821523821E+04  0.25500000000E-02 0.  1.
         -2   -1    0    0    0  501 -0.00000000000E+00 -0.00000000000E+00 -0.21906656676E+02  0.21906656824E+02  0.25500000000E-02 0. -1.
    5000001    1    1    2    0    0  0.99198762440E+02  0.41399649346E+02  0.60130503711E+03  0.63272985791E+03  0.16500000000E+03 0.  0.
   -5000001    1    1    2    0    0 -0.99198762440E+02 -0.41399649346E+02  0.15589406884E+04  0.15713291811E+04  0.16500000000E+03 0.  0.
<mgrwt>
<rscale>  0 0.43728098E+03</rscale>
<asrwt>0</asrwt>
<pdfrwt beam="1">  1        2 0.31173607E+00 0.43728098E+03</pdfrwt>
<pdfrwt beam="2">  1       -2 0.31295222E-02 0.43728098E+03</pdfrwt>
<totfact> 0.28418736E+03</totfact>
</mgrwt>
</event>
<event>
 4    1  0.3541639E-005  0.4111172E+03  0.7818608E-02  0.1039997E+00
         -2   -1    0    0    0  501 -0.00000000000E+00  0.00000000000E+00  0.21878382970E+02  0.21878383119E+02  0.25500000000E-02 0. -1.
          2   -1    0    0  501    0  0.00000000000E+00 -0.00000000000E+00 -0.19313285998E+04  0.19313285998E+04  0.25500000000E-02 0.  1.
    5000001    1    1    2    0    0  0.23670054568E+02 -0.96447418614E+02 -0.12962328725E+04  0.13104606197E+04  0.16500000000E+03 0.  0.
   -5000001    1    1    2    0    0 -0.23670054568E+02  0.96447418614E+02 -0.61321734427E+03  0.64274636316E+03  0.16500000000E+03 0.  0.
<mgrwt>
<rscale>  0 0.41111724E+03</rscale>
<asrwt>0</asrwt>
<pdfrwt beam="1">  1        2 0.27590398E+00 0.41111724E+03</pdfrwt>
<pdfrwt beam="2">  1       -2 0.31254845E-02 0.41111724E+03</pdfrwt>
<totfact> 0.37950904E+03</totfact>
</mgrwt>
</event>
<event>
 4    1  0.3541639E-005  0.7067358E+03  0.7818608E-02  0.9705782E-01
          2   -1    0    0  501    0  0.00000000000E+00  0.00000000000E+00  0.19228430592E+04  0.19228430592E+04  0.25500000000E-02 0.  1.
         -2   -1    0    0    0  501 -0.00000000000E+00 -0.00000000000E+00 -0.64939711678E+02  0.64939711728E+02  0.25500000000E-02 0. -1.
    5000001    1    1    2    0    0 -0.29205057099E+03  0.11063516041E+03  0.95847742900E+03  0.10214879621E+04  0.16500000000E+03 0.  0.
   -5000001    1    1    2    0    0  0.29205057099E+03 -0.11063516041E+03  0.89942591848E+03  0.96629480883E+03  0.16500000000E+03 0.  0.
<mgrwt>
<rscale>  0 0.70673580E+03</rscale>
<asrwt>0</asrwt>
<pdfrwt beam="1">  1        2 0.27469185E+00 0.70673580E+03</pdfrwt>
<pdfrwt beam="2">  1       -2 0.92771022E-02 0.70673580E+03</pdfrwt>
<totfact> 0.69577613E+02</totfact>
</mgrwt>
</event>
<event>
 4    1  0.3541639E-005  0.4209736E+03  0.7818608E-02  0.1036750E+00
          2   -1    0    0  501    0  0.00000000000E+00  0.00000000000E+00  0.11792923935E+04  0.11792923935E+04  0.25500000000E-02 0.  1.
         -2   -1    0    0    0  501 -0.00000000000E+00 -0.00000000000E+00 -0.37568880748E+02  0.37568880834E+02  0.25500000000E-02 0. -1.
    5000001    1    1    2    0    0 -0.83548414619E+02 -0.61961289726E+02  0.79956840345E+03  0.82301529196E+03  0.16500000000E+03 0.  0.
   -5000001    1    1    2    0    0  0.83548414619E+02  0.61961289726E+02  0.34215510930E+03  0.39384598237E+03  0.16500000000E+03 0.  0.
<mgrwt>
<rscale>  0 0.42097361E+03</rscale>
<asrwt>0</asrwt>
<pdfrwt beam="1">  1        2 0.16847031E+00 0.42097361E+03</pdfrwt>
<pdfrwt beam="2">  1       -2 0.53669841E-02 0.42097361E+03</pdfrwt>
<totfact> 0.40607821E+03</totfact>
</mgrwt>
</event>
<event>
 4    1  0.3541639E-005  0.7500099E+03  0.7818608E-02  0.9635335E-01
         -2   -1    0    0    0  501 -0.00000000000E+00  0.00000000000E+00  0.22106264424E+03  0.22106264425E+03  0.25500000000E-02 0. -1.
          2   -1    0    0  501    0  0.00000000000E+00 -0.00000000000E+00 -0.63614867503E+03  0.63614867503E+03  0.25500000000E-02 0.  1.
    5000001    1    1    2    0    0 -0.31597044303E+03  0.66121331893E+02 -0.31713570494E+03  0.48167354790E+03  0.16500000000E+03 0.  0.
   -5000001    1    1    2    0    0  0.31597044303E+03 -0.66121331893E+02 -0.97950325855E+02  0.37553777138E+03  0.16500000000E+03 0.  0.
<mgrwt>
<rscale>  0 0.75000989E+03</rscale>
<asrwt>0</asrwt>
<pdfrwt beam="1">  1        2 0.90878381E-01 0.75000989E+03</pdfrwt>
<pdfrwt beam="2">  1       -2 0.31580378E-01 0.75000989E+03</pdfrwt>
<totfact> 0.47300724E+02</totfact>
</mgrwt>
</event>
<event>
 4    1  0.3541639E-005  0.5448398E+03  0.7818608E-02  0.1002695E+00
         -2   -1    0    0    0  501 -0.00000000000E+00  0.00000000000E+00  0.50093656989E+03  0.50093656989E+03  0.25500000000E-02 0. -1.
          2   -1    0    0  501    0  0.00000000000E+00 -0.00000000000E+00 -0.14814771886E+03  0.14814771889E+03  0.25500000000E-02 0.  1.
    5000001    1    1    2    0    0 -0.18947885553E+03 -0.63901640696E+02  0.27608219238E+03  0.37872421803E+03  0.16500000000E+03 0.  0.
   -5000001    1    1    2    0    0  0.18947885553E+03  0.63901640696E+02  0.76706658644E+02  0.27036007075E+03  0.16500000000E+03 0.  0.
<mgrwt>
<rscale>  0 0.54483983E+03</rscale>
<asrwt>0</asrwt>
<pdfrwt beam="1">  1        2 0.21163960E-01 0.54483983E+03</pdfrwt>
<pdfrwt beam="2">  1       -2 0.71562368E-01 0.54483983E+03</pdfrwt>
<totfact> 0.47510356E+02</totfact>
</mgrwt>
</event>
<event>
 4    1  0.3541639E-005  0.4733303E+03  0.7818608E-02  0.1020984E+00
         -2   -1    0    0    0  501 -0.00000000000E+00  0.00000000000E+00  0.29833791192E+03  0.29833791193E+03  0.25500000000E-02 0. -1.
          2   -1    0    0  501    0  0.00000000000E+00 -0.00000000000E+00 -0.18774145449E+03  0.18774145450E+03  0.25500000000E-02 0.  1.
    5000001    1    1    2    0    0  0.65305881563E+01  0.16737860568E+03  0.27606244457E+02  0.23673899331E+03  0.16500000000E+03 0.  0.
   -5000001    1    1    2    0    0 -0.65305881563E+01 -0.16737860568E+03  0.82990212973E+02  0.24934037312E+03  0.16500000000E+03 0.  0.
<mgrwt>
<rscale>  0 0.47333030E+03</rscale>
<asrwt>0</asrwt>
<pdfrwt beam="1">  1        2 0.26820208E-01 0.47333030E+03</pdfrwt>
<pdfrwt beam="2">  1       -2 0.42619702E-01 0.47333030E+03</pdfrwt>
<totfact> 0.10557436E+03</totfact>
</mgrwt>
</event>
<event>
 4    1  0.3541639E-005  0.1240315E+04  0.7818608E-02  0.9078283E-01
          2   -1    0    0  501    0  0.00000000000E+00  0.00000000000E+00  0.51981010984E+03  0.51981010985E+03  0.25500000000E-02 0.  1.
         -2   -1    0    0    0  501 -0.00000000000E+00 -0.00000000000E+00 -0.73987655822E+03  0.73987655823E+03  0.25500000000E-02 0. -1.
    5000001    1    1    2    0    0  0.45878049519E+03  0.23173568491E+03 -0.42007032794E+03  0.68400661608E+03  0.16500000000E+03 0.  0.
   -5000001    1    1    2    0    0 -0.45878049519E+03 -0.23173568491E+03  0.20000387956E+03  0.57568005200E+03  0.16500000000E+03 0.  0.
<mgrwt>
<rscale>  0 0.12403150E+04</rscale>
<asrwt>0</asrwt>
<pdfrwt beam="1">  1        2 0.74258588E-01 0.12403150E+04</pdfrwt>
<pdfrwt beam="2">  1       -2 0.10569665E+00 0.12403150E+04</pdfrwt>
<totfact> 0.45769176E+01</totfact>
</mgrwt>
</event>
<event>
 4    1  0.3541639E-005  0.3896257E+03  0.7818608E-02  0.1047432E+00
          2   -1    0    0  501    0  0.00000000000E+00  0.00000000000E+00  0.16666771358E+04  0.16666771358E+04  0.25500000000E-02 0.  1.
         -2   -1    0    0    0  501 -0.00000000000E+00 -0.00000000000E+00 -0.22771086332E+02  0.22771086475E+02  0.25500000000E-02 0. -1.
    5000001    1    1    2    0    0 -0.17059071134E+02 -0.93403181579E+02  0.10013579222E+04  0.10192928208E+04  0.16500000000E+03 0.  0.
   -5000001    1    1    2    0    0  0.17059071134E+02  0.93403181579E+02  0.64254812731E+03  0.67015540149E+03  0.16500000000E+03 0.  0.
<mgrwt>
<rscale>  0 0.38962571E+03</rscale>
<asrwt>0</asrwt>
<pdfrwt beam="1">  1        2 0.23809679E+00 0.38962571E+03</pdfrwt>
<pdfrwt beam="2">  1       -2 0.32530116E-02 0.38962571E+03</pdfrwt>
<totfact> 0.48400798E+03</totfact>
</mgrwt>
</event>
<event>
 4    1  0.3541639E-005  0.8417099E+03  0.7818608E-02  0.9501532E-01
         -2   -1    0    0    0  501 -0.00000000000E+00  0.00000000000E+00  0.92527194082E+02  0.92527194118E+02  0.25500000000E-02 0. -1.
          2   -1    0    0  501    0  0.00000000000E+00 -0.00000000000E+00 -0.19142360556E+04  0.19142360556E+04  0.25500000000E-02 0.  1.
    5000001    1    1    2    0    0 -0.36156711982E+03 -0.13415340278E+03 -0.82944437831E+03  0.92947882941E+03  0.16500000000E+03 0.  0.
   -5000001    1    1    2    0    0  0.36156711982E+03  0.13415340278E+03 -0.99226448326E+03  0.10772844204E+04  0.16500000000E+03 0.  0.
<mgrwt>
<rscale>  0 0.84170991E+03</rscale>
<asrwt>0</asrwt>
<pdfrwt beam="1">  1        2 0.27346227E+00 0.84170991E+03</pdfrwt>
<pdfrwt beam="2">  1       -2 0.13218172E-01 0.84170991E+03</pdfrwt>
<totfact> 0.38958274E+02</totfact>
</mgrwt>
</event>
<event>
 4    1  0.3541639E-005  0.5425756E+03  0.7818608E-02  0.1003227E+00
         -2   -1    0    0    0  501 -0.00000000000E+00  0.00000000000E+00  0.59146853793E+02  0.59146853848E+02  0.25500000000E-02 0. -1.
          2   -1    0    0  501    0  0.00000000000E+00 -0.00000000000E+00 -0.12443108899E+04  0.12443108899E+04  0.25500000000E-02 0.  1.
    5000001    1    1    2    0    0  0.52160529400E+02 -0.79183105700E+02 -0.12810481366E+03  0.22940472606E+03  0.16500000000E+03 0.  0.
   -5000001    1    1    2    0    0 -0.52160529400E+02  0.79183105700E+02 -0.10570592224E+04  0.10740530177E+04  0.16500000000E+03 0.  0.
<mgrwt>
<rscale>  0 0.54257561E+03</rscale>
<asrwt>0</asrwt>
<pdfrwt beam="1">  1        2 0.17775868E+00 0.54257561E+03</pdfrwt>
<pdfrwt beam="2">  1       -2 0.84495513E-02 0.54257561E+03</pdfrwt>
<totfact> 0.18333347E+03</totfact>
</mgrwt>
</event>
<event>
 4    1  0.3541639E-005  0.4749726E+03  0.7818608E-02  0.1020526E+00
          2   -1    0    0  501    0  0.00000000000E+00  0.00000000000E+00  0.11064039517E+03  0.11064039520E+03  0.25500000000E-02 0.  1.
         -2   -1    0    0    0  501 -0.00000000000E+00 -0.00000000000E+00 -0.50975725104E+03  0.50975725104E+03  0.25500000000E-02 0. -1.
    5000001    1    1    2    0    0  0.15882879964E+03 -0.62456844911E+02 -0.19057533507E+03  0.30441978156E+03  0.16500000000E+03 0.  0.
   -5000001    1    1    2    0    0 -0.15882879964E+03  0.62456844911E+02 -0.20854152080E+03  0.31597786468E+03  0.16500000000E+03 0.  0.
<mgrwt>
<rscale>  0 0.47497260E+03</rscale>
<asrwt>0</asrwt>
<pdfrwt beam="1">  1        2 0.15805771E-01 0.47497260E+03</pdfrwt>
<pdfrwt beam="2">  1       -2 0.72822463E-01 0.47497260E+03</pdfrwt>
<totfact> 0.64554597E+02</totfact>
</mgrwt>
</event>
<event>
 4    1  0.3541639E-005  0.6701398E+03  0.7818608E-02  0.9769705E-01
          2   -1    0    0  501    0  0.00000000000E+00  0.00000000000E+00  0.97585554625E+03  0.97585554625E+03  0.25500000000E-02 0.  1.
         -2   -1    0    0    0  501 -0.00000000000E+00 -0.00000000000E+00 -0.11504965155E+03  0.11504965158E+03  0.25500000000E-02 0. -1.
    5000001    1    1    2    0    0  0.15468727148E+03 -0.16452440473E+03  0.73079107211E+03  0.78248132424E+03  0.16500000000E+03 0.  0.
   -5000001    1    1    2    0    0 -0.15468727148E+03  0.16452440473E+03  0.13001482259E+03  0.30842387359E+03  0.16500000000E+03 0.  0.
<mgrwt>
<rscale>  0 0.67013981E+03</rscale>
<asrwt>0</asrwt>
<pdfrwt beam="1">  1        2 0.13940794E+00 0.67013981E+03</pdfrwt>
<pdfrwt beam="2">  1       -2 0.16435664E-01 0.67013981E+03</pdfrwt>
<totfact> 0.87561983E+02</totfact>
</mgrwt>
</event>
<event>
 4    1  0.3541639E-005  0.1103523E+04  0.7818608E-02  0.9201764E-01
          2   -1    0    0  501    0  0.00000000000E+00  0.00000000000E+00  0.11344834345E+04  0.11344834345E+04  0.25500000000E-02 0.  1.
         -2   -1    0    0    0  501 -0.00000000000E+00 -0.00000000000E+00 -0.26835208704E+03  0.26835208705E+03  0.25500000000E-02 0. -1.
    5000001    1    1    2    0    0 -0.13434386277E+03 -0.48750557620E+03  0.24664014405E+03  0.58631588836E+03  0.16500000000E+03 0.  0.
   -5000001    1    1    2    0    0  0.13434386277E+03  0.48750557620E+03  0.61949120341E+03  0.81651963319E+03  0.16500000000E+03 0.  0.
<mgrwt>
<rscale>  0 0.11035234E+04</rscale>
<asrwt>0</asrwt>
<pdfrwt beam="1">  1        2 0.16206906E+00 0.11035234E+04</pdfrwt>
<pdfrwt beam="2">  1       -2 0.38336012E-01 0.11035234E+04</pdfrwt>
<totfact> 0.14853026E+02</totfact>
</mgrwt>
</event>
<event>
 4    1  0.3541639E-005  0.4728546E+03  0.7818608E-02  0.1021118E+00
         -2   -1    0    0    0  501 -0.00000000000E+00  0.00000000000E+00  0.18187881650E+02  0.18187881829E+02  0.25500000000E-02 0. -1.
          2   -1    0    0  501    0  0.00000000000E+00 -0.00000000000E+00 -0.30733584330E+04  0.30733584330E+04  0.25500000000E-02 0.  1.
    5000001    1    1    2    0    0 -0.75227804084E+02 -0.13188861521E+03 -0.10374910816E+04  0.10614455114E+04  0.16500000000E+03 0.  0.
   -5000001    1    1    2    0    0  0.75227804084E+02  0.13188861521E+03 -0.20176794697E+04  0.20301008034E+04  0.16500000000E+03 0.  0.
<mgrwt>
<rscale>  0 0.47285465E+03</rscale>
<asrwt>0</asrwt>
<pdfrwt beam="1">  1        2 0.43905087E+00 0.47285465E+03</pdfrwt>
<pdfrwt beam="2">  1       -2 0.25982708E-02 0.47285465E+03</pdfrwt>
<totfact> 0.12990181E+03</totfact>
</mgrwt>
</event>
<event>
 4    1  0.3541639E-005  0.3551274E+03  0.7818608E-02  0.1060530E+00
         -2   -1    0    0    0  501 -0.00000000000E+00  0.00000000000E+00  0.40962489948E+02  0.40962490028E+02  0.25500000000E-02 0. -1.
          2   -1    0    0  501    0  0.00000000000E+00 -0.00000000000E+00 -0.76970092698E+03  0.76970092699E+03  0.25500000000E-02 0.  1.
    5000001    1    1    2    0    0  0.55793022448E+02 -0.34217948876E+02 -0.35412555539E+03  0.39612326157E+03  0.16500000000E+03 0.  0.
   -5000001    1    1    2    0    0 -0.55793022448E+02  0.34217948876E+02 -0.37461288165E+03  0.41454015544E+03  0.16500000000E+03 0.  0.
<mgrwt>
<rscale>  0 0.35512739E+03</rscale>
<asrwt>0</asrwt>
<pdfrwt beam="1">  1        2 0.10995727E+00 0.35512739E+03</pdfrwt>
<pdfrwt beam="2">  1       -2 0.58517848E-02 0.35512739E+03</pdfrwt>
<totfact> 0.63223786E+03</totfact>
</mgrwt>
</event>
<event>
 4    1  0.3541639E-005  0.4724486E+03  0.7818608E-02  0.1021231E+00
         -2   -1    0    0    0  501 -0.00000000000E+00  0.00000000000E+00  0.45647719884E+02  0.45647719955E+02  0.25500000000E-02 0. -1.
          2   -1    0    0  501    0  0.00000000000E+00 -0.00000000000E+00 -0.12224468229E+04  0.12224468229E+04  0.25500000000E-02 0.  1.
    5000001    1    1    2    0    0 -0.86327865781E+02 -0.13699499667E+03 -0.45809586923E+03  0.51312469725E+03  0.16500000000E+03 0.  0.
   -5000001    1    1    2    0    0  0.86327865781E+02  0.13699499667E+03 -0.71870323378E+03  0.75496984560E+03  0.16500000000E+03 0.  0.
<mgrwt>
<rscale>  0 0.47244856E+03</rscale>
<asrwt>0</asrwt>
<pdfrwt beam="1">  1        2 0.17463524E+00 0.47244856E+03</pdfrwt>
<pdfrwt beam="2">  1       -2 0.65211036E-02 0.47244856E+03</pdfrwt>
<totfact> 0.28406226E+03</totfact>
</mgrwt>
</event>
<event>
 4    1  0.3541639E-005  0.5116745E+03  0.7818608E-02  0.1010776E+00
          2   -1    0    0  501    0  0.00000000000E+00  0.00000000000E+00  0.30653470010E+04  0.30653470010E+04  0.25500000000E-02 0.  1.
         -2   -1    0    0    0  501 -0.00000000000E+00 -0.00000000000E+00 -0.21352461898E+02  0.21352462050E+02  0.25500000000E-02 0. -1.
    5000001    1    1    2    0    0  0.16733367638E+03 -0.35260687369E+02  0.95021417400E+03  0.97947733603E+03  0.16500000000E+03 0.  0.
   -5000001    1    1    2    0    0 -0.16733367638E+03  0.35260687369E+02  0.20937803651E+04  0.21072221270E+04  0.16500000000E+03 0.  0.
<mgrwt>
<rscale>  0 0.51167453E+03</rscale>
<asrwt>0</asrwt>
<pdfrwt beam="1">  1        2 0.43790628E+00 0.51167453E+03</pdfrwt>
<pdfrwt beam="2">  1       -2 0.30503547E-02 0.51167453E+03</pdfrwt>
<totfact> 0.10260934E+03</totfact>
</mgrwt>
</event>
<event>
 4    1  0.3541639E-005  0.5864273E+03  0.7818608E-02  0.9933972E-01
         -2   -1    0    0    0  501 -0.00000000000E+00  0.00000000000E+00  0.11484838380E+03  0.11484838383E+03  0.25500000000E-02 0. -1.
          2   -1    0    0  501    0  0.00000000000E+00 -0.00000000000E+00 -0.74858897892E+03  0.74858897892E+03  0.25500000000E-02 0.  1.
    5000001    1    1    2    0    0 -0.97786028183E+02 -0.20170403820E+03 -0.45263684156E+03  0.53136779792E+03  0.16500000000E+03 0.  0.
   -5000001    1    1    2    0    0  0.97786028183E+02  0.20170403820E+03 -0.18110375356E+03  0.33206956483E+03  0.16500000000E+03 0.  0.
<mgrwt>
<rscale>  0 0.58642727E+03</rscale>
<asrwt>0</asrwt>
<pdfrwt beam="1">  1        2 0.10694128E+00 0.58642727E+03</pdfrwt>
<pdfrwt beam="2">  1       -2 0.16406912E-01 0.58642727E+03</pdfrwt>
<totfact> 0.12466832E+03</totfact>
</mgrwt>
</event>
<event>
 4    1  0.3541639E-005  0.4270178E+03  0.7818608E-02  0.1034806E+00
         -2   -1    0    0    0  501 -0.00000000000E+00  0.00000000000E+00  0.26914095410E+02  0.26914095531E+02  0.25500000000E-02 0. -1.
          2   -1    0    0  501    0  0.00000000000E+00 -0.00000000000E+00 -0.16937611863E+04  0.16937611863E+04  0.25500000000E-02 0.  1.
    5000001    1    1    2    0    0 -0.10696416267E+03  0.81735575489E+02 -0.89572016792E+03  0.92068542707E+03  0.16500000000E+03 0.  0.
   -5000001    1    1    2    0    0  0.10696416267E+03 -0.81735575489E+02 -0.77112692296E+03  0.79998985475E+03  0.16500000000E+03 0.  0.
<mgrwt>
<rscale>  0 0.42701780E+03</rscale>
<asrwt>0</asrwt>
<pdfrwt beam="1">  1        2 0.24196582E+00 0.42701780E+03</pdfrwt>
<pdfrwt beam="2">  1       -2 0.38448719E-02 0.42701780E+03</pdfrwt>
<totfact> 0.36415031E+03</totfact>
</mgrwt>
</event>
<event>
 4    1  0.3541639E-005  0.4837205E+03  0.7818608E-02  0.1018118E+00
         -2   -1    0    0    0  501 -0.00000000000E+00  0.00000000000E+00  0.80056773680E+02  0.80056773721E+02  0.25500000000E-02 0. -1.
          2   -1    0    0  501    0  0.00000000000E+00 -0.00000000000E+00 -0.73068610697E+03  0.73068610697E+03  0.25500000000E-02 0.  1.
    5000001    1    1    2    0    0  0.82873108718E+02  0.11329203567E+03 -0.50558493533E+03  0.55004014792E+03  0.16500000000E+03 0.  0.
   -5000001    1    1    2    0    0 -0.82873108718E+02 -0.11329203567E+03 -0.14504439796E+03  0.26070273277E+03  0.16500000000E+03 0.  0.
<mgrwt>
<rscale>  0 0.48372047E+03</rscale>
<asrwt>0</asrwt>
<pdfrwt beam="1">  1        2 0.10438373E+00 0.48372047E+03</pdfrwt>
<pdfrwt beam="2">  1       -2 0.11436682E-01 0.48372047E+03</pdfrwt>
<totfact> 0.23425084E+03</totfact>
</mgrwt>
</event>
<event>
 4    1  0.3541639E-005  0.1288281E+04  0.7818608E-02  0.9038910E-01
         -2   -1    0    0    0  501 -0.00000000000E+00  0.00000000000E+00  0.39128111451E+03  0.39128111452E+03  0.25500000000E-02 0. -1.
          2   -1    0    0  501    0  0.00000000000E+00 -0.00000000000E+00 -0.10604063084E+04  0.10604063084E+04  0.25500000000E-02 0.  1.
    5000001    1    1    2    0    0  0.50302475432E+03  0.36575865577E+03 -0.36796471900E+03  0.74123972651E+03  0.16500000000E+03 0.  0.
   -5000001    1    1    2    0    0 -0.50302475432E+03 -0.36575865577E+03 -0.30116047493E+03  0.71044769645E+03  0.16500000000E+03 0.  0.
<mgrwt>
<rscale>  0 0.12882810E+04</rscale>
<asrwt>0</asrwt>
<pdfrwt beam="1">  1        2 0.15148661E+00 0.12882810E+04</pdfrwt>
<pdfrwt beam="2">  1       -2 0.55897303E-01 0.12882810E+04</pdfrwt>
<totfact> 0.76122442E+01</totfact>
</mgrwt>
</event>
<event>
 4    1  0.3541639E-005  0.5306077E+03  0.7818608E-02  0.1006085E+00
         -2   -1    0    0    0  501 -0.00000000000E+00  0.00000000000E+00  0.31622911090E+03  0.31622911091E+03  0.25500000000E-02 0. -1.
          2   -1    0    0  501    0  0.00000000000E+00 -0.00000000000E+00 -0.22257952876E+03  0.22257952878E+03  0.25500000000E-02 0.  1.
    5000001    1    1    2    0    0  0.17985468288E+03  0.99777728934E+02  0.17083473319E+02  0.26423502267E+03  0.16500000000E+03 0.  0.
   -5000001    1    1    2    0    0 -0.17985468288E+03 -0.99777728934E+02  0.76566108821E+02  0.27457361702E+03  0.16500000000E+03 0.  0.
<mgrwt>
<rscale>  0 0.53060768E+03</rscale>
<asrwt>0</asrwt>
<pdfrwt beam="1">  1        2 0.31797076E-01 0.53060768E+03</pdfrwt>
<pdfrwt beam="2">  1       -2 0.45175587E-01 0.53060768E+03</pdfrwt>
<totfact> 0.77785903E+02</totfact>
</mgrwt>
</event>
<event>
 4    1  0.3541639E-005  0.3746594E+03  0.7818608E-02  0.1052925E+00
          2   -1    0    0  501    0  0.00000000000E+00  0.00000000000E+00  0.21507104727E+04  0.21507104727E+04  0.25500000000E-02 0.  1.
         -2   -1    0    0    0  501 -0.00000000000E+00 -0.00000000000E+00 -0.16316664381E+02  0.16316664580E+02  0.25500000000E-02 0. -1.
    5000001    1    1    2    0    0 -0.79963467371E+02  0.18953712749E+02  0.87414479970E+03  0.89336864182E+03  0.16500000000E+03 0.  0.
   -5000001    1    1    2    0    0  0.79963467371E+02 -0.18953712749E+02  0.12602490087E+04  0.12736584955E+04  0.16500000000E+03 0.  0.
<mgrwt>
<rscale>  0 0.37465942E+03</rscale>
<asrwt>0</asrwt>
<pdfrwt beam="1">  1        2 0.30724447E+00 0.37465942E+03</pdfrwt>
<pdfrwt beam="2">  1       -2 0.23309512E-02 0.37465942E+03</pdfrwt>
<totfact> 0.45915309E+03</totfact>
</mgrwt>
</event>
<event>
 4    1  0.3541639E-005  0.3641070E+03  0.7818608E-02  0.1056969E+00
          2   -1    0    0  501    0  0.00000000000E+00  0.00000000000E+00  0.70009576822E+03  0.70009576822E+03  0.25500000000E-02 0.  1.
         -2   -1    0    0    0  501 -0.00000000000E+00 -0.00000000000E+00 -0.47341351736E+02  0.47341351805E+02  0.25500000000E-02 0. -1.
    5000001    1    1    2    0    0  0.14649344626E+02  0.64636856977E+02  0.24618793866E+03  0.30368738485E+03  0.16500000000E+03 0.  0.
   -5000001    1    1    2    0    0 -0.14649344626E+02 -0.64636856977E+02  0.40656647782E+03  0.44374973517E+03  0.16500000000E+03 0.  0.
<mgrwt>
<rscale>  0 0.36410702E+03</rscale>
<asrwt>0</asrwt>
<pdfrwt beam="1">  1        2 0.10001367E+00 0.36410702E+03</pdfrwt>
<pdfrwt beam="2">  1       -2 0.67630507E-02 0.36410702E+03</pdfrwt>
<totfact> 0.56730869E+03</totfact>
</mgrwt>
</event>
<event>
 4    1  0.3541639E-005  0.5348000E+03  0.7818608E-02  0.1005075E+00
         -2   -1    0    0    0  501 -0.00000000000E+00  0.00000000000E+00  0.35010320995E+02  0.35010321088E+02  0.25500000000E-02 0. -1.
          2   -1    0    0  501    0  0.00000000000E+00 -0.00000000000E+00 -0.20423336935E+04  0.20423336935E+04  0.25500000000E-02 0.  1.
    5000001    1    1    2    0    0 -0.32095270774E+02  0.17458648749E+03 -0.14425611346E+04  0.14627775549E+04  0.16500000000E+03 0.  0.
   -5000001    1    1    2    0    0  0.32095270774E+02 -0.17458648749E+03 -0.56476223784E+03  0.61456645964E+03  0.16500000000E+03 0.  0.
<mgrwt>
<rscale>  0 0.53479999E+03</rscale>
<asrwt>0</asrwt>
<pdfrwt beam="1">  1        2 0.29176188E+00 0.53479999E+03</pdfrwt>
<pdfrwt beam="2">  1       -2 0.50014757E-02 0.53479999E+03</pdfrwt>
<totfact> 0.16229790E+03</totfact>
</mgrwt>
</event>
<event>
 4    1  0.3541639E-005  0.4280109E+03  0.7818608E-02  0.1034490E+00
          2   -1    0    0  501    0  0.00000000000E+00  0.00000000000E+00  0.18070388604E+03  0.18070388606E+03  0.25500000000E-02 0.  1.
         -2   -1    0    0    0  501 -0.00000000000E+00 -0.00000000000E+00 -0.25344406156E+03  0.25344406158E+03  0.25500000000E-02 0. -1.
    5000001    1    1    2    0    0 -0.10906600063E+03 -0.42031184396E+02 -0.10745571429E+03  0.22898415554E+03  0.16500000000E+03 0.  0.
   -5000001    1    1    2    0    0  0.10906600063E+03  0.42031184396E+02  0.34715538773E+02  0.20516379210E+03  0.16500000000E+03 0.  0.
<mgrwt>
<rscale>  0 0.42801087E+03</rscale>
<asrwt>0</asrwt>
<pdfrwt beam="1">  1        2 0.25814841E-01 0.42801087E+03</pdfrwt>
<pdfrwt beam="2">  1       -2 0.36206295E-01 0.42801087E+03</pdfrwt>
<totfact> 0.15075855E+03</totfact>
</mgrwt>
</event>
<event>
 4    1  0.3541639E-005  0.4636699E+03  0.7818608E-02  0.1023722E+00
          2   -1    0    0  501    0  0.00000000000E+00  0.00000000000E+00  0.17158582316E+04  0.17158582316E+04  0.25500000000E-02 0.  1.
         -2   -1    0    0    0  501 -0.00000000000E+00 -0.00000000000E+00 -0.31323938846E+02  0.31323938949E+02  0.25500000000E-02 0. -1.
    5000001    1    1    2    0    0  0.85656449925E+02 -0.91766381881E+02  0.12332188005E+04  0.12505245724E+04  0.16500000000E+03 0.  0.
   -5000001    1    1    2    0    0 -0.85656449925E+02  0.91766381881E+02  0.45131549226E+03  0.49665759816E+03  0.16500000000E+03 0.  0.
<mgrwt>
<rscale>  0 0.46366988E+03</rscale>
<asrwt>0</asrwt>
<pdfrwt beam="1">  1        2 0.24512266E+00 0.46366988E+03</pdfrwt>
<pdfrwt beam="2">  1       -2 0.44748474E-02 0.46366988E+03</pdfrwt>
<totfact> 0.28136529E+03</totfact>
</mgrwt>
</event>
<event>
 4    1  0.3541639E-005  0.4522988E+03  0.7818608E-02  0.1027039E+00
          2   -1    0    0  501    0  0.00000000000E+00  0.00000000000E+00  0.31965177436E+03  0.31965177437E+03  0.25500000000E-02 0.  1.
         -2   -1    0    0    0  501 -0.00000000000E+00 -0.00000000000E+00 -0.15999768620E+03  0.15999768622E+03  0.25500000000E-02 0. -1.
    5000001    1    1    2    0    0 -0.12420172174E+03 -0.79813636847E+02  0.12868078746E+03  0.25608598042E+03  0.16500000000E+03 0.  0.
   -5000001    1    1    2    0    0  0.12420172174E+03  0.79813636847E+02  0.30973300701E+02  0.22356348017E+03  0.16500000000E+03 0.  0.
<mgrwt>
<rscale>  0 0.45229877E+03</rscale>
<asrwt>0</asrwt>
<pdfrwt beam="1">  1        2 0.45664539E-01 0.45229877E+03</pdfrwt>
<pdfrwt beam="2">  1       -2 0.22856812E-01 0.45229877E+03</pdfrwt>
<totfact> 0.18576087E+03</totfact>
</mgrwt>
</event>
<event>
 4    1  0.3541639E-005  0.3609900E+03  0.7818608E-02  0.1058193E+00
         -2   -1    0    0    0  501 -0.00000000000E+00  0.00000000000E+00  0.30603256865E+02  0.30603256971E+02  0.25500000000E-02 0. -1.
          2   -1    0    0  501    0  0.00000000000E+00 -0.00000000000E+00 -0.10645414865E+04  0.10645414865E+04  0.25500000000E-02 0.  1.
    5000001    1    1    2    0    0 -0.50038235905E+02 -0.10780678883E+02 -0.67557784598E+03  0.69731662397E+03  0.16500000000E+03 0.  0.
   -5000001    1    1    2    0    0  0.50038235905E+02  0.10780678883E+02 -0.35836038362E+03  0.39782811947E+03  0.16500000000E+03 0.  0.
<mgrwt>
<rscale>  0 0.36098995E+03</rscale>
<asrwt>0</asrwt>
<pdfrwt beam="1">  1        2 0.15207733E+00 0.36098995E+03</pdfrwt>
<pdfrwt beam="2">  1       -2 0.43718945E-02 0.36098995E+03</pdfrwt>
<totfact> 0.64466844E+03</totfact>
</mgrwt>
</event>
<event>
 4    1  0.3541639E-005  0.8996867E+03  0.7818608E-02  0.9425973E-01
         -2   -1    0    0    0  501 -0.00000000000E+00  0.00000000000E+00  0.56817452200E+02  0.56817452257E+02  0.25500000000E-02 0. -1.
          2   -1    0    0  501    0  0.00000000000E+00 -0.00000000000E+00 -0.35615644369E+04  0.35615644369E+04  0.25500000000E-02 0.  1.
    5000001    1    1    2    0    0  0.29825438464E+03  0.27431008220E+03 -0.21728863259E+04  0.22164976167E+04  0.16500000000E+03 0.  0.
   -5000001    1    1    2    0    0 -0.29825438464E+03 -0.27431008220E+03 -0.13318606587E+04  0.14018842725E+04  0.16500000000E+03 0.  0.
<mgrwt>
<rscale>  0 0.89968665E+03</rscale>
<asrwt>0</asrwt>
<pdfrwt beam="1">  1        2 0.50879478E+00 0.89968665E+03</pdfrwt>
<pdfrwt beam="2">  1       -2 0.81167812E-02 0.89968665E+03</pdfrwt>
<totfact> 0.11105258E+02</totfact>
</mgrwt>
</event>
<event>
 4    1  0.3541639E-005  0.4587152E+03  0.7818608E-02  0.1025155E+00
         -2   -1    0    0    0  501 -0.00000000000E+00  0.00000000000E+00  0.12799668287E+03  0.12799668290E+03  0.25500000000E-02 0. -1.
          2   -1    0    0  501    0  0.00000000000E+00 -0.00000000000E+00 -0.41098646246E+03  0.41098646247E+03  0.25500000000E-02 0.  1.
    5000001    1    1    2    0    0  0.13622520501E+03 -0.67166757418E+02 -0.19798248732E+03  0.29915003772E+03  0.16500000000E+03 0.  0.
   -5000001    1    1    2    0    0 -0.13622520501E+03  0.67166757418E+02 -0.85007292269E+02  0.23983310764E+03  0.16500000000E+03 0.  0.
<mgrwt>
<rscale>  0 0.45871518E+03</rscale>
<asrwt>0</asrwt>
<pdfrwt beam="1">  1        2 0.58712351E-01 0.45871518E+03</pdfrwt>
<pdfrwt beam="2">  1       -2 0.18285241E-01 0.45871518E+03</pdfrwt>
<totfact> 0.20771099E+03</totfact>
</mgrwt>
</event>
<event>
 4    1  0.3541639E-005  0.4998849E+03  0.7818608E-02  0.1013809E+00
          2   -1    0    0  501    0  0.00000000000E+00  0.00000000000E+00  0.77780850490E+03  0.77780850490E+03  0.25500000000E-02 0.  1.
         -2   -1    0    0    0  501 -0.00000000000E+00 -0.00000000000E+00 -0.80316985254E+02  0.80316985294E+02  0.25500000000E-02 0. -1.
    5000001    1    1    2    0    0  0.15497171072E+03  0.79310464782E+02  0.46939866657E+03  0.52713042895E+03  0.16500000000E+03 0.  0.
   -5000001    1    1    2    0    0 -0.15497171072E+03 -0.79310464782E+02  0.22809285307E+03  0.33099506124E+03  0.16500000000E+03 0.  0.
<mgrwt>
<rscale>  0 0.49988492E+03</rscale>
<asrwt>0</asrwt>
<pdfrwt beam="1">  1        2 0.11111551E+00 0.49988492E+03</pdfrwt>
<pdfrwt beam="2">  1       -2 0.11473854E-01 0.49988492E+03</pdfrwt>
<totfact> 0.21562068E+03</totfact>
</mgrwt>
</event>
<event>
 4    1  0.3541639E-005  0.4510404E+03  0.7818608E-02  0.1027412E+00
         -2   -1    0    0    0  501 -0.00000000000E+00  0.00000000000E+00  0.36542952993E+03  0.36542952994E+03  0.25500000000E-02 0. -1.
          2   -1    0    0  501    0  0.00000000000E+00 -0.00000000000E+00 -0.13917690980E+03  0.13917690982E+03  0.25500000000E-02 0.  1.
    5000001    1    1    2    0    0 -0.37426358756E+02  0.98981882199E+02  0.23788803100E+03  0.30824318423E+03  0.16500000000E+03 0.  0.
   -5000001    1    1    2    0    0  0.37426358756E+02 -0.98981882199E+02 -0.11635410870E+02  0.19636325552E+03  0.16500000000E+03 0.  0.
<mgrwt>
<rscale>  0 0.45104037E+03</rscale>
<asrwt>0</asrwt>
<pdfrwt beam="1">  1        2 0.19882416E-01 0.45104037E+03</pdfrwt>
<pdfrwt beam="2">  1       -2 0.52204219E-01 0.45104037E+03</pdfrwt>
<totfact> 0.99245237E+02</totfact>
</mgrwt>
</event>
<event>
 4    1  0.3541639E-005  0.3815628E+03  0.7818608E-02  0.1050358E+00
          2   -1    0    0  501    0  0.00000000000E+00  0.00000000000E+00  0.14825207400E+04  0.14825207400E+04  0.25500000000E-02 0.  1.
         -2   -1    0    0    0  501 -0.00000000000E+00 -0.00000000000E+00 -0.24551114545E+02  0.24551114677E+02  0.25500000000E-02 0. -1.
    5000001    1    1    2    0    0  0.38696018266E+02  0.85437533643E+02  0.80553049723E+03  0.82758766059E+03  0.16500000000E+03 0.  0.
   -5000001    1    1    2    0    0 -0.38696018266E+02 -0.85437533643E+02  0.65243912820E+03  0.67948419407E+03  0.16500000000E+03 0.  0.
<mgrwt>
<rscale>  0 0.38156277E+03</rscale>
<asrwt>0</asrwt>
<pdfrwt beam="1">  1        2 0.21178868E+00 0.38156277E+03</pdfrwt>
<pdfrwt beam="2">  1       -2 0.35073021E-02 0.38156277E+03</pdfrwt>
<totfact> 0.53562364E+03</totfact>
</mgrwt>
</event>
<event>
 4    1  0.3541639E-005  0.4309636E+03  0.7818608E-02  0.1033556E+00
         -2   -1    0    0    0  501 -0.00000000000E+00  0.00000000000E+00  0.51325855595E+02  0.51325855658E+02  0.25500000000E-02 0. -1.
          2   -1    0    0  501    0  0.00000000000E+00 -0.00000000000E+00 -0.90465917101E+03  0.90465917102E+03  0.25500000000E-02 0.  1.
    5000001    1    1    2    0    0 -0.24162359684E+02  0.85267869509E+02 -0.66302197424E+03  0.68896848079E+03  0.16500000000E+03 0.  0.
   -5000001    1    1    2    0    0  0.24162359684E+02 -0.85267869509E+02 -0.19031134118E+03  0.26701654589E+03  0.16500000000E+03 0.  0.
<mgrwt>
<rscale>  0 0.43096360E+03</rscale>
<asrwt>0</asrwt>
<pdfrwt beam="1">  1        2 0.12923702E+00 0.43096360E+03</pdfrwt>
<pdfrwt beam="2">  1       -2 0.73322656E-02 0.43096360E+03</pdfrwt>
<totfact> 0.36315321E+03</totfact>
</mgrwt>
</event>
<event>
 4    1  0.3541639E-005  0.5255522E+03  0.7818608E-02  0.1007317E+00
          2   -1    0    0  501    0  0.00000000000E+00  0.00000000000E+00  0.14278351185E+04  0.14278351185E+04  0.25500000000E-02 0.  1.
         -2   -1    0    0    0  501 -0.00000000000E+00 -0.00000000000E+00 -0.48360813109E+02  0.48360813177E+02  0.25500000000E-02 0. -1.
    5000001    1    1    2    0    0  0.84421708499E+02 -0.32981869632E+02  0.12046950622E+04  0.12193153905E+04  0.16500000000E+03 0.  0.
   -5000001    1    1    2    0    0 -0.84421708499E+02  0.32981869632E+02  0.17477924318E+03  0.25688054118E+03  0.16500000000E+03 0.  0.
<mgrwt>
<rscale>  0 0.52555216E+03</rscale>
<asrwt>0</asrwt>
<pdfrwt beam="1">  1        2 0.20397642E+00 0.52555216E+03</pdfrwt>
<pdfrwt beam="2">  1       -2 0.69086884E-02 0.52555216E+03</pdfrwt>
<totfact> 0.20110920E+03</totfact>
</mgrwt>
</event>
<event>
 4    1  0.3541639E-005  0.4442999E+03  0.7818608E-02  0.1029436E+00
          2   -1    0    0  501    0  0.00000000000E+00  0.00000000000E+00  0.64927013731E+03  0.64927013732E+03  0.25500000000E-02 0.  1.
         -2   -1    0    0    0  501 -0.00000000000E+00 -0.00000000000E+00 -0.76009332991E+02  0.76009333034E+02  0.25500000000E-02 0. -1.
    5000001    1    1    2    0    0  0.14547423851E+03 -0.18804212658E+02  0.24633805533E+03  0.33079266919E+03  0.16500000000E+03 0.  0.
   -5000001    1    1    2    0    0 -0.14547423851E+03  0.18804212658E+02  0.32692274899E+03  0.39448680116E+03  0.16500000000E+03 0.  0.
<mgrwt>
<rscale>  0 0.44429985E+03</rscale>
<asrwt>0</asrwt>
<pdfrwt beam="1">  1        2 0.92752878E-01 0.44429985E+03</pdfrwt>
<pdfrwt beam="2">  1       -2 0.10858476E-01 0.44429985E+03</pdfrwt>
<totfact> 0.29373581E+03</totfact>
</mgrwt>
</event>
<event>
 4    1  0.3541639E-005  0.4322916E+03  0.7818608E-02  0.1033138E+00
          2   -1    0    0  501    0  0.00000000000E+00  0.00000000000E+00  0.81585896391E+03  0.81585896392E+03  0.25500000000E-02 0.  1.
         -2   -1    0    0    0  501 -0.00000000000E+00 -0.00000000000E+00 -0.57263592952E+02  0.57263593009E+02  0.25500000000E-02 0. -1.
    5000001    1    1    2    0    0 -0.18820788790E+02  0.10952791398E+03  0.20859051826E+03  0.28824571175E+03  0.16500000000E+03 0.  0.
   -5000001    1    1    2    0    0  0.18820788790E+02 -0.10952791398E+03  0.55000485270E+03  0.58487684518E+03  0.16500000000E+03 0.  0.
<mgrwt>
<rscale>  0 0.43229164E+03</rscale>
<asrwt>0</asrwt>
<pdfrwt beam="1">  1        2 0.11655127E+00 0.43229164E+03</pdfrwt>
<pdfrwt beam="2">  1       -2 0.81805142E-02 0.43229164E+03</pdfrwt>
<totfact> 0.34935328E+03</totfact>
</mgrwt>
</event>
<event>
 4    1  0.3541639E-005  0.5139457E+03  0.7818608E-02  0.1010202E+00
          2   -1    0    0  501    0  0.00000000000E+00  0.00000000000E+00  0.35580606260E+03  0.35580606261E+03  0.25500000000E-02 0.  1.
         -2   -1    0    0    0  501 -0.00000000000E+00 -0.00000000000E+00 -0.18559279540E+03  0.18559279542E+03  0.25500000000E-02 0. -1.
    5000001    1    1    2    0    0 -0.17492847348E+03  0.90337212018E+02  0.77713250001E+02  0.26837498381E+03  0.16500000000E+03 0.  0.
   -5000001    1    1    2    0    0  0.17492847348E+03 -0.90337212018E+02  0.92500017203E+02  0.27302387422E+03  0.16500000000E+03 0.  0.
<mgrwt>
<rscale>  0 0.51394569E+03</rscale>
<asrwt>0</asrwt>
<pdfrwt beam="1">  1        2 0.50829438E-01 0.51394569E+03</pdfrwt>
<pdfrwt beam="2">  1       -2 0.26513256E-01 0.51394569E+03</pdfrwt>
<totfact> 0.12684299E+03</totfact>
</mgrwt>
</event>
<event>
 4    1  0.3541639E-005  0.5830254E+03  0.7818608E-02  0.9941263E-01
          2   -1    0    0  501    0  0.00000000000E+00  0.00000000000E+00  0.32323002821E+04  0.32323002821E+04  0.25500000000E-02 0.  1.
         -2   -1    0    0    0  501 -0.00000000000E+00 -0.00000000000E+00 -0.26290763794E+02  0.26290763917E+02  0.25500000000E-02 0. -1.
    5000001    1    1    2    0    0  0.22975004372E+03  0.46320507342E+02  0.19000157782E+04  0.19215138900E+04  0.16500000000E+03 0.  0.
   -5000001    1    1    2    0    0 -0.22975004372E+03 -0.46320507342E+02  0.13059937401E+04  0.13370771560E+04  0.16500000000E+03 0.  0.
<mgrwt>
<rscale>  0 0.58302536E+03</rscale>
<asrwt>0</asrwt>
<pdfrwt beam="1">  1        2 0.46175722E+00 0.58302536E+03</pdfrwt>
<pdfrwt beam="2">  1       -2 0.37558231E-02 0.58302536E+03</pdfrwt>
<totfact> 0.59936127E+02</totfact>
</mgrwt>
</event>
<event>
 4    1  0.3541639E-005  0.4466684E+03  0.7818608E-02  0.1028720E+00
          2   -1    0    0  501    0  0.00000000000E+00  0.00000000000E+00  0.58425382138E+03  0.58425382139E+03  0.25500000000E-02 0.  1.
         -2   -1    0    0    0  501 -0.00000000000E+00 -0.00000000000E+00 -0.85370711615E+02  0.85370711653E+02  0.25500000000E-02 0. -1.
    5000001    1    1    2    0    0 -0.28468369678E+02  0.12481230146E+03  0.36809845678E+03  0.42321393237E+03  0.16500000000E+03 0.  0.
   -5000001    1    1    2    0    0  0.28468369678E+02 -0.12481230146E+03  0.13078465299E+03  0.24641060067E+03  0.16500000000E+03 0.  0.
<mgrwt>
<rscale>  0 0.44666840E+03</rscale>
<asrwt>0</asrwt>
<pdfrwt beam="1">  1        2 0.83464832E-01 0.44666840E+03</pdfrwt>
<pdfrwt beam="2">  1       -2 0.12195816E-01 0.44666840E+03</pdfrwt>
<totfact> 0.27510186E+03</totfact>
</mgrwt>
</event>
<event>
 4    1  0.3541639E-005  0.6748029E+03  0.7818608E-02  0.9761320E-01
         -2   -1    0    0    0  501 -0.00000000000E+00  0.00000000000E+00  0.40578220553E+02  0.40578220633E+02  0.25500000000E-02 0. -1.
          2   -1    0    0  501    0  0.00000000000E+00 -0.00000000000E+00 -0.28054397575E+04  0.28054397575E+04  0.25500000000E-02 0.  1.
    5000001    1    1    2    0    0  0.13037728811E+03  0.25368568120E+03 -0.10765463822E+04  0.11258471366E+04  0.16500000000E+03 0.  0.
   -5000001    1    1    2    0    0 -0.13037728811E+03 -0.25368568120E+03 -0.16883151548E+04  0.17201708415E+04  0.16500000000E+03 0.  0.
<mgrwt>
<rscale>  0 0.67480294E+03</rscale>
<asrwt>0</asrwt>
<pdfrwt beam="1">  1        2 0.40077699E+00 0.67480294E+03</pdfrwt>
<pdfrwt beam="2">  1       -2 0.57968904E-02 0.67480294E+03</pdfrwt>
<totfact> 0.51932427E+02</totfact>
</mgrwt>
</event>
<event>
 4    1  0.3541639E-005  0.7095267E+03  0.7818608E-02  0.9701078E-01
          2   -1    0    0  501    0  0.00000000000E+00  0.00000000000E+00  0.75987875864E+03  0.75987875864E+03  0.25500000000E-02 0.  1.
         -2   -1    0    0    0  501 -0.00000000000E+00 -0.00000000000E+00 -0.16562777309E+03  0.16562777311E+03  0.25500000000E-02 0. -1.
    5000001    1    1    2    0    0  0.91285219175E+02 -0.28666612873E+03  0.41467766219E+03  0.53823138530E+03  0.16500000000E+03 0.  0.
   -5000001    1    1    2    0    0 -0.91285219175E+02  0.28666612873E+03  0.17957332336E+03  0.38727514646E+03  0.16500000000E+03 0.  0.
<mgrwt>
<rscale>  0 0.70952668E+03</rscale>
<asrwt>0</asrwt>
<pdfrwt beam="1">  1        2 0.10855411E+00 0.70952668E+03</pdfrwt>
<pdfrwt beam="2">  1       -2 0.23661110E-01 0.70952668E+03</pdfrwt>
<totfact> 0.64498095E+02</totfact>
</mgrwt>
</event>
<event>
 4    1  0.3541639E-005  0.4307854E+03  0.7818608E-02  0.1033612E+00
         -2   -1    0    0    0  501 -0.00000000000E+00  0.00000000000E+00  0.17794069449E+03  0.17794069451E+03  0.25500000000E-02 0. -1.
          2   -1    0    0  501    0  0.00000000000E+00 -0.00000000000E+00 -0.26072741171E+03  0.26072741172E+03  0.25500000000E-02 0.  1.
    5000001    1    1    2    0    0 -0.63253413889E+02  0.10596446911E+03 -0.10530773938E+03  0.23139616042E+03  0.16500000000E+03 0.  0.
   -5000001    1    1    2    0    0  0.63253413889E+02 -0.10596446911E+03  0.22521022160E+02  0.20727194582E+03  0.16500000000E+03 0.  0.
<mgrwt>
<rscale>  0 0.43078541E+03</rscale>
<asrwt>0</asrwt>
<pdfrwt beam="1">  1        2 0.37246773E-01 0.43078541E+03</pdfrwt>
<pdfrwt beam="2">  1       -2 0.25420099E-01 0.43078541E+03</pdfrwt>
<totfact> 0.19219289E+03</totfact>
</mgrwt>
</event>
<event>
 4    1  0.3541639E-005  0.4448962E+03  0.7818608E-02  0.1029255E+00
          2   -1    0    0  501    0  0.00000000000E+00  0.00000000000E+00  0.31311430849E+04  0.31311430849E+04  0.25500000000E-02 0.  1.
         -2   -1    0    0    0  501 -0.00000000000E+00 -0.00000000000E+00 -0.15803544088E+02  0.15803544294E+02  0.25500000000E-02 0. -1.
    5000001    1    1    2    0    0 -0.12855879997E+03  0.46422275146E+02  0.11346942942E+04  0.11547460907E+04  0.16500000000E+03 0.  0.
   -5000001    1    1    2    0    0  0.12855879997E+03 -0.46422275146E+02  0.19806452467E+04  0.19922005385E+04  0.16500000000E+03 0.  0.
<mgrwt>
<rscale>  0 0.44489620E+03</rscale>
<asrwt>0</asrwt>
<pdfrwt beam="1">  1        2 0.44730606E+00 0.44489620E+03</pdfrwt>
<pdfrwt beam="2">  1       -2 0.22576496E-02 0.44489620E+03</pdfrwt>
<totfact> 0.14951695E+03</totfact>
</mgrwt>
</event>
<event>
 4    1  0.3541639E-005  0.5752599E+03  0.7818608E-02  0.9958106E-01
         -2   -1    0    0    0  501 -0.00000000000E+00  0.00000000000E+00  0.11980352905E+04  0.11980352905E+04  0.25500000000E-02 0. -1.
          2   -1    0    0  501    0  0.00000000000E+00 -0.00000000000E+00 -0.69055542935E+02  0.69055542982E+02  0.25500000000E-02 0.  1.
    5000001    1    1    2    0    0 -0.20218458847E+03 -0.32750311109E+02  0.82093238483E+03  0.86203606140E+03  0.16500000000E+03 0.  0.
   -5000001    1    1    2    0    0  0.20218458847E+03  0.32750311109E+02  0.30804736269E+03  0.40505477204E+03  0.16500000000E+03 0.  0.
<mgrwt>
<rscale>  0 0.57525986E+03</rscale>
<asrwt>0</asrwt>
<pdfrwt beam="1">  1        2 0.98650777E-02 0.57525986E+03</pdfrwt>
<pdfrwt beam="2">  1       -2 0.17114790E+00 0.57525986E+03</pdfrwt>
<totfact> 0.14431220E+02</totfact>
</mgrwt>
</event>
<event>
 4    1  0.3541639E-005  0.6434389E+03  0.7818608E-02  0.9819169E-01
          2   -1    0    0  501    0  0.00000000000E+00  0.00000000000E+00  0.12188999573E+04  0.12188999573E+04  0.25500000000E-02 0.  1.
         -2   -1    0    0    0  501 -0.00000000000E+00 -0.00000000000E+00 -0.84915426029E+02  0.84915426067E+02  0.25500000000E-02 0. -1.
    5000001    1    1    2    0    0 -0.60314388887E+01  0.21664038474E+03  0.22008843915E+03  0.35019045618E+03  0.16500000000E+03 0.  0.
   -5000001    1    1    2    0    0  0.60314388887E+01 -0.21664038474E+03  0.91389609214E+03  0.95362492720E+03  0.16500000000E+03 0.  0.
<mgrwt>
<rscale>  0 0.64343891E+03</rscale>
<asrwt>0</asrwt>
<pdfrwt beam="1">  1        2 0.17412856E+00 0.64343891E+03</pdfrwt>
<pdfrwt beam="2">  1       -2 0.12130775E-01 0.64343891E+03</pdfrwt>
<totfact> 0.10504722E+03</totfact>
</mgrwt>
</event>
<event>
 4    1  0.3541639E-005  0.6035046E+03  0.7818608E-02  0.9898162E-01
          2   -1    0    0  501    0  0.00000000000E+00  0.00000000000E+00  0.57242578047E+03  0.57242578047E+03  0.25500000000E-02 0.  1.
         -2   -1    0    0    0  501 -0.00000000000E+00 -0.00000000000E+00 -0.15906771918E+03  0.15906771920E+03  0.25500000000E-02 0. -1.
    5000001    1    1    2    0    0  0.17552340121E+03  0.61439933986E+02  0.41396222116E+03  0.48287995445E+03  0.16500000000E+03 0.  0.
   -5000001    1    1    2    0    0 -0.17552340121E+03 -0.61439933986E+02 -0.60415987612E+00  0.24861354523E+03  0.16500000000E+03 0.  0.
<mgrwt>
<rscale>  0 0.60350464E+03</rscale>
<asrwt>0</asrwt>
<pdfrwt beam="1">  1        2 0.81775112E-01 0.60350464E+03</pdfrwt>
<pdfrwt beam="2">  1       -2 0.22723960E-01 0.60350464E+03</pdfrwt>
<totfact> 0.97847308E+02</totfact>
</mgrwt>
</event>
<event>
 4    1  0.3541639E-005  0.3826631E+03  0.7818608E-02  0.1049954E+00
          2   -1    0    0  501    0  0.00000000000E+00  0.00000000000E+00  0.39278607040E+04  0.39278607040E+04  0.25500000000E-02 0.  1.
         -2   -1    0    0    0  501 -0.00000000000E+00 -0.00000000000E+00 -0.93200264592E+01  0.93200268080E+01  0.25500000000E-02 0. -1.
    5000001    1    1    2    0    0  0.35535256355E+02 -0.79635174893E+02  0.15253947135E+04  0.15367688660E+04  0.16500000000E+03 0.  0.
   -5000001    1    1    2    0    0 -0.35535256355E+02  0.79635174893E+02  0.23931459641E+04  0.24004118648E+04  0.16500000000E+03 0.  0.
<mgrwt>
<rscale>  0 0.38266312E+03</rscale>
<asrwt>0</asrwt>
<pdfrwt beam="1">  1        2 0.56112212E+00 0.38266312E+03</pdfrwt>
<pdfrwt beam="2">  1       -2 0.13314344E-02 0.38266312E+03</pdfrwt>
<totfact> 0.11111219E+03</totfact>
</mgrwt>
</event>
<event>
 4    1  0.3541639E-005  0.5588996E+03  0.7818608E-02  0.9994547E-01
          2   -1    0    0  501    0  0.00000000000E+00  0.00000000000E+00  0.15210123340E+04  0.15210123340E+04  0.25500000000E-02 0.  1.
         -2   -1    0    0    0  501 -0.00000000000E+00 -0.00000000000E+00 -0.51342255036E+02  0.51342255100E+02  0.25500000000E-02 0. -1.
    5000001    1    1    2    0    0 -0.18114941833E+03 -0.63774159361E+02  0.10675306629E+04  0.10971458295E+04  0.16500000000E+03 0.  0.
   -5000001    1    1    2    0    0  0.18114941833E+03  0.63774159361E+02  0.40213941610E+03  0.47520875955E+03  0.16500000000E+03 0.  0.
<mgrwt>
<rscale>  0 0.55889964E+03</rscale>
<asrwt>0</asrwt>
<pdfrwt beam="1">  1        2 0.21728746E+00 0.55889964E+03</pdfrwt>
<pdfrwt beam="2">  1       -2 0.73346083E-02 0.55889964E+03</pdfrwt>
<totfact> 0.16346657E+03</totfact>
</mgrwt>
</event>
<event>
 4    1  0.3541639E-005  0.4790729E+03  0.7818608E-02  0.1019390E+00
          2   -1    0    0  501    0  0.00000000000E+00  0.00000000000E+00  0.11591549792E+04  0.11591549792E+04  0.25500000000E-02 0.  1.
         -2   -1    0    0    0  501 -0.00000000000E+00 -0.00000000000E+00 -0.49499609211E+02  0.49499609277E+02  0.25500000000E-02 0. -1.
    5000001    1    1    2    0    0  0.16329528022E+03 -0.18863325589E+02  0.41364550116E+03  0.47470914698E+03  0.16500000000E+03 0.  0.
   -5000001    1    1    2    0    0 -0.16329528022E+03  0.18863325589E+02  0.69600986885E+03  0.73394544152E+03  0.16500000000E+03 0.  0.
<mgrwt>
<rscale>  0 0.47907293E+03</rscale>
<asrwt>0</asrwt>
<pdfrwt beam="1">  1        2 0.16559355E+00 0.47907293E+03</pdfrwt>
<pdfrwt beam="2">  1       -2 0.70713736E-02 0.47907293E+03</pdfrwt>
<totfact> 0.27132277E+03</totfact>
</mgrwt>
</event>
<event>
 4    1  0.3541639E-005  0.8138885E+03  0.7818608E-02  0.9540129E-01
         -2   -1    0    0    0  501 -0.00000000000E+00  0.00000000000E+00  0.11268839186E+03  0.11268839189E+03  0.25500000000E-02 0. -1.
          2   -1    0    0  501    0  0.00000000000E+00 -0.00000000000E+00 -0.14695713421E+04  0.14695713421E+04  0.25500000000E-02 0.  1.
    5000001    1    1    2    0    0 -0.92515069284E+02  0.27003235572E+03 -0.21469878533E+03  0.39344260014E+03  0.16500000000E+03 0.  0.
   -5000001    1    1    2    0    0  0.92515069284E+02 -0.27003235572E+03 -0.11421841650E+04  0.11888171339E+04  0.16500000000E+03 0.  0.
<mgrwt>
<rscale>  0 0.81388852E+03</rscale>
<asrwt>0</asrwt>
<pdfrwt beam="1">  1        2 0.20993875E+00 0.81388852E+03</pdfrwt>
<pdfrwt beam="2">  1       -2 0.16098343E-01 0.81388852E+03</pdfrwt>
<totfact> 0.47441673E+02</totfact>
</mgrwt>
</event>
<event>
 4    1  0.3541639E-005  0.5301093E+03  0.7818608E-02  0.1006206E+00
          2   -1    0    0  501    0  0.00000000000E+00  0.00000000000E+00  0.30270599531E+04  0.30270599531E+04  0.25500000000E-02 0.  1.
         -2   -1    0    0    0  501 -0.00000000000E+00 -0.00000000000E+00 -0.23208650725E+02  0.23208650865E+02  0.25500000000E-02 0. -1.
    5000001    1    1    2    0    0 -0.10385538566E+03 -0.14011842368E+03  0.21480674334E+04  0.21614434557E+04  0.16500000000E+03 0.  0.
   -5000001    1    1    2    0    0  0.10385538566E+03  0.14011842368E+03  0.85578386905E+03  0.88882514833E+03  0.16500000000E+03 0.  0.
<mgrwt>
<rscale>  0 0.53010934E+03</rscale>
<asrwt>0</asrwt>
<pdfrwt beam="1">  1        2 0.43243708E+00 0.53010934E+03</pdfrwt>
<pdfrwt beam="2">  1       -2 0.33155220E-02 0.53010934E+03</pdfrwt>
<totfact> 0.94700107E+02</totfact>
</mgrwt>
</event>
<event>
 4    1  0.3541639E-005  0.3881155E+03  0.7818608E-02  0.1047974E+00
         -2   -1    0    0    0  501 -0.00000000000E+00  0.00000000000E+00  0.31895993947E+03  0.31895993948E+03  0.25500000000E-02 0. -1.
          2   -1    0    0  501    0  0.00000000000E+00 -0.00000000000E+00 -0.11806628797E+03  0.11806628800E+03  0.25500000000E-02 0.  1.
    5000001    1    1    2    0    0 -0.55452857354E+02  0.74247655928E+02  0.52071383155E+02  0.19627573142E+03  0.16500000000E+03 0.  0.
   -5000001    1    1    2    0    0  0.55452857354E+02 -0.74247655928E+02  0.14882226835E+03  0.24075049606E+03  0.16500000000E+03 0.  0.
<mgrwt>
<rscale>  0 0.38811553E+03</rscale>
<asrwt>0</asrwt>
<pdfrwt beam="1">  1        2 0.16866613E-01 0.38811553E+03</pdfrwt>
<pdfrwt beam="2">  1       -2 0.45565705E-01 0.38811553E+03</pdfrwt>
<totfact> 0.15782087E+03</totfact>
</mgrwt>
</event>
<event>
 4    1  0.3541639E-005  0.5295209E+03  0.7818608E-02  0.1006348E+00
          2   -1    0    0  501    0  0.00000000000E+00  0.00000000000E+00  0.74481460884E+03  0.74481460884E+03  0.25500000000E-02 0.  1.
         -2   -1    0    0    0  501 -0.00000000000E+00 -0.00000000000E+00 -0.94114829007E+02  0.94114829041E+02  0.25500000000E-02 0. -1.
    5000001    1    1    2    0    0  0.90797406188E+02 -0.71652998375E+02  0.53258446029E+02  0.20842212747E+03  0.16500000000E+03 0.  0.
   -5000001    1    1    2    0    0 -0.90797406188E+02  0.71652998375E+02  0.59744133380E+03  0.63050731041E+03  0.16500000000E+03 0.  0.
<mgrwt>
<rscale>  0 0.52952091E+03</rscale>
<asrwt>0</asrwt>
<pdfrwt beam="1">  1        2 0.10640209E+00 0.52952091E+03</pdfrwt>
<pdfrwt beam="2">  1       -2 0.13444976E-01 0.52952091E+03</pdfrwt>
<totfact> 0.17533676E+03</totfact>
</mgrwt>
</event>
<event>
 4    1  0.3541639E-005  0.3960932E+03  0.7818608E-02  0.1045141E+00
          2   -1    0    0  501    0  0.00000000000E+00  0.00000000000E+00  0.91111562334E+03  0.91111562335E+03  0.25500000000E-02 0.  1.
         -2   -1    0    0    0  501 -0.00000000000E+00 -0.00000000000E+00 -0.43048829329E+02  0.43048829404E+02  0.25500000000E-02 0. -1.
    5000001    1    1    2    0    0  0.43144985208E+02  0.88571147120E+02  0.54933889999E+03  0.58198330293E+03  0.16500000000E+03 0.  0.
   -5000001    1    1    2    0    0 -0.43144985208E+02 -0.88571147120E+02  0.31872789403E+03  0.37218114982E+03  0.16500000000E+03 0.  0.
<mgrwt>
<rscale>  0 0.39609323E+03</rscale>
<asrwt>0</asrwt>
<pdfrwt beam="1">  1        2 0.13015938E+00 0.39609323E+03</pdfrwt>
<pdfrwt beam="2">  1       -2 0.61498327E-02 0.39609323E+03</pdfrwt>
<totfact> 0.47299877E+03</totfact>
</mgrwt>
</event>
<event>
 4    1  0.3541639E-005  0.5915617E+03  0.7818608E-02  0.9923069E-01
          2   -1    0    0  501    0  0.00000000000E+00  0.00000000000E+00  0.52747836087E+03  0.52747836088E+03  0.25500000000E-02 0.  1.
         -2   -1    0    0    0  501 -0.00000000000E+00 -0.00000000000E+00 -0.16585762947E+03  0.16585762948E+03  0.25500000000E-02 0. -1.
    5000001    1    1    2    0    0 -0.10654444448E+03  0.21511815170E+03  0.12066075185E+03  0.31529597980E+03  0.16500000000E+03 0.  0.
   -5000001    1    1    2    0    0  0.10654444448E+03 -0.21511815170E+03  0.24095997956E+03  0.37804001056E+03  0.16500000000E+03 0.  0.
<mgrwt>
<rscale>  0 0.59156170E+03</rscale>
<asrwt>0</asrwt>
<pdfrwt beam="1">  1        2 0.75354051E-01 0.59156170E+03</pdfrwt>
<pdfrwt beam="2">  1       -2 0.23693947E-01 0.59156170E+03</pdfrwt>
<totfact> 0.99867674E+02</totfact>
</mgrwt>
</event>
<event>
 4    1  0.3541639E-005  0.5064142E+03  0.7818608E-02  0.1012118E+00
          2   -1    0    0  501    0  0.00000000000E+00  0.00000000000E+00  0.33095116734E+03  0.33095116735E+03  0.25500000000E-02 0.  1.
         -2   -1    0    0    0  501 -0.00000000000E+00 -0.00000000000E+00 -0.19372595251E+03  0.19372595253E+03  0.25500000000E-02 0. -1.
    5000001    1    1    2    0    0  0.18240919575E+03 -0.50289540851E+02  0.10276621712E+03  0.27127117059E+03  0.16500000000E+03 0.  0.
   -5000001    1    1    2    0    0 -0.18240919575E+03  0.50289540851E+02  0.34458997711E+02  0.25340594929E+03  0.16500000000E+03 0.  0.
<mgrwt>
<rscale>  0 0.50641418E+03</rscale>
<asrwt>0</asrwt>
<pdfrwt beam="1">  1        2 0.47278739E-01 0.50641418E+03</pdfrwt>
<pdfrwt beam="2">  1       -2 0.27675136E-01 0.50641418E+03</pdfrwt>
<totfact> 0.12708532E+03</totfact>
</mgrwt>
</event>
<event>
 4    1  0.3541639E-005  0.4371580E+03  0.7818608E-02  0.1031622E+00
         -2   -1    0    0    0  501 -0.00000000000E+00  0.00000000000E+00  0.15699404704E+03  0.15699404706E+03  0.25500000000E-02 0. -1.
          2   -1    0    0  501    0  0.00000000000E+00 -0.00000000000E+00 -0.30432216918E+03  0.30432216919E+03  0.25500000000E-02 0.  1.
    5000001    1    1    2    0    0 -0.99047653734E+02 -0.82233691746E+02 -0.70992592932E+01  0.20939965915E+03  0.16500000000E+03 0.  0.
   -5000001    1    1    2    0    0  0.99047653734E+02  0.82233691746E+02 -0.14022886284E+03  0.25191655710E+03  0.16500000000E+03 0.  0.
<mgrwt>
<rscale>  0 0.43715795E+03</rscale>
<asrwt>0</asrwt>
<pdfrwt beam="1">  1        2 0.43474596E-01 0.43715795E+03</pdfrwt>
<pdfrwt beam="2">  1       -2 0.22427721E-01 0.43715795E+03</pdfrwt>
<totfact> 0.20259230E+03</totfact>
</mgrwt>
</event>
<event>
 4    1  0.3541639E-005  0.3886049E+03  0.7818608E-02  0.1047798E+00
          2   -1    0    0  501    0  0.00000000000E+00  0.00000000000E+00  0.12779916940E+04  0.12779916940E+04  0.25500000000E-02 0.  1.
         -2   -1    0    0    0  501 -0.00000000000E+00 -0.00000000000E+00 -0.29541221587E+02  0.29541221697E+02  0.25500000000E-02 0. -1.
    5000001    1    1    2    0    0 -0.13234652896E+02 -0.68884778896E+02  0.37225173765E+03  0.41317868409E+03  0.16500000000E+03 0.  0.
   -5000001    1    1    2    0    0  0.13234652896E+02  0.68884778896E+02  0.87619873474E+03  0.89435423159E+03  0.16500000000E+03 0.  0.
<mgrwt>
<rscale>  0 0.38860487E+03</rscale>
<asrwt>0</asrwt>
<pdfrwt beam="1">  1        2 0.18257028E+00 0.38860487E+03</pdfrwt>
<pdfrwt beam="2">  1       -2 0.42201736E-02 0.38860487E+03</pdfrwt>
<totfact> 0.51804150E+03</totfact>
</mgrwt>
</event>
<event>
 4    1  0.3541639E-005  0.3865792E+03  0.7818608E-02  0.1048528E+00
         -2   -1    0    0    0  501 -0.00000000000E+00  0.00000000000E+00  0.62513488010E+02  0.62513488062E+02  0.25500000000E-02 0. -1.
          2   -1    0    0  501    0  0.00000000000E+00 -0.00000000000E+00 -0.59764504552E+03  0.59764504552E+03  0.25500000000E-02 0.  1.
    5000001    1    1    2    0    0  0.66327909500E+02 -0.26987742255E+02 -0.38841621840E+03  0.42804192380E+03  0.16500000000E+03 0.  0.
   -5000001    1    1    2    0    0 -0.66327909500E+02  0.26987742255E+02 -0.14671533911E+03  0.23211660979E+03  0.16500000000E+03 0.  0.
<mgrwt>
<rscale>  0 0.38657924E+03</rscale>
<asrwt>0</asrwt>
<pdfrwt beam="1">  1        2 0.85377860E-01 0.38657924E+03</pdfrwt>
<pdfrwt beam="2">  1       -2 0.89304987E-02 0.38657924E+03</pdfrwt>
<totfact> 0.44199062E+03</totfact>
</mgrwt>
</event>
<event>
 4    1  0.3541639E-005  0.9335959E+03  0.7818608E-02  0.9384533E-01
         -2   -1    0    0    0  501 -0.00000000000E+00  0.00000000000E+00  0.97873089921E+02  0.97873089955E+02  0.25500000000E-02 0. -1.
          2   -1    0    0  501    0  0.00000000000E+00 -0.00000000000E+00 -0.22263560465E+04  0.22263560465E+04  0.25500000000E-02 0.  1.
    5000001    1    1    2    0    0 -0.39414748705E+03  0.16027712430E+02 -0.59804988180E+03  0.73518554817E+03  0.16500000000E+03 0.  0.
   -5000001    1    1    2    0    0  0.39414748705E+03 -0.16027712430E+02 -0.15304330748E+04  0.15890435883E+04  0.16500000000E+03 0.  0.
<mgrwt>
<rscale>  0 0.93359594E+03</rscale>
<asrwt>0</asrwt>
<pdfrwt beam="1">  1        2 0.31805083E+00 0.93359594E+03</pdfrwt>
<pdfrwt beam="2">  1       -2 0.13981871E-01 0.93359594E+03</pdfrwt>
<totfact> 0.24438416E+02</totfact>
</mgrwt>
</event>
<event>
 4    1  0.3541639E-005  0.7304168E+03  0.7818608E-02  0.9666584E-01
          2   -1    0    0  501    0  0.00000000000E+00  0.00000000000E+00  0.24193155078E+04  0.24193155078E+04  0.25500000000E-02 0.  1.
         -2   -1    0    0    0  501 -0.00000000000E+00 -0.00000000000E+00 -0.55130124933E+02  0.55130124992E+02  0.25500000000E-02 0. -1.
    5000001    1    1    2    0    0 -0.67990300734E+02 -0.29932846434E+03  0.81204048859E+03  0.88365998306E+03  0.16500000000E+03 0.  0.
   -5000001    1    1    2    0    0  0.67990300734E+02  0.29932846434E+03  0.15521448943E+04  0.15907856497E+04  0.16500000000E+03 0.  0.
<mgrwt>
<rscale>  0 0.73041677E+03</rscale>
<asrwt>0</asrwt>
<pdfrwt beam="1">  1        2 0.34561654E+00 0.73041677E+03</pdfrwt>
<pdfrwt beam="2">  1       -2 0.78757313E-02 0.73041677E+03</pdfrwt>
<totfact> 0.50608903E+02</totfact>
</mgrwt>
</event>
<event>
 4    1  0.3541639E-005  0.3890194E+03  0.7818608E-02  0.1047650E+00
          2   -1    0    0  501    0  0.00000000000E+00  0.00000000000E+00  0.41709426902E+03  0.41709426903E+03  0.25500000000E-02 0.  1.
         -2   -1    0    0    0  501 -0.00000000000E+00 -0.00000000000E+00 -0.90708583012E+02  0.90708583048E+02  0.25500000000E-02 0. -1.
    5000001    1    1    2    0    0  0.99152840791E+02 -0.26458671881E+02  0.15168783883E+03  0.24650668876E+03  0.16500000000E+03 0.  0.
   -5000001    1    1    2    0    0 -0.99152840791E+02  0.26458671881E+02  0.17469784718E+03  0.26129616331E+03  0.16500000000E+03 0.  0.
<mgrwt>
<rscale>  0 0.38901943E+03</rscale>
<asrwt>0</asrwt>
<pdfrwt beam="1">  1        2 0.59584896E-01 0.38901943E+03</pdfrwt>
<pdfrwt beam="2">  1       -2 0.12958369E-01 0.38901943E+03</pdfrwt>
<totfact> 0.36300816E+03</totfact>
</mgrwt>
</event>
<event>
 4    1  0.3541639E-005  0.7537363E+03  0.7818608E-02  0.9629507E-01
         -2   -1    0    0    0  501 -0.00000000000E+00  0.00000000000E+00  0.17999245621E+03  0.17999245623E+03  0.25500000000E-02 0. -1.
          2   -1    0    0  501    0  0.00000000000E+00 -0.00000000000E+00 -0.78908649118E+03  0.78908649119E+03  0.25500000000E-02 0.  1.
    5000001    1    1    2    0    0  0.32714049681E+02 -0.31209829272E+03 -0.46884049833E+03  0.58780265927E+03  0.16500000000E+03 0.  0.
   -5000001    1    1    2    0    0 -0.32714049681E+02  0.31209829272E+03 -0.14025353664E+03  0.38127628815E+03  0.16500000000E+03 0.  0.
<mgrwt>
<rscale>  0 0.75373634E+03</rscale>
<asrwt>0</asrwt>
<pdfrwt beam="1">  1        2 0.11272664E+00 0.75373634E+03</pdfrwt>
<pdfrwt beam="2">  1       -2 0.25713208E-01 0.75373634E+03</pdfrwt>
<totfact> 0.52864176E+02</totfact>
</mgrwt>
</event>
<event>
 4    1  0.3541639E-005  0.9581933E+03  0.7818608E-02  0.9355625E-01
          2   -1    0    0  501    0  0.00000000000E+00  0.00000000000E+00  0.55690242016E+03  0.55690242016E+03  0.25500000000E-02 0.  1.
         -2   -1    0    0    0  501 -0.00000000000E+00 -0.00000000000E+00 -0.41216129178E+03  0.41216129179E+03  0.25500000000E-02 0. -1.
    5000001    1    1    2    0    0 -0.43633032232E+02 -0.31046078872E+03  0.39854901381E+03  0.53325046577E+03  0.16500000000E+03 0.  0.
   -5000001    1    1    2    0    0  0.43633032232E+02  0.31046078872E+03 -0.25380788544E+03  0.43581324618E+03  0.16500000000E+03 0.  0.
<mgrwt>
<rscale>  0 0.95819334E+03</rscale>
<asrwt>0</asrwt>
<pdfrwt beam="1">  1        2 0.79557488E-01 0.95819334E+03</pdfrwt>
<pdfrwt beam="2">  1       -2 0.58880185E-01 0.95819334E+03</pdfrwt>
<totfact> 0.15983610E+02</totfact>
</mgrwt>
</event>
<event>
 4    1  0.3541639E-005  0.1059515E+04  0.7818608E-02  0.9245575E-01
          2   -1    0    0  501    0  0.00000000000E+00  0.00000000000E+00  0.16638418278E+04  0.16638418278E+04  0.25500000000E-02 0.  1.
         -2   -1    0    0    0  501 -0.00000000000E+00 -0.00000000000E+00 -0.16867176831E+03  0.16867176833E+03  0.25500000000E-02 0. -1.
    5000001    1    1    2    0    0  0.17915049334E+03  0.37003673270E+03  0.24512550962E+03  0.50629398404E+03  0.16500000000E+03 0.  0.
   -5000001    1    1    2    0    0 -0.17915049334E+03 -0.37003673270E+03  0.12500445499E+04  0.13262196121E+04  0.16500000000E+03 0.  0.
<mgrwt>
<rscale>  0 0.10595153E+04</rscale>
<asrwt>0</asrwt>
<pdfrwt beam="1">  1        2 0.23769169E+00 0.10595153E+04</pdfrwt>
<pdfrwt beam="2">  1       -2 0.24095967E-01 0.10595153E+04</pdfrwt>
<totfact> 0.18256868E+02</totfact>
</mgrwt>
</event>
<event>
 4    1  0.3541639E-005  0.8450639E+03  0.7818608E-02  0.9496986E-01
         -2   -1    0    0    0  501 -0.00000000000E+00  0.00000000000E+00  0.19139013364E+03  0.19139013365E+03  0.25500000000E-02 0. -1.
          2   -1    0    0  501    0  0.00000000000E+00 -0.00000000000E+00 -0.93282363944E+03  0.93282363945E+03  0.25500000000E-02 0.  1.
    5000001    1    1    2    0    0  0.58511386327E+01 -0.36278366002E+03 -0.18417612181E+03  0.43908093064E+03  0.16500000000E+03 0.  0.
   -5000001    1    1    2    0    0 -0.58511386327E+01  0.36278366002E+03 -0.55725738400E+03  0.68513284247E+03  0.16500000000E+03 0.  0.
<mgrwt>
<rscale>  0 0.84506388E+03</rscale>
<asrwt>0</asrwt>
<pdfrwt beam="1">  1        2 0.13326052E+00 0.84506388E+03</pdfrwt>
<pdfrwt beam="2">  1       -2 0.27341448E-01 0.84506388E+03</pdfrwt>
<totfact> 0.37743855E+02</totfact>
</mgrwt>
</event>
<event>
 4    1  0.3541639E-005  0.6330880E+03  0.7818608E-02  0.9839041E-01
          2   -1    0    0  501    0  0.00000000000E+00  0.00000000000E+00  0.13532235944E+04  0.13532235944E+04  0.25500000000E-02 0.  1.
         -2   -1    0    0    0  501 -0.00000000000E+00 -0.00000000000E+00 -0.74045484413E+02  0.74045484457E+02  0.25500000000E-02 0. -1.
    5000001    1    1    2    0    0 -0.13250358853E+03 -0.14853998768E+03  0.10513206940E+04  0.10826456163E+04  0.16500000000E+03 0.  0.
   -5000001    1    1    2    0    0  0.13250358853E+03  0.14853998768E+03  0.22785741600E+03  0.34462346255E+03  0.16500000000E+03 0.  0.
<mgrwt>
<rscale>  0 0.63308798E+03</rscale>
<asrwt>0</asrwt>
<pdfrwt beam="1">  1        2 0.19331766E+00 0.63308798E+03</pdfrwt>
<pdfrwt beam="2">  1       -2 0.10577926E-01 0.63308798E+03</pdfrwt>
<totfact> 0.11106061E+03</totfact>
</mgrwt>
</event>
<event>
 4    1  0.3541639E-005  0.4048692E+03  0.7818608E-02  0.1042107E+00
         -2   -1    0    0    0  501 -0.00000000000E+00  0.00000000000E+00  0.66384367295E+02  0.66384367344E+02  0.25500000000E-02 0. -1.
          2   -1    0    0  501    0  0.00000000000E+00 -0.00000000000E+00 -0.61731041956E+03  0.61731041956E+03  0.25500000000E-02 0.  1.
    5000001    1    1    2    0    0  0.74837614380E+02 -0.88954300996E+02 -0.30169066074E+03  0.36298180529E+03  0.16500000000E+03 0.  0.
   -5000001    1    1    2    0    0 -0.74837614380E+02  0.88954300996E+02 -0.24923539153E+03  0.32071298162E+03  0.16500000000E+03 0.  0.
<mgrwt>
<rscale>  0 0.40486917E+03</rscale>
<asrwt>0</asrwt>
<pdfrwt beam="1">  1        2 0.88187200E-01 0.40486917E+03</pdfrwt>
<pdfrwt beam="2">  1       -2 0.94834814E-02 0.40486917E+03</pdfrwt>
<totfact> 0.38712809E+03</totfact>
</mgrwt>
</event>
<event>
 4    1  0.3541639E-005  0.4443764E+03  0.7818608E-02  0.1029412E+00
         -2   -1    0    0    0  501 -0.00000000000E+00  0.00000000000E+00  0.46392782150E+02  0.46392782220E+02  0.25500000000E-02 0.  1.
          2   -1    0    0  501    0  0.00000000000E+00 -0.00000000000E+00 -0.10641224633E+04  0.10641224633E+04  0.25500000000E-02 0. -1.
    5000001    1    1    2    0    0  0.10928845968E+03  0.10096807313E+03 -0.51391417254E+03  0.55988507388E+03  0.16500000000E+03 0.  0.
   -5000001    1    1    2    0    0 -0.10928845968E+03 -0.10096807313E+03 -0.50381550860E+03  0.55063017164E+03  0.16500000000E+03 0.  0.
<mgrwt>
<rscale>  0 0.44437642E+03</rscale>
<asrwt>0</asrwt>
<pdfrwt beam="1">  1        2 0.15201748E+00 0.44437642E+03</pdfrwt>
<pdfrwt beam="2">  1       -2 0.66275409E-02 0.44437642E+03</pdfrwt>
<totfact> 0.34045073E+03</totfact>
</mgrwt>
</event>
<event>
 4    1  0.3541639E-005  0.4470327E+03  0.7818608E-02  0.1028611E+00
         -2   -1    0    0    0  501 -0.00000000000E+00  0.00000000000E+00  0.12789081122E+03  0.12789081125E+03  0.25500000000E-02 0. -1.
          2   -1    0    0  501    0  0.00000000000E+00 -0.00000000000E+00 -0.39064222019E+03  0.39064222020E+03  0.25500000000E-02 0.  1.
    5000001    1    1    2    0    0 -0.10308333957E+03 -0.48223669985E+02 -0.24610384077E+03  0.31740163466E+03  0.16500000000E+03 0.  0.
   -5000001    1    1    2    0    0  0.10308333957E+03  0.48223669985E+02 -0.16647568197E+02  0.20113139678E+03  0.16500000000E+03 0.  0.
<mgrwt>
<rscale>  0 0.44703266E+03</rscale>
<asrwt>0</asrwt>
<pdfrwt beam="1">  1        2 0.55806031E-01 0.44703266E+03</pdfrwt>
<pdfrwt beam="2">  1       -2 0.18270116E-01 0.44703266E+03</pdfrwt>
<totfact> 0.21991755E+03</totfact>
</mgrwt>
</event>
<event>
 4    1  0.3541639E-005  0.4608772E+03  0.7818608E-02  0.1024527E+00
         -2   -1    0    0    0  501 -0.00000000000E+00  0.00000000000E+00  0.59117389636E+02  0.59117389691E+02  0.25500000000E-02 0. -1.
          2   -1    0    0  501    0  0.00000000000E+00 -0.00000000000E+00 -0.89824586776E+03  0.89824586776E+03  0.25500000000E-02 0.  1.
    5000001    1    1    2    0    0 -0.83117360036E+02  0.13748342599E+03 -0.43653727394E+03  0.49355848640E+03  0.16500000000E+03 0.  0.
   -5000001    1    1    2    0    0  0.83117360036E+02 -0.13748342599E+03 -0.40259120418E+03  0.46380477105E+03  0.16500000000E+03 0.  0.
<mgrwt>
<rscale>  0 0.46087721E+03</rscale>
<asrwt>0</asrwt>
<pdfrwt beam="1">  1        2 0.12832083E+00 0.46087721E+03</pdfrwt>
<pdfrwt beam="2">  1       -2 0.84453419E-02 0.46087721E+03</pdfrwt>
<totfact> 0.29333440E+03</totfact>
</mgrwt>
</event>
<event>
 4    1  0.3541639E-005  0.5377382E+03  0.7818608E-02  0.1004373E+00
         -2   -1    0    0    0  501 -0.00000000000E+00  0.00000000000E+00  0.70050836571E+02  0.70050836617E+02  0.25500000000E-02 0. -1.
          2   -1    0    0  501    0  0.00000000000E+00 -0.00000000000E+00 -0.10319734670E+04  0.10319734670E+04  0.25500000000E-02 0.  1.
    5000001    1    1    2    0    0  0.42084448368E+02  0.20747501362E+03 -0.44864732562E+03  0.52280627852E+03  0.16500000000E+03 0.  0.
   -5000001    1    1    2    0    0 -0.42084448368E+02 -0.20747501362E+03 -0.51327530476E+03  0.57921802506E+03  0.16500000000E+03 0.  0.
<mgrwt>
<rscale>  0 0.53773824E+03</rscale>
<asrwt>0</asrwt>
<pdfrwt beam="1">  1        2 0.14742477E+00 0.53773824E+03</pdfrwt>
<pdfrwt beam="2">  1       -2 0.10007263E-01 0.53773824E+03</pdfrwt>
<totfact> 0.18477214E+03</totfact>
</mgrwt>
</event>
<event>
 4    1  0.3541639E-005  0.8085598E+03  0.7818608E-02  0.9547709E-01
          2   -1    0    0  501    0  0.00000000000E+00  0.00000000000E+00  0.86914259119E+03  0.86914259119E+03  0.25500000000E-02 0.  1.
         -2   -1    0    0    0  501 -0.00000000000E+00 -0.00000000000E+00 -0.18804997633E+03  0.18804997634E+03  0.25500000000E-02 0. -1.
    5000001    1    1    2    0    0  0.24289426736E+03  0.27164527266E+03  0.26398809723E+03  0.47927392455E+03  0.16500000000E+03 0.  0.
   -5000001    1    1    2    0    0 -0.24289426736E+03 -0.27164527266E+03  0.41710451763E+03  0.57791864298E+03  0.16500000000E+03 0.  0.
<mgrwt>
<rscale>  0 0.80855982E+03</rscale>
<asrwt>0</asrwt>
<pdfrwt beam="1">  1        2 0.12416323E+00 0.80855982E+03</pdfrwt>
<pdfrwt beam="2">  1       -2 0.26864282E-01 0.80855982E+03</pdfrwt>
<totfact> 0.42950673E+02</totfact>
</mgrwt>
</event>
<event>
 4    1  0.3541639E-005  0.4019159E+03  0.7818608E-02  0.1043118E+00
         -2   -1    0    0    0  501 -0.00000000000E+00  0.00000000000E+00  0.46640866802E+03  0.46640866803E+03  0.25500000000E-02 0. -1.
          2   -1    0    0  501    0  0.00000000000E+00 -0.00000000000E+00 -0.86585238382E+02  0.86585238420E+02  0.25500000000E-02 0.  1.
    5000001    1    1    2    0    0  0.48717240312E+01  0.10853659630E+03  0.13926124336E+03  0.24170771674E+03  0.16500000000E+03 0.  0.
   -5000001    1    1    2    0    0 -0.48717240312E+01 -0.10853659630E+03  0.24056218628E+03  0.31128618971E+03  0.16500000000E+03 0.  0.
<mgrwt>
<rscale>  0 0.40191594E+03</rscale>
<asrwt>0</asrwt>
<pdfrwt beam="1">  1        2 0.12369320E-01 0.40191594E+03</pdfrwt>
<pdfrwt beam="2">  1       -2 0.66629810E-01 0.40191594E+03</pdfrwt>
<totfact> 0.10519207E+03</totfact>
</mgrwt>
</event>
<event>
 4    1  0.3541639E-005  0.4683288E+03  0.7818608E-02  0.1022393E+00
         -2   -1    0    0    0  501 -0.00000000000E+00  0.00000000000E+00  0.16048012614E+02  0.16048012817E+02  0.25500000000E-02 0. -1.
          2   -1    0    0  501    0  0.00000000000E+00 -0.00000000000E+00 -0.34168075646E+04  0.34168075646E+04  0.25500000000E-02 0.  1.
    5000001    1    1    2    0    0  0.14322735004E+03  0.83208440419E+02 -0.16047370619E+04  0.16216793013E+04  0.16500000000E+03 0.  0.
   -5000001    1    1    2    0    0 -0.14322735004E+03 -0.83208440419E+02 -0.17960224901E+04  0.18111762761E+04  0.16500000000E+03 0.  0.
<mgrwt>
<rscale>  0 0.46832882E+03</rscale>
<asrwt>0</asrwt>
<pdfrwt beam="1">  1        2 0.48811490E+00 0.46832882E+03</pdfrwt>
<pdfrwt beam="2">  1       -2 0.22925754E-02 0.46832882E+03</pdfrwt>
<totfact> 0.10055608E+03</totfact>
</mgrwt>
</event>
<event>
 4    1  0.3541639E-005  0.8407650E+03  0.7818608E-02  0.9502816E-01
         -2   -1    0    0    0  501 -0.00000000000E+00  0.00000000000E+00  0.26960006500E+03  0.26960006501E+03  0.25500000000E-02 0. -1.
          2   -1    0    0  501    0  0.00000000000E+00 -0.00000000000E+00 -0.65549486708E+03  0.65549486709E+03  0.25500000000E-02 0.  1.
    5000001    1    1    2    0    0  0.34602161584E+03  0.88413421091E+02 -0.35595758925E+03  0.53054565968E+03  0.16500000000E+03 0.  0.
   -5000001    1    1    2    0    0 -0.34602161584E+03 -0.88413421091E+02 -0.29937212838E+02  0.39454927243E+03  0.16500000000E+03 0.  0.
<mgrwt>
<rscale>  0 0.84076503E+03</rscale>
<asrwt>0</asrwt>
<pdfrwt beam="1">  1        2 0.93642123E-01 0.84076503E+03</pdfrwt>
<pdfrwt beam="2">  1       -2 0.38514295E-01 0.84076503E+03</pdfrwt>
<totfact> 0.31169863E+02</totfact>
</mgrwt>
</event>
<event>
 4    1  0.3541639E-005  0.7082226E+03  0.7818608E-02  0.9703273E-01
         -2   -1    0    0    0  501 -0.00000000000E+00  0.00000000000E+00  0.29609511735E+03  0.29609511736E+03  0.25500000000E-02 0. -1.
          2   -1    0    0  501    0  0.00000000000E+00 -0.00000000000E+00 -0.42349507799E+03  0.42349507800E+03  0.25500000000E-02 0.  1.
    5000001    1    1    2    0    0 -0.26024282252E+03 -0.16614486852E+03 -0.11784110296E+03  0.36938052135E+03  0.16500000000E+03 0.  0.
   -5000001    1    1    2    0    0  0.26024282252E+03  0.16614486852E+03 -0.95588576858E+01  0.35020967401E+03  0.16500000000E+03 0.  0.
<mgrwt>
<rscale>  0 0.70822263E+03</rscale>
<asrwt>0</asrwt>
<pdfrwt beam="1">  1        2 0.60499297E-01 0.70822263E+03</pdfrwt>
<pdfrwt beam="2">  1       -2 0.42299303E-01 0.70822263E+03</pdfrwt>
<totfact> 0.43263230E+02</totfact>
</mgrwt>
</event>
<event>
 4    1  0.3541639E-005  0.7768079E+03  0.7818608E-02  0.9594207E-01
         -2   -1    0    0    0  501 -0.00000000000E+00  0.00000000000E+00  0.28088543461E+03  0.28088543462E+03  0.25500000000E-02 0. -1.
          2   -1    0    0  501    0  0.00000000000E+00 -0.00000000000E+00 -0.53707892165E+03  0.53707892165E+03  0.25500000000E-02 0.  1.
    5000001    1    1    2    0    0 -0.17007589287E+03 -0.22626852524E+03  0.91543655699E+02  0.34018891185E+03  0.16500000000E+03 0.  0.
   -5000001    1    1    2    0    0  0.17007589287E+03  0.22626852524E+03 -0.34773714274E+03  0.47777544442E+03  0.16500000000E+03 0.  0.
<mgrwt>
<rscale>  0 0.77680795E+03</rscale>
<asrwt>0</asrwt>
<pdfrwt beam="1">  1        2 0.76725560E-01 0.77680795E+03</pdfrwt>
<pdfrwt beam="2">  1       -2 0.40126491E-01 0.77680795E+03</pdfrwt>
<totfact> 0.36527385E+02</totfact>
</mgrwt>
</event>
<event>
 4    1  0.3541639E-005  0.7291679E+03  0.7818608E-02  0.9668612E-01
         -2   -1    0    0    0  501 -0.00000000000E+00  0.00000000000E+00  0.12985173113E+03  0.12985173115E+03  0.25500000000E-02 0. -1.
          2   -1    0    0  501    0  0.00000000000E+00 -0.00000000000E+00 -0.10236403578E+04  0.10236403578E+04  0.25500000000E-02 0.  1.
    5000001    1    1    2    0    0  0.28359296413E+03 -0.11806818458E+03 -0.27849939855E+03  0.44626447372E+03  0.16500000000E+03 0.  0.
   -5000001    1    1    2    0    0 -0.28359296413E+03  0.11806818458E+03 -0.61528922816E+03  0.70722761527E+03  0.16500000000E+03 0.  0.
<mgrwt>
<rscale>  0 0.72916794E+03</rscale>
<asrwt>0</asrwt>
<pdfrwt beam="1">  1        2 0.14623433E+00 0.72916794E+03</pdfrwt>
<pdfrwt beam="2">  1       -2 0.18550248E-01 0.72916794E+03</pdfrwt>
<totfact> 0.66366889E+02</totfact>
</mgrwt>
</event>
<event>
 4    1  0.3541639E-005  0.5694490E+03  0.7818608E-02  0.9970899E-01
          2   -1    0    0  501    0  0.00000000000E+00  0.00000000000E+00  0.92007069687E+03  0.92007069687E+03  0.25500000000E-02 0.  1.
         -2   -1    0    0    0  501 -0.00000000000E+00 -0.00000000000E+00 -0.88110669635E+02  0.88110669672E+02  0.25500000000E-02 0. -1.
    5000001    1    1    2    0    0 -0.15438867610E+03 -0.49256537137E+02  0.12195205328E+03  0.26145625458E+03  0.16500000000E+03 0.  0.
   -5000001    1    1    2    0    0  0.15438867610E+03  0.49256537137E+02  0.71000797396E+03  0.74672511197E+03  0.16500000000E+03 0.  0.
<mgrwt>
<rscale>  0 0.56944902E+03</rscale>
<asrwt>0</asrwt>
<pdfrwt beam="1">  1        2 0.13143867E+00 0.56944902E+03</pdfrwt>
<pdfrwt beam="2">  1       -2 0.12587238E-01 0.56944902E+03</pdfrwt>
<totfact> 0.14880875E+03</totfact>
</mgrwt>
</event>
<event>
 4    1  0.3541639E-005  0.9219724E+03  0.7818608E-02  0.9398524E-01
         -2   -1    0    0    0  501 -0.00000000000E+00  0.00000000000E+00  0.25470090396E+03  0.25470090397E+03  0.25500000000E-02 0. -1.
          2   -1    0    0  501    0  0.00000000000E+00 -0.00000000000E+00 -0.83434442777E+03  0.83434442777E+03  0.25500000000E-02 0.  1.
    5000001    1    1    2    0    0 -0.32179011825E+03 -0.23993620849E+02  0.46686391026E+02  0.36541646536E+03  0.16500000000E+03 0.  0.
   -5000001    1    1    2    0    0  0.32179011825E+03  0.23993620849E+02 -0.62632991484E+03  0.72362886638E+03  0.16500000000E+03 0.  0.
<mgrwt>
<rscale>  0 0.92197241E+03</rscale>
<asrwt>0</asrwt>
<pdfrwt beam="1">  1        2 0.11919206E+00 0.92197241E+03</pdfrwt>
<pdfrwt beam="2">  1       -2 0.36385844E-01 0.92197241E+03</pdfrwt>
<totfact> 0.25577482E+02</totfact>
</mgrwt>
</event>
<event>
 4    1  0.3541639E-005  0.4962214E+03  0.7818608E-02  0.1014770E+00
         -2   -1    0    0    0  501 -0.00000000000E+00  0.00000000000E+00  0.34695416029E+02  0.34695416122E+02  0.25500000000E-02 0. -1.
          2   -1    0    0  501    0  0.00000000000E+00 -0.00000000000E+00 -0.17742663777E+04  0.17742663777E+04  0.25500000000E-02 0.  1.
    5000001    1    1    2    0    0 -0.13710231708E+03  0.10128026532E+03 -0.11346579821E+04  0.11591930270E+04  0.16500000000E+03 0.  0.
   -5000001    1    1    2    0    0  0.13710231708E+03 -0.10128026532E+03 -0.60491297957E+03  0.64976876683E+03  0.16500000000E+03 0.  0.
<mgrwt>
<rscale>  0 0.49622136E+03</rscale>
<asrwt>0</asrwt>
<pdfrwt beam="1">  1        2 0.25346657E+00 0.49622136E+03</pdfrwt>
<pdfrwt beam="2">  1       -2 0.49564891E-02 0.49622136E+03</pdfrwt>
<totfact> 0.22449760E+03</totfact>
</mgrwt>
</event>
<event>
 4    1  0.3541639E-005  0.4170747E+03  0.7818608E-02  0.1038023E+00
          2   -1    0    0  501    0  0.00000000000E+00  0.00000000000E+00  0.11891830265E+04  0.11891830265E+04  0.25500000000E-02 0.  1.
         -2   -1    0    0    0  501 -0.00000000000E+00 -0.00000000000E+00 -0.36569506356E+02  0.36569506445E+02  0.25500000000E-02 0. -1.
    5000001    1    1    2    0    0  0.27844390495E+02 -0.43018505266E+02  0.23310675972E+03  0.29015455072E+03  0.16500000000E+03 0.  0.
   -5000001    1    1    2    0    0 -0.27844390495E+02  0.43018505266E+02  0.91950676039E+03  0.93559798219E+03  0.16500000000E+03 0.  0.
<mgrwt>
<rscale>  0 0.41707475E+03</rscale>
<asrwt>0</asrwt>
<pdfrwt beam="1">  1        2 0.16988335E+00 0.41707475E+03</pdfrwt>
<pdfrwt beam="2">  1       -2 0.52242134E-02 0.41707475E+03</pdfrwt>
<totfact> 0.41796816E+03</totfact>
</mgrwt>
</event>
<event>
 4    1  0.3541639E-005  0.6973810E+03  0.7818608E-02  0.9721721E-01
         -2   -1    0    0    0  501 -0.00000000000E+00  0.00000000000E+00  0.24090717132E+03  0.24090717134E+03  0.25500000000E-02 0. -1.
          2   -1    0    0  501    0  0.00000000000E+00 -0.00000000000E+00 -0.50469680770E+03  0.50469680770E+03  0.25500000000E-02 0.  1.
    5000001    1    1    2    0    0  0.28513376526E+03  0.44856340418E+01 -0.25397780527E+03  0.41599412325E+03  0.16500000000E+03 0.  0.
   -5000001    1    1    2    0    0 -0.28513376526E+03 -0.44856340418E+01 -0.98118310996E+01  0.32960985579E+03  0.16500000000E+03 0.  0.
<mgrwt>
<rscale>  0 0.69738104E+03</rscale>
<asrwt>0</asrwt>
<pdfrwt beam="1">  1        2 0.72099543E-01 0.69738104E+03</pdfrwt>
<pdfrwt beam="2">  1       -2 0.34415311E-01 0.69738104E+03</pdfrwt>
<totfact> 0.52832942E+02</totfact>
</mgrwt>
</event>
<event>
 4    1  0.3541639E-005  0.5996324E+03  0.7818608E-02  0.9906169E-01
         -2   -1    0    0    0  501 -0.00000000000E+00  0.00000000000E+00  0.39174661823E+03  0.39174661823E+03  0.25500000000E-02 0. -1.
          2   -1    0    0  501    0  0.00000000000E+00 -0.00000000000E+00 -0.22945894152E+03  0.22945894153E+03  0.25500000000E-02 0.  1.
    5000001    1    1    2    0    0  0.25011954541E+03  0.71136893297E+00  0.91732687668E+02  0.31336907797E+03  0.16500000000E+03 0.  0.
   -5000001    1    1    2    0    0 -0.25011954541E+03 -0.71136893297E+00  0.70554989040E+02  0.30783648179E+03  0.16500000000E+03 0.  0.
<mgrwt>
<rscale>  0 0.59963244E+03</rscale>
<asrwt>0</asrwt>
<pdfrwt beam="1">  1        2 0.32779849E-01 0.59963244E+03</pdfrwt>
<pdfrwt beam="2">  1       -2 0.55963803E-01 0.59963244E+03</pdfrwt>
<totfact> 0.48677856E+02</totfact>
</mgrwt>
</event>
<event>
 4    1  0.3541639E-005  0.4408993E+03  0.7818608E-02  0.1030471E+00
         -2   -1    0    0    0  501 -0.00000000000E+00  0.00000000000E+00  0.85470205267E+02  0.85470205305E+02  0.25500000000E-02 0. -1.
          2   -1    0    0  501    0  0.00000000000E+00 -0.00000000000E+00 -0.56859627463E+03  0.56859627464E+03  0.25500000000E-02 0.  1.
    5000001    1    1    2    0    0  0.78254715840E+02 -0.12348458874E+03 -0.24023939357E+03  0.32605553274E+03  0.16500000000E+03 0.  0.
   -5000001    1    1    2    0    0 -0.78254715840E+02  0.12348458874E+03 -0.24288667580E+03  0.32801094720E+03  0.16500000000E+03 0.  0.
<mgrwt>
<rscale>  0 0.44089926E+03</rscale>
<asrwt>0</asrwt>
<pdfrwt beam="1">  1        2 0.81228037E-01 0.44089926E+03</pdfrwt>
<pdfrwt beam="2">  1       -2 0.12210030E-01 0.44089926E+03</pdfrwt>
<totfact> 0.28328497E+03</totfact>
</mgrwt>
</event>
<event>
 4    1  0.3541639E-005  0.1055762E+04  0.7818608E-02  0.9249416E-01
         -2   -1    0    0    0  501 -0.00000000000E+00  0.00000000000E+00  0.41775839624E+03  0.41775839625E+03  0.25500000000E-02 0. -1.
          2   -1    0    0  501    0  0.00000000000E+00 -0.00000000000E+00 -0.66703191468E+03  0.66703191469E+03  0.25500000000E-02 0.  1.
    5000001    1    1    2    0    0 -0.42215459539E+03 -0.20422361551E+02  0.15259972736E+03  0.47868909748E+03  0.16500000000E+03 0.  0.
   -5000001    1    1    2    0    0  0.42215459539E+03  0.20422361551E+02 -0.40187324580E+03  0.60610121345E+03  0.16500000000E+03 0.  0.
<mgrwt>
<rscale>  0 0.10557617E+04</rscale>
<asrwt>0</asrwt>
<pdfrwt beam="1">  1        2 0.95290273E-01 0.10557617E+04</pdfrwt>
<pdfrwt beam="2">  1       -2 0.59679771E-01 0.10557617E+04</pdfrwt>
<totfact> 0.12459958E+02</totfact>
</mgrwt>
</event>
<event>
 4    1  0.3541639E-005  0.4654245E+03  0.7818608E-02  0.1023220E+00
         -2   -1    0    0    0  501 -0.00000000000E+00  0.00000000000E+00  0.42918400879E+02  0.42918400955E+02  0.25500000000E-02 0. -1.
          2   -1    0    0  501    0  0.00000000000E+00 -0.00000000000E+00 -0.12618130933E+04  0.12618130933E+04  0.25500000000E-02 0.  1.
    5000001    1    1    2    0    0 -0.14761770920E+03  0.84266934849E+01 -0.40987962406E+03  0.46592735856E+03  0.16500000000E+03 0.  0.
   -5000001    1    1    2    0    0  0.14761770920E+03 -0.84266934849E+01 -0.80901506835E+03  0.83880413569E+03  0.16500000000E+03 0.  0.
<mgrwt>
<rscale>  0 0.46542454E+03</rscale>
<asrwt>0</asrwt>
<pdfrwt beam="1">  1        2 0.18025899E+00 0.46542454E+03</pdfrwt>
<pdfrwt beam="2">  1       -2 0.61312009E-02 0.46542454E+03</pdfrwt>
<totfact> 0.29762654E+03</totfact>
</mgrwt>
</event>
<event>
 4    1  0.3541639E-005  0.4962536E+03  0.7818608E-02  0.1014761E+00
         -2   -1    0    0    0  501 -0.00000000000E+00  0.00000000000E+00  0.99883459540E+02  0.99883459573E+02  0.25500000000E-02 0. -1.
          2   -1    0    0  501    0  0.00000000000E+00 -0.00000000000E+00 -0.61638751693E+03  0.61638751693E+03  0.25500000000E-02 0.  1.
    5000001    1    1    2    0    0 -0.16184639634E+03 -0.90264328818E+02 -0.25841376444E+03  0.35825211614E+03  0.16500000000E+03 0.  0.
   -5000001    1    1    2    0    0  0.16184639634E+03  0.90264328818E+02 -0.25809029294E+03  0.35801886037E+03  0.16500000000E+03 0.  0.
<mgrwt>
<rscale>  0 0.49625364E+03</rscale>
<asrwt>0</asrwt>
<pdfrwt beam="1">  1        2 0.88055357E-01 0.49625364E+03</pdfrwt>
<pdfrwt beam="2">  1       -2 0.14269066E-01 0.49625364E+03</pdfrwt>
<totfact> 0.19955080E+03</totfact>
</mgrwt>
</event>
<event>
 4    1  0.3541639E-005  0.1550122E+04  0.7818608E-02  0.8851790E-01
          2   -1    0    0  501    0  0.00000000000E+00  0.00000000000E+00  0.32745264798E+04  0.32745264799E+04  0.25500000000E-02 0.  1.
         -2   -1    0    0    0  501 -0.00000000000E+00 -0.00000000000E+00 -0.18345233872E+03  0.18345233874E+03  0.25500000000E-02 0. -1.
    5000001    1    1    2    0    0 -0.45175853163E+03 -0.35523009063E+03  0.26456984884E+04  0.27124195250E+04  0.16500000000E+03 0.  0.
   -5000001    1    1    2    0    0  0.45175853163E+03  0.35523009063E+03  0.44537565274E+03  0.74555929358E+03  0.16500000000E+03 0.  0.
<mgrwt>
<rscale>  0 0.15501220E+04</rscale>
<asrwt>0</asrwt>
<pdfrwt beam="1">  1        2 0.46778950E+00 0.15501220E+04</pdfrwt>
<pdfrwt beam="2">  1       -2 0.26207477E-01 0.15501220E+04</pdfrwt>
<totfact> 0.20975390E+01</totfact>
</mgrwt>
</event>
<event>
 4    1  0.3541639E-005  0.5174401E+03  0.7818608E-02  0.1009324E+00
         -2   -1    0    0    0  501 -0.00000000000E+00  0.00000000000E+00  0.60906518906E+02  0.60906518960E+02  0.25500000000E-02 0. -1.
          2   -1    0    0  501    0  0.00000000000E+00 -0.00000000000E+00 -0.10989965246E+04  0.10989965246E+04  0.25500000000E-02 0.  1.
    5000001    1    1    2    0    0  0.11386124712E+03 -0.15472110277E+03 -0.40025934281E+03  0.47364073383E+03  0.16500000000E+03 0.  0.
   -5000001    1    1    2    0    0 -0.11386124712E+03  0.15472110277E+03 -0.63783066284E+03  0.68626230969E+03  0.16500000000E+03 0.  0.
<mgrwt>
<rscale>  0 0.51744006E+03</rscale>
<asrwt>0</asrwt>
<pdfrwt beam="1">  1        2 0.15699949E+00 0.51744006E+03</pdfrwt>
<pdfrwt beam="2">  1       -2 0.87009319E-02 0.51744006E+03</pdfrwt>
<totfact> 0.21134216E+03</totfact>
</mgrwt>
</event>
<event>
 4    1  0.3541639E-005  0.4874136E+03  0.7818608E-02  0.1017117E+00
          2   -1    0    0  501    0  0.00000000000E+00  0.00000000000E+00  0.23249932199E+03  0.23249932201E+03  0.25500000000E-02 0.  1.
         -2   -1    0    0    0  501 -0.00000000000E+00 -0.00000000000E+00 -0.25545453304E+03  0.25545453305E+03  0.25500000000E-02 0. -1.
    5000001    1    1    2    0    0 -0.17000788955E+03 -0.50675373021E+02 -0.37913877857E+02  0.24522059064E+03  0.16500000000E+03 0.  0.
   -5000001    1    1    2    0    0  0.17000788955E+03  0.50675373021E+02  0.14958666817E+02  0.24273326441E+03  0.16500000000E+03 0.  0.
<mgrwt>
<rscale>  0 0.48741361E+03</rscale>
<asrwt>0</asrwt>
<pdfrwt beam="1">  1        2 0.33214189E-01 0.48741361E+03</pdfrwt>
<pdfrwt beam="2">  1       -2 0.36493505E-01 0.48741361E+03</pdfrwt>
<totfact> 0.11213165E+03</totfact>
</mgrwt>
</event>
<event>
 4    1  0.3541639E-005  0.4070980E+03  0.7818608E-02  0.1041349E+00
         -2   -1    0    0    0  501 -0.00000000000E+00  0.00000000000E+00  0.26837843668E+02  0.26837843789E+02  0.25500000000E-02 0. -1.
          2   -1    0    0  501    0  0.00000000000E+00 -0.00000000000E+00 -0.15437973086E+04  0.15437973086E+04  0.25500000000E-02 0.  1.
    5000001    1    1    2    0    0  0.28076883134E+02 -0.10522793850E+03 -0.57161096692E+03  0.60483495923E+03  0.16500000000E+03 0.  0.
   -5000001    1    1    2    0    0 -0.28076883134E+02  0.10522793850E+03 -0.94534849797E+03  0.96580019312E+03  0.16500000000E+03 0.  0.
<mgrwt>
<rscale>  0 0.40709798E+03</rscale>
<asrwt>0</asrwt>
<pdfrwt beam="1">  1        2 0.22054242E+00 0.40709798E+03</pdfrwt>
<pdfrwt beam="2">  1       -2 0.38339787E-02 0.40709798E+03</pdfrwt>
<totfact> 0.43555725E+03</totfact>
</mgrwt>
</event>
<event>
 4    1  0.3541639E-005  0.7328109E+03  0.7818608E-02  0.9662710E-01
          2   -1    0    0  501    0  0.00000000000E+00  0.00000000000E+00  0.76819035724E+03  0.76819035724E+03  0.25500000000E-02 0.  1.
         -2   -1    0    0    0  501 -0.00000000000E+00 -0.00000000000E+00 -0.17476521703E+03  0.17476521705E+03  0.25500000000E-02 0. -1.
    5000001    1    1    2    0    0  0.31906551190E+03 -0.69954418310E+02  0.32014205192E+03  0.48622253643E+03  0.16500000000E+03 0.  0.
   -5000001    1    1    2    0    0 -0.31906551190E+03  0.69954418310E+02  0.27328308829E+03  0.45673303786E+03  0.16500000000E+03 0.  0.
<mgrwt>
<rscale>  0 0.73281090E+03</rscale>
<asrwt>0</asrwt>
<pdfrwt beam="1">  1        2 0.10974148E+00 0.73281090E+03</pdfrwt>
<pdfrwt beam="2">  1       -2 0.24966460E-01 0.73281090E+03</pdfrwt>
<totfact> 0.57732839E+02</totfact>
</mgrwt>
</event>
<event>
 4    1  0.3541639E-005  0.5086024E+03  0.7818608E-02  0.1011558E+00
          2   -1    0    0  501    0  0.00000000000E+00  0.00000000000E+00  0.38190876748E+04  0.38190876748E+04  0.25500000000E-02 0.  1.
         -2   -1    0    0    0  501 -0.00000000000E+00 -0.00000000000E+00 -0.16933128453E+02  0.16933128645E+02  0.25500000000E-02 0. -1.
    5000001    1    1    2    0    0 -0.81499719008E+02 -0.12100627877E+03  0.28598482356E+04  0.28683168679E+04  0.16500000000E+03 0.  0.
   -5000001    1    1    2    0    0  0.81499719008E+02  0.12100627877E+03  0.94230631072E+03  0.96770393557E+03  0.16500000000E+03 0.  0.
<mgrwt>
<rscale>  0 0.50860241E+03</rscale>
<asrwt>0</asrwt>
<pdfrwt beam="1">  1        2 0.54558430E+00 0.50860241E+03</pdfrwt>
<pdfrwt beam="2">  1       -2 0.24190168E-02 0.50860241E+03</pdfrwt>
<totfact> 0.52658408E+02</totfact>
</mgrwt>
</event>
<event>
 4    1  0.3541639E-005  0.4130794E+03  0.7818608E-02  0.1039343E+00
         -2   -1    0    0    0  501 -0.00000000000E+00  0.00000000000E+00  0.41061416352E+02  0.41061416431E+02  0.25500000000E-02 0. -1.
          2   -1    0    0  501    0  0.00000000000E+00 -0.00000000000E+00 -0.10388983685E+04  0.10388983685E+04  0.25500000000E-02 0.  1.
    5000001    1    1    2    0    0  0.36586156424E+02  0.84715733392E+02 -0.28146070935E+03  0.33905815612E+03  0.16500000000E+03 0.  0.
   -5000001    1    1    2    0    0 -0.36586156424E+02 -0.84715733392E+02 -0.71637624276E+03  0.74090162877E+03  0.16500000000E+03 0.  0.
<mgrwt>
<rscale>  0 0.41307936E+03</rscale>
<asrwt>0</asrwt>
<pdfrwt beam="1">  1        2 0.14841404E+00 0.41307936E+03</pdfrwt>
<pdfrwt beam="2">  1       -2 0.58659173E-02 0.41307936E+03</pdfrwt>
<totfact> 0.42573629E+03</totfact>
</mgrwt>
</event>
<event>
 4    1  0.3541639E-005  0.4185233E+03  0.7818608E-02  0.1037548E+00
          2   -1    0    0  501    0  0.00000000000E+00  0.00000000000E+00  0.33905446318E+03  0.33905446319E+03  0.25500000000E-02 0.  1.
         -2   -1    0    0    0  501 -0.00000000000E+00 -0.00000000000E+00 -0.12915458430E+03  0.12915458433E+03  0.25500000000E-02 0. -1.
    5000001    1    1    2    0    0  0.11622846889E+03 -0.51586454765E+02  0.82709721145E+02  0.22413415016E+03  0.16500000000E+03 0.  0.
   -5000001    1    1    2    0    0 -0.11622846889E+03  0.51586454765E+02  0.12719015773E+03  0.24407489736E+03  0.16500000000E+03 0.  0.
<mgrwt>
<rscale>  0 0.41852330E+03</rscale>
<asrwt>0</asrwt>
<pdfrwt beam="1">  1        2 0.48436352E-01 0.41852330E+03</pdfrwt>
<pdfrwt beam="2">  1       -2 0.18450655E-01 0.41852330E+03</pdfrwt>
<totfact> 0.25235770E+03</totfact>
</mgrwt>
</event>
<event>
 4    1  0.3541639E-005  0.3789365E+03  0.7818608E-02  0.1051328E+00
         -2   -1    0    0    0  501 -0.00000000000E+00  0.00000000000E+00  0.13070033458E+03  0.13070033461E+03  0.25500000000E-02 0. -1.
          2   -1    0    0  501    0  0.00000000000E+00 -0.00000000000E+00 -0.27466049570E+03  0.27466049571E+03  0.25500000000E-02 0.  1.
    5000001    1    1    2    0    0 -0.52667254864E+02 -0.75972154261E+02 -0.59895851756E+02  0.19838881273E+03  0.16500000000E+03 0.  0.
   -5000001    1    1    2    0    0  0.52667254864E+02  0.75972154261E+02 -0.84064309357E+02  0.20697201759E+03  0.16500000000E+03 0.  0.
<mgrwt>
<rscale>  0 0.37893650E+03</rscale>
<asrwt>0</asrwt>
<pdfrwt beam="1">  1        2 0.39237213E-01 0.37893650E+03</pdfrwt>
<pdfrwt beam="2">  1       -2 0.18671476E-01 0.37893650E+03</pdfrwt>
<totfact> 0.31056911E+03</totfact>
</mgrwt>
</event>
<event>
 4    1  0.3541639E-005  0.4329585E+03  0.7818608E-02  0.1032929E+00
         -2   -1    0    0    0  501 -0.00000000000E+00  0.00000000000E+00  0.14671405782E+03  0.14671405784E+03  0.25500000000E-02 0. -1.
          2   -1    0    0  501    0  0.00000000000E+00 -0.00000000000E+00 -0.31941899038E+03  0.31941899039E+03  0.25500000000E-02 0.  1.
    5000001    1    1    2    0    0 -0.13705208013E+03  0.10335496952E+02 -0.11580083348E+03  0.24397731083E+03  0.16500000000E+03 0.  0.
   -5000001    1    1    2    0    0  0.13705208013E+03 -0.10335496952E+02 -0.56904099084E+02  0.22215573740E+03  0.16500000000E+03 0.  0.
<mgrwt>
<rscale>  0 0.43295846E+03</rscale>
<asrwt>0</asrwt>
<pdfrwt beam="1">  1        2 0.45631284E-01 0.43295846E+03</pdfrwt>
<pdfrwt beam="2">  1       -2 0.20959151E-01 0.43295846E+03</pdfrwt>
<totfact> 0.21627671E+03</totfact>
</mgrwt>
</event>
<event>
 4    1  0.3541639E-005  0.6046025E+03  0.7818608E-02  0.9895903E-01
         -2   -1    0    0    0  501 -0.00000000000E+00  0.00000000000E+00  0.33399909717E+03  0.33399909718E+03  0.25500000000E-02 0. -1.
          2   -1    0    0  501    0  0.00000000000E+00 -0.00000000000E+00 -0.27361161624E+03  0.27361161625E+03  0.25500000000E-02 0.  1.
    5000001    1    1    2    0    0  0.24060955317E+03  0.36402455011E+02  0.10084957859E+03  0.31082749767E+03  0.16500000000E+03 0.  0.
   -5000001    1    1    2    0    0 -0.24060955317E+03 -0.36402455011E+02 -0.40462097651E+02  0.29678321576E+03  0.16500000000E+03 0.  0.
<mgrwt>
<rscale>  0 0.60460246E+03</rscale>
<asrwt>0</asrwt>
<pdfrwt beam="1">  1        2 0.39087374E-01 0.60460246E+03</pdfrwt>
<pdfrwt beam="2">  1       -2 0.47714157E-01 0.60460246E+03</pdfrwt>
<totfact> 0.55412164E+02</totfact>
</mgrwt>
</event>
<event>
 4    1  0.3541639E-005  0.1150921E+04  0.7818608E-02  0.9156934E-01
          2   -1    0    0  501    0  0.00000000000E+00  0.00000000000E+00  0.17584139406E+04  0.17584139406E+04  0.25500000000E-02 0.  1.
         -2   -1    0    0    0  501 -0.00000000000E+00 -0.00000000000E+00 -0.18832594409E+03  0.18832594411E+03  0.25500000000E-02 0. -1.
    5000001    1    1    2    0    0  0.37982688279E+03  0.22691164947E+03  0.13413592230E+04  0.14220502532E+04  0.16500000000E+03 0.  0.
   -5000001    1    1    2    0    0 -0.37982688279E+03 -0.22691164947E+03  0.22872877350E+03  0.52468963148E+03  0.16500000000E+03 0.  0.
<mgrwt>
<rscale>  0 0.11509213E+04</rscale>
<asrwt>0</asrwt>
<pdfrwt beam="1">  1        2 0.25120199E+00 0.11509213E+04</pdfrwt>
<pdfrwt beam="2">  1       -2 0.26903706E-01 0.11509213E+04</pdfrwt>
<totfact> 0.13273156E+02</totfact>
</mgrwt>
</event>
<event>
 4    1  0.3541639E-005  0.4359356E+03  0.7818608E-02  0.1032001E+00
         -2   -1    0    0    0  501 -0.00000000000E+00  0.00000000000E+00  0.99130046816E+02  0.99130046849E+02  0.25500000000E-02 0. -1.
          2   -1    0    0  501    0  0.00000000000E+00 -0.00000000000E+00 -0.47926911882E+03  0.47926911883E+03  0.25500000000E-02 0.  1.
    5000001    1    1    2    0    0  0.66549407580E+01 -0.13408818237E+03 -0.12697968065E+03  0.24773527845E+03  0.16500000000E+03 0.  0.
   -5000001    1    1    2    0    0 -0.66549407580E+01  0.13408818237E+03 -0.25315939135E+03  0.33066388723E+03  0.16500000000E+03 0.  0.
<mgrwt>
<rscale>  0 0.43593564E+03</rscale>
<asrwt>0</asrwt>
<pdfrwt beam="1">  1        2 0.68467016E-01 0.43593564E+03</pdfrwt>
<pdfrwt beam="2">  1       -2 0.14161435E-01 0.43593564E+03</pdfrwt>
<totfact> 0.26925489E+03</totfact>
</mgrwt>
</event>
<event>
 4    1  0.3541639E-005  0.9747730E+03  0.7818608E-02  0.9336654E-01
         -2   -1    0    0    0  501 -0.00000000000E+00  0.00000000000E+00  0.11908926527E+04  0.11908926527E+04  0.25500000000E-02 0. -1.
          2   -1    0    0  501    0  0.00000000000E+00 -0.00000000000E+00 -0.19946854260E+03  0.19946854262E+03  0.25500000000E-02 0.  1.
    5000001    1    1    2    0    0  0.26945429505E+02 -0.32049788357E+03  0.29414050282E+02  0.36267773008E+03  0.16500000000E+03 0.  0.
   -5000001    1    1    2    0    0 -0.26945429505E+02  0.32049788357E+03  0.96201005981E+03  0.10276834652E+04  0.16500000000E+03 0.  0.
<mgrwt>
<rscale>  0 0.97477304E+03</rscale>
<asrwt>0</asrwt>
<pdfrwt beam="1">  1        2 0.28495505E-01 0.97477304E+03</pdfrwt>
<pdfrwt beam="2">  1       -2 0.17012753E+00 0.97477304E+03</pdfrwt>
<totfact> 0.40146986E+01</totfact>
</mgrwt>
</event>
<event>
 4    1  0.3541639E-005  0.4163021E+03  0.7818608E-02  0.1038277E+00
          2   -1    0    0  501    0  0.00000000000E+00  0.00000000000E+00  0.22939045310E+04  0.22939045310E+04  0.25500000000E-02 0.  1.
         -2   -1    0    0    0  501 -0.00000000000E+00 -0.00000000000E+00 -0.18887823073E+02  0.18887823245E+02  0.25500000000E-02 0. -1.
    5000001    1    1    2    0    0 -0.34268254507E+02 -0.12201761837E+03  0.11723141482E+04  0.11906334762E+04  0.16500000000E+03 0.  0.
   -5000001    1    1    2    0    0  0.34268254507E+02  0.12201761837E+03  0.11027025597E+04  0.11221588781E+04  0.16500000000E+03 0.  0.
<mgrwt>
<rscale>  0 0.41630212E+03</rscale>
<asrwt>0</asrwt>
<pdfrwt beam="1">  1        2 0.32770034E+00 0.41630212E+03</pdfrwt>
<pdfrwt beam="2">  1       -2 0.26982630E-02 0.41630212E+03</pdfrwt>
<totfact> 0.31276019E+03</totfact>
</mgrwt>
</event>
<event>
 4    1  0.3541639E-005  0.3688240E+03  0.7818608E-02  0.1055144E+00
          2   -1    0    0  501    0  0.00000000000E+00  0.00000000000E+00  0.50663385973E+03  0.50663385973E+03  0.25500000000E-02 0.  1.
         -2   -1    0    0    0  501 -0.00000000000E+00 -0.00000000000E+00 -0.67124976510E+02  0.67124976558E+02  0.25500000000E-02 0. -1.
    5000001    1    1    2    0    0 -0.48194523759E+02  0.64836179291E+02  0.19484743578E+03  0.26780023431E+03  0.16500000000E+03 0.  0.
   -5000001    1    1    2    0    0  0.48194523759E+02 -0.64836179291E+02  0.24466144744E+03  0.30595860198E+03  0.16500000000E+03 0.  0.
<mgrwt>
<rscale>  0 0.36882400E+03</rscale>
<asrwt>0</asrwt>
<pdfrwt beam="1">  1        2 0.72376268E-01 0.36882400E+03</pdfrwt>
<pdfrwt beam="2">  1       -2 0.95892820E-02 0.36882400E+03</pdfrwt>
<totfact> 0.47574326E+03</totfact>
</mgrwt>
</event>
<event>
 4    1  0.3541639E-005  0.3951840E+03  0.7818608E-02  0.1045460E+00
         -2   -1    0    0    0  501 -0.00000000000E+00  0.00000000000E+00  0.96998111594E+02  0.96998111628E+02  0.25500000000E-02 0. -1.
          2   -1    0    0  501    0  0.00000000000E+00 -0.00000000000E+00 -0.40250875261E+03  0.40250875261E+03  0.25500000000E-02 0.  1.
    5000001    1    1    2    0    0 -0.10024339194E+03 -0.38326916623E+02 -0.13086614077E+03  0.23636547329E+03  0.16500000000E+03 0.  0.
   -5000001    1    1    2    0    0  0.10024339194E+03  0.38326916623E+02 -0.17464450024E+03  0.26314139095E+03  0.16500000000E+03 0.  0.
<mgrwt>
<rscale>  0 0.39518395E+03</rscale>
<asrwt>0</asrwt>
<pdfrwt beam="1">  1        2 0.57501249E-01 0.39518395E+03</pdfrwt>
<pdfrwt beam="2">  1       -2 0.13856873E-01 0.39518395E+03</pdfrwt>
<totfact> 0.33809756E+03</totfact>
</mgrwt>
</event>
<event>
 4    1  0.3541639E-005  0.5454247E+03  0.7818608E-02  0.1002559E+00
         -2   -1    0    0    0  501 -0.00000000000E+00  0.00000000000E+00  0.47056522986E+02  0.47056523055E+02  0.25500000000E-02 0. -1.
          2   -1    0    0  501    0  0.00000000000E+00 -0.00000000000E+00 -0.15804825637E+04  0.15804825637E+04  0.25500000000E-02 0.  1.
    5000001    1    1    2    0    0  0.13619875253E+02 -0.20878026477E+03 -0.59342813843E+03  0.65050492346E+03  0.16500000000E+03 0.  0.
   -5000001    1    1    2    0    0 -0.13619875253E+02  0.20878026477E+03 -0.93999790230E+03  0.97703416331E+03  0.16500000000E+03 0.  0.
<mgrwt>
<rscale>  0 0.54542466E+03</rscale>
<asrwt>0</asrwt>
<pdfrwt beam="1">  1        2 0.22578319E+00 0.54542466E+03</pdfrwt>
<pdfrwt beam="2">  1       -2 0.67223614E-02 0.54542466E+03</pdfrwt>
<totfact> 0.17485041E+03</totfact>
</mgrwt>
</event>
<event>
 4    1  0.3541639E-005  0.5156551E+03  0.7818608E-02  0.1009772E+00
         -2   -1    0    0    0  501 -0.00000000000E+00  0.00000000000E+00  0.14804220380E+03  0.14804220382E+03  0.25500000000E-02 0. -1.
          2   -1    0    0  501    0  0.00000000000E+00 -0.00000000000E+00 -0.44902764778E+03  0.44902764779E+03  0.25500000000E-02 0.  1.
    5000001    1    1    2    0    0 -0.80437089624E+02  0.17625212752E+03 -0.19844521104E+03  0.32270797887E+03  0.16500000000E+03 0.  0.
   -5000001    1    1    2    0    0  0.80437089624E+02 -0.17625212752E+03 -0.10254023295E+03  0.27436187274E+03  0.16500000000E+03 0.  0.
<mgrwt>
<rscale>  0 0.51565509E+03</rscale>
<asrwt>0</asrwt>
<pdfrwt beam="1">  1        2 0.64146806E-01 0.51565509E+03</pdfrwt>
<pdfrwt beam="2">  1       -2 0.21148886E-01 0.51565509E+03</pdfrwt>
<totfact> 0.14647185E+03</totfact>
</mgrwt>
</event>
<event>
 4    1  0.3541639E-005  0.5668999E+03  0.7818608E-02  0.9976562E-01
         -2   -1    0    0    0  501 -0.00000000000E+00  0.00000000000E+00  0.78507002176E+02  0.78507002217E+02  0.25500000000E-02 0. -1.
          2   -1    0    0  501    0  0.00000000000E+00 -0.00000000000E+00 -0.10233973795E+04  0.10233973795E+04  0.25500000000E-02 0.  1.
    5000001    1    1    2    0    0  0.52696075070E+02 -0.21522598185E+03 -0.34920916732E+03  0.44527647830E+03  0.16500000000E+03 0.  0.
   -5000001    1    1    2    0    0 -0.52696075070E+02  0.21522598185E+03 -0.59568121000E+03  0.65662790342E+03  0.16500000000E+03 0.  0.
<mgrwt>
<rscale>  0 0.56689985E+03</rscale>
<asrwt>0</asrwt>
<pdfrwt beam="1">  1        2 0.14619962E+00 0.56689985E+03</pdfrwt>
<pdfrwt beam="2">  1       -2 0.11215287E-01 0.56689985E+03</pdfrwt>
<totfact> 0.15529053E+03</totfact>
</mgrwt>
</event>
<event>
 4    1  0.3541639E-005  0.4869491E+03  0.7818608E-02  0.1017243E+00
         -2   -1    0    0    0  501 -0.00000000000E+00  0.00000000000E+00  0.41706677771E+02  0.41706677849E+02  0.25500000000E-02 0. -1.
          2   -1    0    0  501    0  0.00000000000E+00 -0.00000000000E+00 -0.14213519424E+04  0.14213519424E+04  0.25500000000E-02 0.  1.
    5000001    1    1    2    0    0 -0.23237164329E+02  0.13066186824E+03 -0.32874758921E+03  0.39104023709E+03  0.16500000000E+03 0.  0.
   -5000001    1    1    2    0    0  0.23237164329E+02 -0.13066186824E+03 -0.10508976754E+04  0.10720183831E+04  0.16500000000E+03 0.  0.
<mgrwt>
<rscale>  0 0.48694915E+03</rscale>
<asrwt>0</asrwt>
<pdfrwt beam="1">  1        2 0.20305025E+00 0.48694915E+03</pdfrwt>
<pdfrwt beam="2">  1       -2 0.59580977E-02 0.48694915E+03</pdfrwt>
<totfact> 0.25575116E+03</totfact>
</mgrwt>
</event>
<event>
 4    1  0.3541639E-005  0.4398040E+03  0.7818608E-02  0.1030807E+00
         -2   -1    0    0    0  501 -0.00000000000E+00  0.00000000000E+00  0.71148050192E+02  0.71148050238E+02  0.25500000000E-02 0. -1.
          2   -1    0    0  501    0  0.00000000000E+00 -0.00000000000E+00 -0.67966584294E+03  0.67966584294E+03  0.25500000000E-02 0.  1.
    5000001    1    1    2    0    0  0.29529181197E+01  0.14406865975E+03 -0.27153663619E+03  0.34888628984E+03  0.16500000000E+03 0.  0.
   -5000001    1    1    2    0    0 -0.29529181197E+01 -0.14406865975E+03 -0.33698115656E+03  0.40192760334E+03  0.16500000000E+03 0.  0.
<mgrwt>
<rscale>  0 0.43980405E+03</rscale>
<asrwt>0</asrwt>
<pdfrwt beam="1">  1        2 0.97095117E-01 0.43980405E+03</pdfrwt>
<pdfrwt beam="2">  1       -2 0.10164008E-01 0.43980405E+03</pdfrwt>
<totfact> 0.30944760E+03</totfact>
</mgrwt>
</event>
<event>
 4    1  0.3541639E-005  0.3533620E+03  0.7818608E-02  0.1061244E+00
         -2   -1    0    0    0  501 -0.00000000000E+00  0.00000000000E+00  0.15184326809E+02  0.15184327023E+02  0.25500000000E-02 0. -1.
          2   -1    0    0  501    0  0.00000000000E+00 -0.00000000000E+00 -0.20558158111E+04  0.20558158111E+04  0.25500000000E-02 0.  1.
    5000001    1    1    2    0    0 -0.36457020529E+02 -0.43301181515E+02 -0.85589080643E+03  0.87348622153E+03  0.16500000000E+03 0.  0.
   -5000001    1    1    2    0    0  0.36457020529E+02  0.43301181515E+02 -0.11847406779E+04  0.11975139166E+04  0.16500000000E+03 0.  0.
<mgrwt>
<rscale>  0 0.35336202E+03</rscale>
<asrwt>0</asrwt>
<pdfrwt beam="1">  1        2 0.29368780E+00 0.35336202E+03</pdfrwt>
<pdfrwt beam="2">  1       -2 0.21691909E-02 0.35336202E+03</pdfrwt>
<totfact> 0.56930206E+03</totfact>
</mgrwt>
</event>
<event>
 4    1  0.3541639E-005  0.4013958E+03  0.7818608E-02  0.1043297E+00
          2   -1    0    0  501    0  0.00000000000E+00  0.00000000000E+00  0.84711444881E+03  0.84711444881E+03  0.25500000000E-02 0.  1.
         -2   -1    0    0    0  501 -0.00000000000E+00 -0.00000000000E+00 -0.47549240577E+02  0.47549240645E+02  0.25500000000E-02 0. -1.
    5000001    1    1    2    0    0 -0.74845225047E+02  0.71236107466E+02  0.29108587767E+03  0.35018906165E+03  0.16500000000E+03 0.  0.
   -5000001    1    1    2    0    0  0.74845225047E+02 -0.71236107466E+02  0.50847933056E+03  0.54447462781E+03  0.16500000000E+03 0.  0.
<mgrwt>
<rscale>  0 0.40139581E+03</rscale>
<asrwt>0</asrwt>
<pdfrwt beam="1">  1        2 0.12101635E+00 0.40139581E+03</pdfrwt>
<pdfrwt beam="2">  1       -2 0.67927489E-02 0.40139581E+03</pdfrwt>
<totfact> 0.44561410E+03</totfact>
</mgrwt>
</event>
<event>
 4    1  0.3541639E-005  0.4155443E+03  0.7818608E-02  0.1038526E+00
          2   -1    0    0  501    0  0.00000000000E+00  0.00000000000E+00  0.86979176897E+03  0.86979176898E+03  0.25500000000E-02 0.  1.
         -2   -1    0    0    0  501 -0.00000000000E+00 -0.00000000000E+00 -0.49631735523E+02  0.49631735588E+02  0.25500000000E-02 0. -1.
    5000001    1    1    2    0    0 -0.42266132036E+01  0.82093157192E+02  0.62215430880E+03  0.64888992493E+03  0.16500000000E+03 0.  0.
   -5000001    1    1    2    0    0  0.42266132036E+01 -0.82093157192E+02  0.19800572466E+03  0.27053357964E+03  0.16500000000E+03 0.  0.
<mgrwt>
<rscale>  0 0.41554434E+03</rscale>
<asrwt>0</asrwt>
<pdfrwt beam="1">  1        2 0.12425596E+00 0.41554434E+03</pdfrwt>
<pdfrwt beam="2">  1       -2 0.70902482E-02 0.41554434E+03</pdfrwt>
<totfact> 0.40290612E+03</totfact>
</mgrwt>
</event>
<event>
 4    1  0.3541639E-005  0.5981000E+03  0.7818608E-02  0.9909356E-01
         -2   -1    0    0    0  501 -0.00000000000E+00  0.00000000000E+00  0.17647385424E+03  0.17647385426E+03  0.25500000000E-02 0. -1.
          2   -1    0    0  501    0  0.00000000000E+00 -0.00000000000E+00 -0.50676567686E+03  0.50676567687E+03  0.25500000000E-02 0.  1.
    5000001    1    1    2    0    0 -0.24928870111E+03 -0.73066931089E+01 -0.16198675391E+03  0.34009256491E+03  0.16500000000E+03 0.  0.
   -5000001    1    1    2    0    0  0.24928870111E+03  0.73066931089E+01 -0.16830506871E+03  0.34314696622E+03  0.16500000000E+03 0.  0.
<mgrwt>
<rscale>  0 0.59809997E+03</rscale>
<asrwt>0</asrwt>
<pdfrwt beam="1">  1        2 0.72395096E-01 0.59809997E+03</pdfrwt>
<pdfrwt beam="2">  1       -2 0.25210551E-01 0.59809997E+03</pdfrwt>
<totfact> 0.93557338E+02</totfact>
</mgrwt>
</event>
<event>
 4    1  0.3541639E-005  0.4729701E+03  0.7818608E-02  0.1021085E+00
         -2   -1    0    0    0  501 -0.00000000000E+00  0.00000000000E+00  0.33017007948E+02  0.33017008047E+02  0.25500000000E-02 0. -1.
          2   -1    0    0  501    0  0.00000000000E+00 -0.00000000000E+00 -0.16938293707E+04  0.16938293707E+04  0.25500000000E-02 0.  1.
    5000001    1    1    2    0    0  0.10444752481E+03  0.57725958154E+02 -0.12694251004E+04  0.12856541748E+04  0.16500000000E+03 0.  0.
   -5000001    1    1    2    0    0 -0.10444752481E+03 -0.57725958154E+02 -0.39138726236E+03  0.44119220394E+03  0.16500000000E+03 0.  0.
<mgrwt>
<rscale>  0 0.47297010E+03</rscale>
<asrwt>0</asrwt>
<pdfrwt beam="1">  1        2 0.24197557E+00 0.47297010E+03</pdfrwt>
<pdfrwt beam="2">  1       -2 0.47167165E-02 0.47297010E+03</pdfrwt>
<totfact> 0.26616887E+03</totfact>
</mgrwt>
</event>
<event>
 4    1  0.3541639E-005  0.5828958E+03  0.7818608E-02  0.9941541E-01
          2   -1    0    0  501    0  0.00000000000E+00  0.00000000000E+00  0.23045504544E+04  0.23045504544E+04  0.25500000000E-02 0.  1.
         -2   -1    0    0    0  501 -0.00000000000E+00 -0.00000000000E+00 -0.36858330762E+02  0.36858330850E+02  0.25500000000E-02 0. -1.
    5000001    1    1    2    0    0 -0.19770755409E+03  0.71267374642E+02  0.66627349754E+03  0.71785283252E+03  0.16500000000E+03 0.  0.
   -5000001    1    1    2    0    0  0.19770755409E+03 -0.71267374642E+02  0.16014186261E+04  0.16235559527E+04  0.16500000000E+03 0.  0.
<mgrwt>
<rscale>  0 0.58289582E+03</rscale>
<asrwt>0</asrwt>
<pdfrwt beam="1">  1        2 0.32922154E+00 0.58289582E+03</pdfrwt>
<pdfrwt beam="2">  1       -2 0.52654751E-02 0.58289582E+03</pdfrwt>
<totfact> 0.11034004E+03</totfact>
</mgrwt>
</event>
<event>
 4    1  0.3541639E-005  0.4155161E+03  0.7818608E-02  0.1038536E+00
         -2   -1    0    0    0  501 -0.00000000000E+00  0.00000000000E+00  0.17804353927E+02  0.17804354110E+02  0.25500000000E-02 0. -1.
          2   -1    0    0  501    0  0.00000000000E+00 -0.00000000000E+00 -0.24243180013E+04  0.24243180013E+04  0.25500000000E-02 0.  1.
    5000001    1    1    2    0    0 -0.10637318939E+03 -0.17652521991E+01 -0.80376987518E+03  0.82739916834E+03  0.16500000000E+03 0.  0.
   -5000001    1    1    2    0    0  0.10637318939E+03  0.17652521991E+01 -0.16027437722E+04  0.16147231871E+04  0.16500000000E+03 0.  0.
<mgrwt>
<rscale>  0 0.41551614E+03</rscale>
<asrwt>0</asrwt>
<pdfrwt beam="1">  1        2 0.34633093E+00 0.41551614E+03</pdfrwt>
<pdfrwt beam="2">  1       -2 0.25434807E-02 0.41551614E+03</pdfrwt>
<totfact> 0.29397765E+03</totfact>
</mgrwt>
</event>
<event>
 4    1  0.3541639E-005  0.4387265E+03  0.7818608E-02  0.1031138E+00
          2   -1    0    0  501    0  0.00000000000E+00  0.00000000000E+00  0.65772281552E+03  0.65772281552E+03  0.25500000000E-02 0.  1.
         -2   -1    0    0    0  501 -0.00000000000E+00 -0.00000000000E+00 -0.73161869802E+02  0.73161869847E+02  0.25500000000E-02 0. -1.
    5000001    1    1    2    0    0  0.14013302878E+03  0.35464140754E+02  0.29143105060E+03  0.36476297549E+03  0.16500000000E+03 0.  0.
   -5000001    1    1    2    0    0 -0.14013302878E+03 -0.35464140754E+02  0.29312989512E+03  0.36612170988E+03  0.16500000000E+03 0.  0.
<mgrwt>
<rscale>  0 0.43872648E+03</rscale>
<asrwt>0</asrwt>
<pdfrwt beam="1">  1        2 0.93960401E-01 0.43872648E+03</pdfrwt>
<pdfrwt beam="2">  1       -2 0.10451696E-01 0.43872648E+03</pdfrwt>
<totfact> 0.30764447E+03</totfact>
</mgrwt>
</event>
<event>
 4    1  0.3541639E-005  0.5587139E+03  0.7818608E-02  0.9994969E-01
         -2   -1    0    0    0  501 -0.00000000000E+00  0.00000000000E+00  0.61117269792E+02  0.61117269845E+02  0.25500000000E-02 0. -1.
          2   -1    0    0  501    0  0.00000000000E+00 -0.00000000000E+00 -0.12768943789E+04  0.12768943789E+04  0.25500000000E-02 0.  1.
    5000001    1    1    2    0    0 -0.76330665790E+02 -0.16988271382E+03 -0.30375008970E+03  0.39265203933E+03  0.16500000000E+03 0.  0.
   -5000001    1    1    2    0    0  0.76330665790E+02  0.16988271382E+03 -0.91202701944E+03  0.94535960945E+03  0.16500000000E+03 0.  0.
<mgrwt>
<rscale>  0 0.55871387E+03</rscale>
<asrwt>0</asrwt>
<pdfrwt beam="1">  1        2 0.18241347E+00 0.55871387E+03</pdfrwt>
<pdfrwt beam="2">  1       -2 0.87310393E-02 0.55871387E+03</pdfrwt>
<totfact> 0.16691006E+03</totfact>
</mgrwt>
</event>
<event>
 4    1  0.3541639E-005  0.5810651E+03  0.7818608E-02  0.9945488E-01
          2   -1    0    0  501    0  0.00000000000E+00  0.00000000000E+00  0.11281238783E+04  0.11281238784E+04  0.25500000000E-02 0.  1.
         -2   -1    0    0    0  501 -0.00000000000E+00 -0.00000000000E+00 -0.74822592404E+02  0.74822592447E+02  0.25500000000E-02 0. -1.
    5000001    1    1    2    0    0  0.13828238878E+03  0.44684812416E+02  0.91980846603E+03  0.94572266849E+03  0.16500000000E+03 0.  0.
   -5000001    1    1    2    0    0 -0.13828238878E+03 -0.44684812416E+02  0.13349281991E+03  0.25722380231E+03  0.16500000000E+03 0.  0.
<mgrwt>
<rscale>  0 0.58106507E+03</rscale>
<asrwt>0</asrwt>
<pdfrwt beam="1">  1        2 0.16116056E+00 0.58106507E+03</pdfrwt>
<pdfrwt beam="2">  1       -2 0.10688942E-01 0.58106507E+03</pdfrwt>
<totfact> 0.14574566E+03</totfact>
</mgrwt>
</event>
<event>
 4    1  0.3541639E-005  0.3894858E+03  0.7818608E-02  0.1047482E+00
          2   -1    0    0  501    0  0.00000000000E+00  0.00000000000E+00  0.48186495488E+03  0.48186495489E+03  0.25500000000E-02 0.  1.
         -2   -1    0    0    0  501 -0.00000000000E+00 -0.00000000000E+00 -0.78704198553E+02  0.78704198594E+02  0.25500000000E-02 0. -1.
    5000001    1    1    2    0    0 -0.38679167701E+02 -0.95023598682E+02  0.22057814307E+03  0.29394774964E+03  0.16500000000E+03 0.  0.
   -5000001    1    1    2    0    0  0.38679167701E+02  0.95023598682E+02  0.18258261326E+03  0.26662140384E+03  0.16500000000E+03 0.  0.
<mgrwt>
<rscale>  0 0.38948579E+03</rscale>
<asrwt>0</asrwt>
<pdfrwt beam="1">  1        2 0.68837853E-01 0.38948579E+03</pdfrwt>
<pdfrwt beam="2">  1       -2 0.11243457E-01 0.38948579E+03</pdfrwt>
<totfact> 0.39002290E+03</totfact>
</mgrwt>
</event>
<event>
 4    1  0.3541639E-005  0.4106792E+03  0.7818608E-02  0.1040143E+00
         -2   -1    0    0    0  501 -0.00000000000E+00  0.00000000000E+00  0.18838539420E+02  0.18838539592E+02  0.25500000000E-02 0.  1.
          2   -1    0    0  501    0  0.00000000000E+00 -0.00000000000E+00 -0.22381966089E+04  0.22381966089E+04  0.25500000000E-02 0. -1.
    5000001    1    1    2    0    0  0.91857858759E+02 -0.77845172897E+02 -0.12251729272E+04  0.12420835072E+04  0.16500000000E+03 0.  0.
   -5000001    1    1    2    0    0 -0.91857858759E+02  0.77845172897E+02 -0.99418514220E+03  0.10149516413E+04  0.16500000000E+03 0.  0.
<mgrwt>
<rscale>  0 0.41067922E+03</rscale>
<asrwt>0</asrwt>
<pdfrwt beam="1">  1        2 0.31974220E+00 0.41067922E+03</pdfrwt>
<pdfrwt beam="2">  1       -2 0.26912213E-02 0.41067922E+03</pdfrwt>
<totfact> 0.33479427E+03</totfact>
</mgrwt>
</event>
<event>
 4    1  0.3541639E-005  0.4168174E+03  0.7818608E-02  0.1038107E+00
         -2   -1    0    0    0  501 -0.00000000000E+00  0.00000000000E+00  0.12768329256E+02  0.12768329511E+02  0.25500000000E-02 0. -1.
          2   -1    0    0  501    0  0.00000000000E+00 -0.00000000000E+00 -0.34017125221E+04  0.34017125221E+04  0.25500000000E-02 0.  1.
    5000001    1    1    2    0    0  0.11066568863E+03 -0.27070190904E+02 -0.21600005423E+04  0.21692872176E+04  0.16500000000E+03 0.  0.
   -5000001    1    1    2    0    0 -0.11066568863E+03  0.27070190904E+02 -0.12289436506E+04  0.12451936340E+04  0.16500000000E+03 0.  0.
<mgrwt>
<rscale>  0 0.41681740E+03</rscale>
<asrwt>0</asrwt>
<pdfrwt beam="1">  1        2 0.48595835E+00 0.41681740E+03</pdfrwt>
<pdfrwt beam="2">  1       -2 0.18240492E-02 0.41681740E+03</pdfrwt>
<totfact> 0.14515737E+03</totfact>
</mgrwt>
</event>
<event>
 4    1  0.3541639E-005  0.4983933E+03  0.7818608E-02  0.1014199E+00
          2   -1    0    0  501    0  0.00000000000E+00  0.00000000000E+00  0.12856826002E+04  0.12856826002E+04  0.25500000000E-02 0.  1.
         -2   -1    0    0    0  501 -0.00000000000E+00 -0.00000000000E+00 -0.48300391372E+02  0.48300391439E+02  0.25500000000E-02 0. -1.
    5000001    1    1    2    0    0 -0.17424763540E+03  0.10194178741E+02  0.44099018549E+03  0.50215884282E+03  0.16500000000E+03 0.  0.
   -5000001    1    1    2    0    0  0.17424763540E+03 -0.10194178741E+02  0.79639202331E+03  0.83182414879E+03  0.16500000000E+03 0.  0.
<mgrwt>
<rscale>  0 0.49839331E+03</rscale>
<asrwt>0</asrwt>
<pdfrwt beam="1">  1        2 0.18366891E+00 0.49839331E+03</pdfrwt>
<pdfrwt beam="2">  1       -2 0.69000570E-02 0.49839331E+03</pdfrwt>
<totfact> 0.24004772E+03</totfact>
</mgrwt>
</event>
<event>
 4    1  0.3541639E-005  0.1055448E+04  0.7818608E-02  0.9249738E-01
         -2   -1    0    0    0  501 -0.00000000000E+00  0.00000000000E+00  0.40551064130E+03  0.40551064131E+03  0.25500000000E-02 0.  1.
          2   -1    0    0  501    0  0.00000000000E+00 -0.00000000000E+00 -0.68676955799E+03  0.68676955799E+03  0.25500000000E-02 0. -1.
    5000001    1    1    2    0    0 -0.33474686675E+03  0.34337030140E+03 -0.29169877190E+03  0.58504000052E+03  0.16500000000E+03 0.  0.
   -5000001    1    1    2    0    0  0.33474686675E+03 -0.34337030140E+03  0.10439855207E+02  0.50724019878E+03  0.16500000000E+03 0.  0.
<mgrwt>
<rscale>  0 0.10554475E+04</rscale>
<asrwt>0</asrwt>
<pdfrwt beam="1">  1        2 0.98109937E-01 0.10554475E+04</pdfrwt>
<pdfrwt beam="2">  1       -2 0.57930092E-01 0.10554475E+04</pdfrwt>
<totfact> 0.12799409E+02</totfact>
</mgrwt>
</event>
<event>
 4    1  0.3541639E-005  0.4358568E+03  0.7818608E-02  0.1032026E+00
          2   -1    0    0  501    0  0.00000000000E+00  0.00000000000E+00  0.69541626687E+03  0.69541626687E+03  0.25500000000E-02 0.  1.
         -2   -1    0    0    0  501 -0.00000000000E+00 -0.00000000000E+00 -0.68294032928E+02  0.68294032976E+02  0.25500000000E-02 0. -1.
    5000001    1    1    2    0    0  0.11158906889E+03 -0.74871903828E+02  0.39593075327E+03  0.44949314084E+03  0.16500000000E+03 0.  0.
   -5000001    1    1    2    0    0 -0.11158906889E+03  0.74871903828E+02  0.23119148067E+03  0.31421715900E+03  0.16500000000E+03 0.  0.
<mgrwt>
<rscale>  0 0.43585677E+03</rscale>
<asrwt>0</asrwt>
<pdfrwt beam="1">  1        2 0.99345185E-01 0.43585677E+03</pdfrwt>
<pdfrwt beam="2">  1       -2 0.97562900E-02 0.43585677E+03</pdfrwt>
<totfact> 0.32148917E+03</totfact>
</mgrwt>
</event>
<event>
 4    1  0.3541639E-005  0.4934781E+03  0.7818608E-02  0.1015495E+00
          2   -1    0    0  501    0  0.00000000000E+00  0.00000000000E+00  0.15854981706E+04  0.15854981706E+04  0.25500000000E-02 0.  1.
         -2   -1    0    0    0  501 -0.00000000000E+00 -0.00000000000E+00 -0.38398125250E+02  0.38398125334E+02  0.25500000000E-02 0. -1.
    5000001    1    1    2    0    0  0.15889557792E+03 -0.84256946948E+02  0.89256843206E+03  0.92533801592E+03  0.16500000000E+03 0.  0.
   -5000001    1    1    2    0    0 -0.15889557792E+03  0.84256946948E+02  0.65453161331E+03  0.69855828004E+03  0.16500000000E+03 0.  0.
<mgrwt>
<rscale>  0 0.49347809E+03</rscale>
<asrwt>0</asrwt>
<pdfrwt beam="1">  1        2 0.22649972E+00 0.49347809E+03</pdfrwt>
<pdfrwt beam="2">  1       -2 0.54854470E-02 0.49347809E+03</pdfrwt>
<totfact> 0.23913732E+03</totfact>
</mgrwt>
</event>
<event>
 4    1  0.3541639E-005  0.4500743E+03  0.7818608E-02  0.1027700E+00
         -2   -1    0    0    0  501 -0.00000000000E+00  0.00000000000E+00  0.17336248556E+03  0.17336248557E+03  0.25500000000E-02 0. -1.
          2   -1    0    0  501    0  0.00000000000E+00 -0.00000000000E+00 -0.29211459600E+03  0.29211459601E+03  0.25500000000E-02 0.  1.
    5000001    1    1    2    0    0 -0.95331276406E+02 -0.13608109947E+02 -0.18237241230E+03  0.26411726503E+03  0.16500000000E+03 0.  0.
   -5000001    1    1    2    0    0  0.95331276406E+02  0.13608109947E+02  0.63620301853E+02  0.20135981656E+03  0.16500000000E+03 0.  0.
<mgrwt>
<rscale>  0 0.45007427E+03</rscale>
<asrwt>0</asrwt>
<pdfrwt beam="1">  1        2 0.41730656E-01 0.45007427E+03</pdfrwt>
<pdfrwt beam="2">  1       -2 0.24766069E-01 0.45007427E+03</pdfrwt>
<totfact> 0.17782879E+03</totfact>
</mgrwt>
</event>
<event>
 4    1  0.3541639E-005  0.5366775E+03  0.7818608E-02  0.1004625E+00
         -2   -1    0    0    0  501 -0.00000000000E+00  0.00000000000E+00  0.10394181809E+03  0.10394181812E+03  0.25500000000E-02 0. -1.
          2   -1    0    0  501    0  0.00000000000E+00 -0.00000000000E+00 -0.69274981370E+03  0.69274981370E+03  0.25500000000E-02 0.  1.
    5000001    1    1    2    0    0  0.12733496793E+03  0.15730793446E+03 -0.20264512462E+03  0.33052991821E+03  0.16500000000E+03 0.  0.
   -5000001    1    1    2    0    0 -0.12733496793E+03 -0.15730793446E+03 -0.38616287100E+03  0.46616171361E+03  0.16500000000E+03 0.  0.
<mgrwt>
<rscale>  0 0.53667746E+03</rscale>
<asrwt>0</asrwt>
<pdfrwt beam="1">  1        2 0.98964256E-01 0.53667746E+03</pdfrwt>
<pdfrwt beam="2">  1       -2 0.14848832E-01 0.53667746E+03</pdfrwt>
<totfact> 0.16238335E+03</totfact>
</mgrwt>
</event>
<event>
 4    1  0.3541639E-005  0.8090907E+03  0.7818608E-02  0.9546951E-01
         -2   -1    0    0    0  501 -0.00000000000E+00  0.00000000000E+00  0.22500382144E+03  0.22500382146E+03  0.25500000000E-02 0. -1.
          2   -1    0    0  501    0  0.00000000000E+00 -0.00000000000E+00 -0.72735181921E+03  0.72735181922E+03  0.25500000000E-02 0.  1.
    5000001    1    1    2    0    0 -0.30975800332E+03 -0.10613886214E+03 -0.49979663427E+02  0.37005194964E+03  0.16500000000E+03 0.  0.
   -5000001    1    1    2    0    0  0.30975800332E+03  0.10613886214E+03 -0.45236833434E+03  0.58230369103E+03  0.16500000000E+03 0.  0.
<mgrwt>
<rscale>  0 0.80909070E+03</rscale>
<asrwt>0</asrwt>
<pdfrwt beam="1">  1        2 0.10390740E+00 0.80909070E+03</pdfrwt>
<pdfrwt beam="2">  1       -2 0.32143403E-01 0.80909070E+03</pdfrwt>
<totfact> 0.38760743E+02</totfact>
</mgrwt>
</event>
<event>
 4    1  0.3541639E-005  0.5020344E+03  0.7818608E-02  0.1013249E+00
         -2   -1    0    0    0  501 -0.00000000000E+00  0.00000000000E+00  0.50816686851E+02  0.50816686915E+02  0.25500000000E-02 0. -1.
          2   -1    0    0  501    0  0.00000000000E+00 -0.00000000000E+00 -0.12399397210E+04  0.12399397210E+04  0.25500000000E-02 0.  1.
    5000001    1    1    2    0    0 -0.67462944947E+02 -0.15756666468E+03 -0.80034407716E+03  0.83495757054E+03  0.16500000000E+03 0.  0.
   -5000001    1    1    2    0    0  0.67462944947E+02  0.15756666468E+03 -0.38877895702E+03  0.45579883741E+03  0.16500000000E+03 0.  0.
<mgrwt>
<rscale>  0 0.50203438E+03</rscale>
<asrwt>0</asrwt>
<pdfrwt beam="1">  1        2 0.17713423E+00 0.50203438E+03</pdfrwt>
<pdfrwt beam="2">  1       -2 0.72595275E-02 0.50203438E+03</pdfrwt>
<totfact> 0.23470076E+03</totfact>
</mgrwt>
</event>
<event>
 4    1  0.3541639E-005  0.5879104E+03  0.7818608E-02  0.9930811E-01
          2   -1    0    0  501    0  0.00000000000E+00  0.00000000000E+00  0.69907977848E+03  0.69907977848E+03  0.25500000000E-02 0.  1.
         -2   -1    0    0    0  501 -0.00000000000E+00 -0.00000000000E+00 -0.12360485629E+03  0.12360485631E+03  0.25500000000E-02 0. -1.
    5000001    1    1    2    0    0  0.17323050652E+03  0.16570101910E+03  0.34575544698E+03  0.45192639361E+03  0.16500000000E+03 0.  0.
   -5000001    1    1    2    0    0 -0.17323050652E+03 -0.16570101910E+03  0.22971947521E+03  0.37075824119E+03  0.16500000000E+03 0.  0.
<mgrwt>
<rscale>  0 0.58791039E+03</rscale>
<asrwt>0</asrwt>
<pdfrwt beam="1">  1        2 0.99868538E-01 0.58791039E+03</pdfrwt>
<pdfrwt beam="2">  1       -2 0.17657837E-01 0.58791039E+03</pdfrwt>
<totfact> 0.11967513E+03</totfact>
</mgrwt>
</event>
<event>
 4    1  0.3541639E-005  0.3511008E+03  0.7818608E-02  0.1062164E+00
         -2   -1    0    0    0  501 -0.00000000000E+00  0.00000000000E+00  0.23968974573E+02  0.23968974709E+02  0.25500000000E-02 0. -1.
          2   -1    0    0  501    0  0.00000000000E+00 -0.00000000000E+00 -0.12857429555E+04  0.12857429555E+04  0.25500000000E-02 0.  1.
    5000001    1    1    2    0    0 -0.23880589297E+01 -0.57534330560E+02 -0.69297587737E+03  0.71467228058E+03  0.16500000000E+03 0.  0.
   -5000001    1    1    2    0    0  0.23880589297E+01  0.57534330560E+02 -0.56879810354E+03  0.59503964961E+03  0.16500000000E+03 0.  0.
<mgrwt>
<rscale>  0 0.35110078E+03</rscale>
<asrwt>0</asrwt>
<pdfrwt beam="1">  1        2 0.18367752E+00 0.35110078E+03</pdfrwt>
<pdfrwt beam="2">  1       -2 0.34241400E-02 0.35110078E+03</pdfrwt>
<totfact> 0.70320179E+03</totfact>
</mgrwt>
</event>
<event>
 4    1  0.3541639E-005  0.4397251E+03  0.7818608E-02  0.1030831E+00
          2   -1    0    0  501    0  0.00000000000E+00  0.00000000000E+00  0.16318633430E+03  0.16318633432E+03  0.25500000000E-02 0.  1.
         -2   -1    0    0    0  501 -0.00000000000E+00 -0.00000000000E+00 -0.29622303760E+03  0.29622303761E+03  0.25500000000E-02 0. -1.
    5000001    1    1    2    0    0 -0.73982044443E+02  0.48682926949E+02 -0.18687590151E+03  0.26455807083E+03  0.16500000000E+03 0.  0.
   -5000001    1    1    2    0    0  0.73982044443E+02 -0.48682926949E+02  0.53839198213E+02  0.19485130110E+03  0.16500000000E+03 0.  0.
<mgrwt>
<rscale>  0 0.43972515E+03</rscale>
<asrwt>0</asrwt>
<pdfrwt beam="1">  1        2 0.23312334E-01 0.43972515E+03</pdfrwt>
<pdfrwt beam="2">  1       -2 0.42317577E-01 0.43972515E+03</pdfrwt>
<totfact> 0.12546457E+03</totfact>
</mgrwt>
</event>
<event>
 4    1  0.3541639E-005  0.4879260E+03  0.7818608E-02  0.1016979E+00
          2   -1    0    0  501    0  0.00000000000E+00  0.00000000000E+00  0.98829605879E+03  0.98829605880E+03  0.25500000000E-02 0.  1.
         -2   -1    0    0    0  501 -0.00000000000E+00 -0.00000000000E+00 -0.60222784488E+02  0.60222784542E+02  0.25500000000E-02 0. -1.
    5000001    1    1    2    0    0 -0.10294753254E+01 -0.16454254079E+03  0.61926070559E+03  0.66165257427E+03  0.16500000000E+03 0.  0.
   -5000001    1    1    2    0    0  0.10294753254E+01  0.16454254079E+03  0.30881256872E+03  0.38686626907E+03  0.16500000000E+03 0.  0.
<mgrwt>
<rscale>  0 0.48792598E+03</rscale>
<asrwt>0</asrwt>
<pdfrwt beam="1">  1        2 0.14118515E+00 0.48792598E+03</pdfrwt>
<pdfrwt beam="2">  1       -2 0.86032550E-02 0.48792598E+03</pdfrwt>
<totfact> 0.25032122E+03</totfact>
</mgrwt>
</event>
<event>
 4    1  0.3541639E-005  0.7574761E+03  0.7818608E-02  0.9623694E-01
          2   -1    0    0  501    0  0.00000000000E+00  0.00000000000E+00  0.10373965728E+04  0.10373965728E+04  0.25500000000E-02 0.  1.
         -2   -1    0    0    0  501 -0.00000000000E+00 -0.00000000000E+00 -0.13827162306E+03  0.13827162308E+03  0.25500000000E-02 0. -1.
    5000001    1    1    2    0    0  0.17575952062E+03  0.29194846762E+03  0.46446501313E+03  0.59923122854E+03  0.16500000000E+03 0.  0.
   -5000001    1    1    2    0    0 -0.17575952062E+03 -0.29194846762E+03  0.43465993666E+03  0.57643696739E+03  0.16500000000E+03 0.  0.
<mgrwt>
<rscale>  0 0.75747609E+03</rscale>
<asrwt>0</asrwt>
<pdfrwt beam="1">  1        2 0.14819951E+00 0.75747609E+03</pdfrwt>
<pdfrwt beam="2">  1       -2 0.19753090E-01 0.75747609E+03</pdfrwt>
<totfact> 0.58308921E+02</totfact>
</mgrwt>
</event>
<event>
 4    1  0.3541639E-005  0.6544325E+03  0.7818608E-02  0.9798497E-01
          2   -1    0    0  501    0  0.00000000000E+00  0.00000000000E+00  0.29159200035E+04  0.29159200035E+04  0.25500000000E-02 0.  1.
         -2   -1    0    0    0  501 -0.00000000000E+00 -0.00000000000E+00 -0.36719273393E+02  0.36719273481E+02  0.25500000000E-02 0. -1.
    5000001    1    1    2    0    0  0.63593704312E+02  0.26139441703E+03  0.18296588734E+04  0.18566765452E+04  0.16500000000E+03 0.  0.
   -5000001    1    1    2    0    0 -0.63593704312E+02 -0.26139441703E+03  0.10495418567E+04  0.10959627318E+04  0.16500000000E+03 0.  0.
<mgrwt>
<rscale>  0 0.65443247E+03</rscale>
<asrwt>0</asrwt>
<pdfrwt beam="1">  1        2 0.41656007E+00 0.65443247E+03</pdfrwt>
<pdfrwt beam="2">  1       -2 0.52456096E-02 0.65443247E+03</pdfrwt>
<totfact> 0.53076534E+02</totfact>
</mgrwt>
</event>
<event>
 4    1  0.3541639E-005  0.6936258E+03  0.7818608E-02  0.9728196E-01
          2   -1    0    0  501    0  0.00000000000E+00  0.00000000000E+00  0.11499640769E+03  0.11499640772E+03  0.25500000000E-02 0.  1.
         -2   -1    0    0    0  501 -0.00000000000E+00 -0.00000000000E+00 -0.10459385099E+04  0.10459385099E+04  0.25500000000E-02 0. -1.
    5000001    1    1    2    0    0 -0.30300793535E+03  0.20429730274E+02 -0.41745576046E+03  0.54196447735E+03  0.16500000000E+03 0.  0.
   -5000001    1    1    2    0    0  0.30300793535E+03 -0.20429730274E+02 -0.51348634176E+03  0.61897044028E+03  0.16500000000E+03 0.  0.
<mgrwt>
<rscale>  0 0.69362575E+03</rscale>
<asrwt>0</asrwt>
<pdfrwt beam="1">  1        2 0.16428059E-01 0.69362575E+03</pdfrwt>
<pdfrwt beam="2">  1       -2 0.14941978E+00 0.69362575E+03</pdfrwt>
<totfact> 0.11019272E+02</totfact>
</mgrwt>
</event>
<event>
 4    1  0.3541639E-005  0.6954587E+03  0.7818608E-02  0.9725030E-01
          2   -1    0    0  501    0  0.00000000000E+00  0.00000000000E+00  0.59850460220E+03  0.59850460220E+03  0.25500000000E-02 0.  1.
         -2   -1    0    0    0  501 -0.00000000000E+00 -0.00000000000E+00 -0.20202971372E+03  0.20202971373E+03  0.25500000000E-02 0. -1.
    5000001    1    1    2    0    0  0.13797563766E+03  0.25894035606E+03  0.29860895798E+03  0.44997743762E+03  0.16500000000E+03 0.  0.
   -5000001    1    1    2    0    0 -0.13797563766E+03 -0.25894035606E+03  0.97865930501E+02  0.35055687832E+03  0.16500000000E+03 0.  0.
<mgrwt>
<rscale>  0 0.69545874E+03</rscale>
<asrwt>0</asrwt>
<pdfrwt beam="1">  1        2 0.85500657E-01 0.69545874E+03</pdfrwt>
<pdfrwt beam="2">  1       -2 0.28861388E-01 0.69545874E+03</pdfrwt>
<totfact> 0.60204132E+02</totfact>
</mgrwt>
</event>
<event>
 4    1  0.3541639E-005  0.6326004E+03  0.7818608E-02  0.9839987E-01
         -2   -1    0    0    0  501 -0.00000000000E+00  0.00000000000E+00  0.20322319599E+03  0.20322319601E+03  0.25500000000E-02 0. -1.
          2   -1    0    0  501    0  0.00000000000E+00 -0.00000000000E+00 -0.49229529865E+03  0.49229529866E+03  0.25500000000E-02 0.  1.
    5000001    1    1    2    0    0  0.23959009937E+03  0.17580186471E+02 -0.93948872539E+01  0.29159173956E+03  0.16500000000E+03 0.  0.
   -5000001    1    1    2    0    0 -0.23959009937E+03 -0.17580186471E+02 -0.27967721540E+03  0.40392675510E+03  0.16500000000E+03 0.  0.
<mgrwt>
<rscale>  0 0.63260042E+03</rscale>
<asrwt>0</asrwt>
<pdfrwt beam="1">  1        2 0.70327899E-01 0.63260042E+03</pdfrwt>
<pdfrwt beam="2">  1       -2 0.29031885E-01 0.63260042E+03</pdfrwt>
<totfact> 0.74771243E+02</totfact>
</mgrwt>
</event>
<event>
 4    1  0.3541639E-005  0.5646028E+03  0.7818608E-02  0.9981694E-01
         -2   -1    0    0    0  501 -0.00000000000E+00  0.00000000000E+00  0.13366089670E+03  0.13366089673E+03  0.25500000000E-02 0. -1.
          2   -1    0    0  501    0  0.00000000000E+00 -0.00000000000E+00 -0.59624077190E+03  0.59624077191E+03  0.25500000000E-02 0.  1.
    5000001    1    1    2    0    0  0.17981053343E+02 -0.21923716616E+03 -0.14870607045E+03  0.31261277756E+03  0.16500000000E+03 0.  0.
   -5000001    1    1    2    0    0 -0.17981053343E+02  0.21923716616E+03 -0.31387380475E+03  0.41728889108E+03  0.16500000000E+03 0.  0.
<mgrwt>
<rscale>  0 0.56460279E+03</rscale>
<asrwt>0</asrwt>
<pdfrwt beam="1">  1        2 0.85177251E-01 0.56460279E+03</pdfrwt>
<pdfrwt beam="2">  1       -2 0.19094414E-01 0.56460279E+03</pdfrwt>
<totfact> 0.12655866E+03</totfact>
</mgrwt>
</event>
<event>
 4    1  0.3541639E-005  0.4352905E+03  0.7818608E-02  0.1032202E+00
          2   -1    0    0  501    0  0.00000000000E+00  0.00000000000E+00  0.16339071043E+03  0.16339071045E+03  0.25500000000E-02 0.  1.
         -2   -1    0    0    0  501 -0.00000000000E+00 -0.00000000000E+00 -0.28991528677E+03  0.28991528678E+03  0.25500000000E-02 0. -1.
    5000001    1    1    2    0    0 -0.60734073728E+02 -0.57250400394E+02 -0.18280985727E+03  0.26002053760E+03  0.16500000000E+03 0.  0.
   -5000001    1    1    2    0    0  0.60734073728E+02  0.57250400394E+02  0.56285280937E+02  0.19328545964E+03  0.16500000000E+03 0.  0.
<mgrwt>
<rscale>  0 0.43529055E+03</rscale>
<asrwt>0</asrwt>
<pdfrwt beam="1">  1        2 0.23341530E-01 0.43529055E+03</pdfrwt>
<pdfrwt beam="2">  1       -2 0.41416469E-01 0.43529055E+03</pdfrwt>
<totfact> 0.13063416E+03</totfact>
</mgrwt>
</event>
<event>
 4    1  0.3541639E-005  0.3989254E+03  0.7818608E-02  0.1044152E+00
         -2   -1    0    0    0  501 -0.00000000000E+00  0.00000000000E+00  0.17036795330E+02  0.17036795521E+02  0.25500000000E-02 0. -1.
          2   -1    0    0  501    0  0.00000000000E+00 -0.00000000000E+00 -0.23352609707E+04  0.23352609707E+04  0.25500000000E-02 0.  1.
    5000001    1    1    2    0    0  0.34930529739E+01  0.10950661751E+03 -0.10200147953E+04  0.10390664480E+04  0.16500000000E+03 0.  0.
   -5000001    1    1    2    0    0 -0.34930529739E+01 -0.10950661751E+03 -0.12982093801E+04  0.13132313182E+04  0.16500000000E+03 0.  0.
<mgrwt>
<rscale>  0 0.39892537E+03</rscale>
<asrwt>0</asrwt>
<pdfrwt beam="1">  1        2 0.33360851E+00 0.39892537E+03</pdfrwt>
<pdfrwt beam="2">  1       -2 0.24338294E-02 0.39892537E+03</pdfrwt>
<totfact> 0.34829900E+03</totfact>
</mgrwt>
</event>
<event>
 4    1  0.3541639E-005  0.5700951E+03  0.7818608E-02  0.9969468E-01
          2   -1    0    0  501    0  0.00000000000E+00  0.00000000000E+00  0.19902933359E+03  0.19902933361E+03  0.25500000000E-02 0.  1.
         -2   -1    0    0    0  501 -0.00000000000E+00 -0.00000000000E+00 -0.40824180943E+03  0.40824180943E+03  0.25500000000E-02 0. -1.
    5000001    1    1    2    0    0 -0.17462571356E+03 -0.15153443504E+03 -0.79168657790E+02  0.29487200820E+03  0.16500000000E+03 0.  0.
   -5000001    1    1    2    0    0  0.17462571356E+03  0.15153443504E+03 -0.13004381805E+03  0.31239913485E+03  0.16500000000E+03 0.  0.
<mgrwt>
<rscale>  0 0.57009506E+03</rscale>
<asrwt>0</asrwt>
<pdfrwt beam="1">  1        2 0.28432762E-01 0.57009506E+03</pdfrwt>
<pdfrwt beam="2">  1       -2 0.58320258E-01 0.57009506E+03</pdfrwt>
<totfact> 0.52428966E+02</totfact>
</mgrwt>
</event>
<event>
 4    1  0.3541639E-005  0.5027868E+03  0.7818608E-02  0.1013054E+00
         -2   -1    0    0    0  501 -0.00000000000E+00  0.00000000000E+00  0.11955019768E+03  0.11955019771E+03  0.25500000000E-02 0. -1.
          2   -1    0    0  501    0  0.00000000000E+00 -0.00000000000E+00 -0.52863679910E+03  0.52863679911E+03  0.25500000000E-02 0.  1.
    5000001    1    1    2    0    0  0.94929229520E+02 -0.15476927340E+03 -0.27525558894E+03  0.36872174583E+03  0.16500000000E+03 0.  0.
   -5000001    1    1    2    0    0 -0.94929229520E+02  0.15476927340E+03 -0.13383101248E+03  0.27946525099E+03  0.16500000000E+03 0.  0.
<mgrwt>
<rscale>  0 0.50278677E+03</rscale>
<asrwt>0</asrwt>
<pdfrwt beam="1">  1        2 0.75519541E-01 0.50278677E+03</pdfrwt>
<pdfrwt beam="2">  1       -2 0.17078600E-01 0.50278677E+03</pdfrwt>
<totfact> 0.17613183E+03</totfact>
</mgrwt>
</event>
<event>
 4    1  0.3541639E-005  0.5389259E+03  0.7818608E-02  0.1004090E+00
         -2   -1    0    0    0  501 -0.00000000000E+00  0.00000000000E+00  0.12601047558E+03  0.12601047561E+03  0.25500000000E-02 0. -1.
          2   -1    0    0  501    0  0.00000000000E+00 -0.00000000000E+00 -0.57622425150E+03  0.57622425150E+03  0.25500000000E-02 0.  1.
    5000001    1    1    2    0    0  0.53230544533E+02  0.15957412409E+03 -0.39543940440E+03  0.46032023039E+03  0.16500000000E+03 0.  0.
   -5000001    1    1    2    0    0 -0.53230544533E+02 -0.15957412409E+03 -0.54774371511E+02  0.24191449672E+03  0.16500000000E+03 0.  0.
<mgrwt>
<rscale>  0 0.53892594E+03</rscale>
<asrwt>0</asrwt>
<pdfrwt beam="1">  1        2 0.82317749E-01 0.53892594E+03</pdfrwt>
<pdfrwt beam="2">  1       -2 0.18001497E-01 0.53892594E+03</pdfrwt>
<totfact> 0.14578765E+03</totfact>
</mgrwt>
</event>
<event>
 4    1  0.3541639E-005  0.4679006E+03  0.7818608E-02  0.1022514E+00
         -2   -1    0    0    0  501 -0.00000000000E+00  0.00000000000E+00  0.17183028581E+03  0.17183028583E+03  0.25500000000E-02 0. -1.
          2   -1    0    0  501    0  0.00000000000E+00 -0.00000000000E+00 -0.31852792256E+03  0.31852792257E+03  0.25500000000E-02 0.  1.
    5000001    1    1    2    0    0  0.11840607710E+03 -0.80435353149E+02  0.14444890284E+02  0.21891436679E+03  0.16500000000E+03 0.  0.
   -5000001    1    1    2    0    0 -0.11840607710E+03  0.80435353149E+02 -0.16114252703E+03  0.27144384161E+03  0.16500000000E+03 0.  0.
<mgrwt>
<rscale>  0 0.46790060E+03</rscale>
<asrwt>0</asrwt>
<pdfrwt beam="1">  1        2 0.45503989E-01 0.46790060E+03</pdfrwt>
<pdfrwt beam="2">  1       -2 0.24547184E-01 0.46790060E+03</pdfrwt>
<totfact> 0.16438227E+03</totfact>
</mgrwt>
</event>
<event>
 4    1  0.3541639E-005  0.4471846E+03  0.7818608E-02  0.1028565E+00
         -2   -1    0    0    0  501 -0.00000000000E+00  0.00000000000E+00  0.74557202135E+02  0.74557202179E+02  0.25500000000E-02 0. -1.
          2   -1    0    0  501    0  0.00000000000E+00 -0.00000000000E+00 -0.67053897703E+03  0.67053897703E+03  0.25500000000E-02 0.  1.
    5000001    1    1    2    0    0 -0.37107226514E+02  0.14392237089E+03 -0.34137324370E+03  0.40724843354E+03  0.16500000000E+03 0.  0.
   -5000001    1    1    2    0    0  0.37107226514E+02 -0.14392237089E+03 -0.25460853119E+03  0.33784774567E+03  0.16500000000E+03 0.  0.
<mgrwt>
<rscale>  0 0.44718457E+03</rscale>
<asrwt>0</asrwt>
<pdfrwt beam="1">  1        2 0.95791279E-01 0.44718457E+03</pdfrwt>
<pdfrwt beam="2">  1       -2 0.10651029E-01 0.44718457E+03</pdfrwt>
<totfact> 0.29166039E+03</totfact>
</mgrwt>
</event>
<event>
 4    1  0.3541639E-005  0.5177179E+03  0.7818608E-02  0.1009255E+00
         -2   -1    0    0    0  501 -0.00000000000E+00  0.00000000000E+00  0.34468371325E+03  0.34468371326E+03  0.25500000000E-02 0. -1.
          2   -1    0    0  501    0  0.00000000000E+00 -0.00000000000E+00 -0.19440421574E+03  0.19440421576E+03  0.25500000000E-02 0.  1.
    5000001    1    1    2    0    0  0.10078366722E+03 -0.71803987636E+02  0.23802496198E+03  0.31495085767E+03  0.16500000000E+03 0.  0.
   -5000001    1    1    2    0    0 -0.10078366722E+03  0.71803987636E+02 -0.87745464473E+02  0.22413707135E+03  0.16500000000E+03 0.  0.
<mgrwt>
<rscale>  0 0.51771794E+03</rscale>
<asrwt>0</asrwt>
<pdfrwt beam="1">  1        2 0.27772031E-01 0.51771794E+03</pdfrwt>
<pdfrwt beam="2">  1       -2 0.49240530E-01 0.51771794E+03</pdfrwt>
<totfact> 0.76216624E+02</totfact>
</mgrwt>
</event>
<event>
 4    1  0.3541639E-005  0.5525869E+03  0.7818608E-02  0.1000897E+00
         -2   -1    0    0    0  501 -0.00000000000E+00  0.00000000000E+00  0.39971959175E+02  0.39971959256E+02  0.25500000000E-02 0. -1.
          2   -1    0    0  501    0  0.00000000000E+00 -0.00000000000E+00 -0.19097903900E+04  0.19097903900E+04  0.25500000000E-02 0.  1.
    5000001    1    1    2    0    0 -0.18700078368E+03  0.83604232057E+02 -0.63646806554E+03  0.68867667244E+03  0.16500000000E+03 0.  0.
   -5000001    1    1    2    0    0  0.18700078368E+03 -0.83604232057E+02 -0.12333503653E+04  0.12610856768E+04  0.16500000000E+03 0.  0.
<mgrwt>
<rscale>  0 0.55258687E+03</rscale>
<asrwt>0</asrwt>
<pdfrwt beam="1">  1        2 0.27282714E+00 0.55258687E+03</pdfrwt>
<pdfrwt beam="2">  1       -2 0.57102811E-02 0.55258687E+03</pdfrwt>
<totfact> 0.15378147E+03</totfact>
</mgrwt>
</event>
<event>
 4    1  0.3541639E-005  0.3587321E+03  0.7818608E-02  0.1059087E+00
          2   -1    0    0  501    0  0.00000000000E+00  0.00000000000E+00  0.15125309028E+04  0.15125309028E+04  0.25500000000E-02 0.  1.
         -2   -1    0    0    0  501 -0.00000000000E+00 -0.00000000000E+00 -0.21270423309E+02  0.21270423461E+02  0.25500000000E-02 0. -1.
    5000001    1    1    2    0    0  0.57533301652E+01 -0.65671548648E+02  0.64078430637E+03  0.66496269099E+03  0.16500000000E+03 0.  0.
   -5000001    1    1    2    0    0 -0.57533301652E+01  0.65671548648E+02  0.85047617316E+03  0.86883863532E+03  0.16500000000E+03 0.  0.
<mgrwt>
<rscale>  0 0.35873206E+03</rscale>
<asrwt>0</asrwt>
<pdfrwt beam="1">  1        2 0.21607590E+00 0.35873206E+03</pdfrwt>
<pdfrwt beam="2">  1       -2 0.30386312E-02 0.35873206E+03</pdfrwt>
<totfact> 0.64131448E+03</totfact>
</mgrwt>
</event>
<event>
 4    1  0.3541639E-005  0.9191287E+03  0.7818608E-02  0.9401981E-01
          2   -1    0    0  501    0  0.00000000000E+00  0.00000000000E+00  0.10109082537E+04  0.10109082537E+04  0.25500000000E-02 0.  1.
         -2   -1    0    0    0  501 -0.00000000000E+00 -0.00000000000E+00 -0.20892042877E+03  0.20892042879E+03  0.25500000000E-02 0. -1.
    5000001    1    1    2    0    0  0.84764240444E+02  0.35524594120E+03  0.10248747370E+03  0.41365847926E+03  0.16500000000E+03 0.  0.
   -5000001    1    1    2    0    0 -0.84764240444E+02 -0.35524594120E+03  0.69950035118E+03  0.80617020318E+03  0.16500000000E+03 0.  0.
<mgrwt>
<rscale>  0 0.91912869E+03</rscale>
<asrwt>0</asrwt>
<pdfrwt beam="1">  1        2 0.14441546E+00 0.91912869E+03</pdfrwt>
<pdfrwt beam="2">  1       -2 0.29845776E-01 0.91912869E+03</pdfrwt>
<totfact> 0.28596280E+02</totfact>
</mgrwt>
</event>
<event>
 4    1  0.3541639E-005  0.5237749E+03  0.7818608E-02  0.1007753E+00
         -2   -1    0    0    0  501 -0.00000000000E+00  0.00000000000E+00  0.12748604402E+04  0.12748604402E+04  0.25500000000E-02 0. -1.
          2   -1    0    0  501    0  0.00000000000E+00 -0.00000000000E+00 -0.53798069653E+02  0.53798069714E+02  0.25500000000E-02 0.  1.
    5000001    1    1    2    0    0  0.67547404700E+02  0.18805636536E+03  0.70653044193E+03  0.75255439259E+03  0.16500000000E+03 0.  0.
   -5000001    1    1    2    0    0 -0.67547404700E+02 -0.18805636536E+03  0.51453192865E+03  0.57610411736E+03  0.16500000000E+03 0.  0.
<mgrwt>
<rscale>  0 0.52377488E+03</rscale>
<asrwt>0</asrwt>
<pdfrwt beam="1">  1        2 0.76854383E-02 0.52377488E+03</pdfrwt>
<pdfrwt beam="2">  1       -2 0.18212292E+00 0.52377488E+03</pdfrwt>
<totfact> 0.16752069E+02</totfact>
</mgrwt>
</event>
<event>
 4    1  0.3541639E-005  0.4977779E+03  0.7818608E-02  0.1014361E+00
         -2   -1    0    0    0  501 -0.00000000000E+00  0.00000000000E+00  0.26093677814E+04  0.26093677814E+04  0.25500000000E-02 0. -1.
          2   -1    0    0  501    0  0.00000000000E+00 -0.00000000000E+00 -0.23739737271E+02  0.23739737408E+02  0.25500000000E-02 0.  1.
    5000001    1    1    2    0    0  0.88227913370E+00 -0.63988700425E+02  0.22185213300E+04  0.22255689663E+04  0.16500000000E+03 0.  0.
   -5000001    1    1    2    0    0 -0.88227913370E+00  0.63988700425E+02  0.36710671407E+03  0.40753855243E+03  0.16500000000E+03 0.  0.
<mgrwt>
<rscale>  0 0.49777789E+03</rscale>
<asrwt>0</asrwt>
<pdfrwt beam="1">  1        2 0.33913936E-02 0.49777789E+03</pdfrwt>
<pdfrwt beam="2">  1       -2 0.37276655E+00 0.49777789E+03</pdfrwt>
<totfact> 0.34260164E+01</totfact>
</mgrwt>
</event>
<event>
 4    1  0.3541639E-005  0.6951377E+03  0.7818608E-02  0.9725584E-01
         -2   -1    0    0    0  501 -0.00000000000E+00  0.00000000000E+00  0.22233692288E+03  0.22233692289E+03  0.25500000000E-02 0.  1.
          2   -1    0    0  501    0  0.00000000000E+00 -0.00000000000E+00 -0.54333804331E+03  0.54333804331E+03  0.25500000000E-02 0. -1.
    5000001    1    1    2    0    0 -0.30059424776E+03 -0.41503973204E+02 -0.11784602302E+03  0.36495502013E+03  0.16500000000E+03 0.  0.
   -5000001    1    1    2    0    0  0.30059424776E+03  0.41503973204E+02 -0.20315509741E+03  0.40071994607E+03  0.16500000000E+03 0.  0.
<mgrwt>
<rscale>  0 0.69513771E+03</rscale>
<asrwt>0</asrwt>
<pdfrwt beam="1">  1        2 0.77619720E-01 0.69513771E+03</pdfrwt>
<pdfrwt beam="2">  1       -2 0.31762418E-01 0.69513771E+03</pdfrwt>
<totfact> 0.56441242E+02</totfact>
</mgrwt>
</event>
<event>
 4    1  0.3541639E-005  0.4455528E+03  0.7818608E-02  0.1029057E+00
         -2   -1    0    0    0  501 -0.00000000000E+00  0.00000000000E+00  0.22124529699E+02  0.22124529846E+02  0.25500000000E-02 0. -1.
          2   -1    0    0  501    0  0.00000000000E+00 -0.00000000000E+00 -0.22431813395E+04  0.22431813395E+04  0.25500000000E-02 0.  1.
    5000001    1    1    2    0    0 -0.10570167938E+03 -0.91111937960E+02 -0.83531536144E+03  0.86281572964E+03  0.16500000000E+03 0.  0.
   -5000001    1    1    2    0    0  0.10570167938E+03  0.91111937960E+02 -0.13857414484E+04  0.14024901397E+04  0.16500000000E+03 0.  0.
<mgrwt>
<rscale>  0 0.44555284E+03</rscale>
<asrwt>0</asrwt>
<pdfrwt beam="1">  1        2 0.32045433E+00 0.44555284E+03</pdfrwt>
<pdfrwt beam="2">  1       -2 0.31606485E-02 0.44555284E+03</pdfrwt>
<totfact> 0.26093482E+03</totfact>
</mgrwt>
</event>
<event>
 4    1  0.3541639E-005  0.3895103E+03  0.7818608E-02  0.1047474E+00
         -2   -1    0    0    0  501 -0.00000000000E+00  0.00000000000E+00  0.49206258337E+02  0.49206258403E+02  0.25500000000E-02 0. -1.
          2   -1    0    0  501    0  0.00000000000E+00 -0.00000000000E+00 -0.77082825007E+03  0.77082825007E+03  0.25500000000E-02 0.  1.
    5000001    1    1    2    0    0 -0.24558624137E+02  0.99704648424E+02 -0.33414502323E+03  0.38655147068E+03  0.16500000000E+03 0.  0.
   -5000001    1    1    2    0    0  0.24558624137E+02 -0.99704648424E+02 -0.38747696850E+03  0.43348303779E+03  0.16500000000E+03 0.  0.
<mgrwt>
<rscale>  0 0.38951033E+03</rscale>
<asrwt>0</asrwt>
<pdfrwt beam="1">  1        2 0.11011831E+00 0.38951033E+03</pdfrwt>
<pdfrwt beam="2">  1       -2 0.70294660E-02 0.38951033E+03</pdfrwt>
<totfact> 0.47557885E+03</totfact>
</mgrwt>
</event>
<event>
 4    1  0.3541639E-005  0.6458032E+03  0.7818608E-02  0.9814686E-01
         -2   -1    0    0    0  501 -0.00000000000E+00  0.00000000000E+00  0.18127221375E+03  0.18127221377E+03  0.25500000000E-02 0. -1.
          2   -1    0    0  501    0  0.00000000000E+00 -0.00000000000E+00 -0.57518705509E+03  0.57518705509E+03  0.25500000000E-02 0.  1.
    5000001    1    1    2    0    0  0.79283674402E+02  0.16164726785E+03 -0.44439917771E+03  0.50708122562E+03  0.16500000000E+03 0.  0.
   -5000001    1    1    2    0    0 -0.79283674402E+02 -0.16164726785E+03  0.50484336372E+02  0.24937804324E+03  0.16500000000E+03 0.  0.
<mgrwt>
<rscale>  0 0.64580316E+03</rscale>
<asrwt>0</asrwt>
<pdfrwt beam="1">  1        2 0.82169579E-01 0.64580316E+03</pdfrwt>
<pdfrwt beam="2">  1       -2 0.25896031E-01 0.64580316E+03</pdfrwt>
<totfact> 0.76959363E+02</totfact>
</mgrwt>
</event>
<event>
 4    1  0.3541639E-005  0.4451924E+03  0.7818608E-02  0.1029165E+00
         -2   -1    0    0    0  501 -0.00000000000E+00  0.00000000000E+00  0.20209105508E+02  0.20209105669E+02  0.25500000000E-02 0. -1.
          2   -1    0    0  501    0  0.00000000000E+00 -0.00000000000E+00 -0.24518184600E+04  0.24518184600E+04  0.25500000000E-02 0.  1.
    5000001    1    1    2    0    0 -0.12665657840E+03  0.18090193675E+02 -0.78731203834E+03  0.81452709573E+03  0.16500000000E+03 0.  0.
   -5000001    1    1    2    0    0  0.12665657840E+03 -0.18090193675E+02 -0.16442973162E+04  0.16575004699E+04  0.16500000000E+03 0.  0.
<mgrwt>
<rscale>  0 0.44519235E+03</rscale>
<asrwt>0</asrwt>
<pdfrwt beam="1">  1        2 0.35025959E+00 0.44519235E+03</pdfrwt>
<pdfrwt beam="2">  1       -2 0.28870166E-02 0.44519235E+03</pdfrwt>
<totfact> 0.23501355E+03</totfact>
</mgrwt>
</event>
<event>
 4    1  0.3541639E-005  0.4555658E+03  0.7818608E-02  0.1026075E+00
          2   -1    0    0  501    0  0.00000000000E+00  0.00000000000E+00  0.10653515799E+04  0.10653515799E+04  0.25500000000E-02 0.  1.
         -2   -1    0    0    0  501 -0.00000000000E+00 -0.00000000000E+00 -0.48702272730E+02  0.48702272797E+02  0.25500000000E-02 0. -1.
    5000001    1    1    2    0    0  0.12929258464E+03 -0.65215615338E+02  0.65688109367E+03  0.69259470121E+03  0.16500000000E+03 0.  0.
   -5000001    1    1    2    0    0 -0.12929258464E+03  0.65215615338E+02  0.35976821349E+03  0.42145915148E+03  0.16500000000E+03 0.  0.
<mgrwt>
<rscale>  0 0.45556577E+03</rscale>
<asrwt>0</asrwt>
<pdfrwt beam="1">  1        2 0.15219308E+00 0.45556577E+03</pdfrwt>
<pdfrwt beam="2">  1       -2 0.69574675E-02 0.45556577E+03</pdfrwt>
<totfact> 0.31501617E+03</totfact>
</mgrwt>
</event>
<event>
 4    1  0.3541639E-005  0.4564030E+03  0.7818608E-02  0.1025830E+00
         -2   -1    0    0    0  501 -0.00000000000E+00  0.00000000000E+00  0.17758862679E+03  0.17758862681E+03  0.25500000000E-02 0. -1.
          2   -1    0    0  501    0  0.00000000000E+00 -0.00000000000E+00 -0.29323903758E+03  0.29323903759E+03  0.25500000000E-02 0.  1.
    5000001    1    1    2    0    0 -0.10684725906E+03 -0.11150391218E+03 -0.25179199435E+02  0.22739492361E+03  0.16500000000E+03 0.  0.
   -5000001    1    1    2    0    0  0.10684725906E+03  0.11150391218E+03 -0.90471211353E+02  0.24343274078E+03  0.16500000000E+03 0.  0.
<mgrwt>
<rscale>  0 0.45640297E+03</rscale>
<asrwt>0</asrwt>
<pdfrwt beam="1">  1        2 0.41891291E-01 0.45640297E+03</pdfrwt>
<pdfrwt beam="2">  1       -2 0.25369804E-01 0.45640297E+03</pdfrwt>
<totfact> 0.16964920E+03</totfact>
</mgrwt>
</event>
<event>
 4    1  0.3541639E-005  0.4244247E+03  0.7818608E-02  0.1035636E+00
         -2   -1    0    0    0  501 -0.00000000000E+00  0.00000000000E+00  0.34580636469E+02  0.34580636563E+02  0.25500000000E-02 0. -1.
          2   -1    0    0  501    0  0.00000000000E+00 -0.00000000000E+00 -0.13022920613E+04  0.13022920613E+04  0.25500000000E-02 0.  1.
    5000001    1    1    2    0    0 -0.13272719300E+03  0.10785672050E+02 -0.66136055045E+03  0.69451826195E+03  0.16500000000E+03 0.  0.
   -5000001    1    1    2    0    0  0.13272719300E+03 -0.10785672050E+02 -0.60635087438E+03  0.64235443592E+03  0.16500000000E+03 0.  0.
<mgrwt>
<rscale>  0 0.42442473E+03</rscale>
<asrwt>0</asrwt>
<pdfrwt beam="1">  1        2 0.18604169E+00 0.42442473E+03</pdfrwt>
<pdfrwt beam="2">  1       -2 0.49400917E-02 0.42442473E+03</pdfrwt>
<totfact> 0.39529427E+03</totfact>
</mgrwt>
</event>
<event>
 4    1  0.3541639E-005  0.4137186E+03  0.7818608E-02  0.1039130E+00
          2   -1    0    0  501    0  0.00000000000E+00  0.00000000000E+00  0.83279009311E+03  0.83279009311E+03  0.25500000000E-02 0.  1.
         -2   -1    0    0    0  501 -0.00000000000E+00 -0.00000000000E+00 -0.51382424816E+02  0.51382424879E+02  0.25500000000E-02 0. -1.
    5000001    1    1    2    0    0 -0.10453435839E+03  0.43228210347E+02  0.27823155495E+03  0.34268631198E+03  0.16500000000E+03 0.  0.
   -5000001    1    1    2    0    0  0.10453435839E+03 -0.43228210347E+02  0.50317611335E+03  0.54148620601E+03  0.16500000000E+03 0.  0.
<mgrwt>
<rscale>  0 0.41371862E+03</rscale>
<asrwt>0</asrwt>
<pdfrwt beam="1">  1        2 0.11897001E+00 0.41371862E+03</pdfrwt>
<pdfrwt beam="2">  1       -2 0.73403468E-02 0.41371862E+03</pdfrwt>
<totfact> 0.40355683E+03</totfact>
</mgrwt>
</event>
<event>
 4    1  0.3541639E-005  0.8489412E+03  0.7818608E-02  0.9491759E-01
         -2   -1    0    0    0  501 -0.00000000000E+00  0.00000000000E+00  0.13113358825E+03  0.13113358827E+03  0.25500000000E-02 0. -1.
          2   -1    0    0  501    0  0.00000000000E+00 -0.00000000000E+00 -0.13739828236E+04  0.13739828236E+04  0.25500000000E-02 0.  1.
    5000001    1    1    2    0    0  0.27528257891E+03  0.75539050243E+02 -0.10953773953E+04  0.11439245100E+04  0.16500000000E+03 0.  0.
   -5000001    1    1    2    0    0 -0.27528257891E+03 -0.75539050243E+02 -0.14747183996E+03  0.36119190183E+03  0.16500000000E+03 0.  0.
<mgrwt>
<rscale>  0 0.84894122E+03</rscale>
<asrwt>0</asrwt>
<pdfrwt beam="1">  1        2 0.19628325E+00 0.84894122E+03</pdfrwt>
<pdfrwt beam="2">  1       -2 0.18733371E-01 0.84894122E+03</pdfrwt>
<totfact> 0.41037697E+02</totfact>
</mgrwt>
</event>
<event>
 4    1  0.3541639E-005  0.6315417E+03  0.7818608E-02  0.9842045E-01
         -2   -1    0    0    0  501 -0.00000000000E+00  0.00000000000E+00  0.46948376353E+02  0.46948376422E+02  0.25500000000E-02 0. -1.
          2   -1    0    0  501    0  0.00000000000E+00 -0.00000000000E+00 -0.21238480440E+04  0.21238480440E+04  0.25500000000E-02 0.  1.
    5000001    1    1    2    0    0  0.20375410689E+03  0.15636472463E+03 -0.76088825716E+03  0.81984242575E+03  0.16500000000E+03 0.  0.
   -5000001    1    1    2    0    0 -0.20375410689E+03 -0.15636472463E+03 -0.13160114105E+04  0.13509539947E+04  0.16500000000E+03 0.  0.
<mgrwt>
<rscale>  0 0.63154166E+03</rscale>
<asrwt>0</asrwt>
<pdfrwt beam="1">  1        2 0.30340680E+00 0.63154166E+03</pdfrwt>
<pdfrwt beam="2">  1       -2 0.67069123E-02 0.63154166E+03</pdfrwt>
<totfact> 0.92899670E+02</totfact>
</mgrwt>
</event>
<event>
 4    1  0.3541639E-005  0.4205078E+03  0.7818608E-02  0.1036901E+00
          2   -1    0    0  501    0  0.00000000000E+00  0.00000000000E+00  0.50776112836E+02  0.50776112900E+02  0.25500000000E-02 0.  1.
         -2   -1    0    0    0  501 -0.00000000000E+00 -0.00000000000E+00 -0.87062010770E+03  0.87062010770E+03  0.25500000000E-02 0. -1.
    5000001    1    1    2    0    0 -0.63160980561E+02 -0.85892180407E+02 -0.24573283661E+03  0.31460515429E+03  0.16500000000E+03 0.  0.
   -5000001    1    1    2    0    0  0.63160980561E+02  0.85892180407E+02 -0.57411115825E+03  0.60679106631E+03  0.16500000000E+03 0.  0.
<mgrwt>
<rscale>  0 0.42050781E+03</rscale>
<asrwt>0</asrwt>
<pdfrwt beam="1">  1        2 0.72537309E-02 0.42050781E+03</pdfrwt>
<pdfrwt beam="2">  1       -2 0.12437429E+00 0.42050781E+03</pdfrwt>
<totfact> 0.49362775E+02</totfact>
</mgrwt>
</event>
<event>
 4    1  0.3541639E-005  0.5564221E+03  0.7818608E-02  0.1000018E+00
         -2   -1    0    0    0  501 -0.00000000000E+00  0.00000000000E+00  0.56422069836E+03  0.56422069836E+03  0.25500000000E-02 0. -1.
          2   -1    0    0  501    0  0.00000000000E+00 -0.00000000000E+00 -0.13718282307E+03  0.13718282310E+03  0.25500000000E-02 0.  1.
    5000001    1    1    2    0    0  0.15051183907E+02 -0.21906869075E+03  0.26930864155E+03  0.38466839461E+03  0.16500000000E+03 0.  0.
   -5000001    1    1    2    0    0 -0.15051183907E+02  0.21906869075E+03  0.15772923374E+03  0.31673512685E+03  0.16500000000E+03 0.  0.
<mgrwt>
<rscale>  0 0.55642210E+03</rscale>
<asrwt>0</asrwt>
<pdfrwt beam="1">  1        2 0.19597546E-01 0.55642210E+03</pdfrwt>
<pdfrwt beam="2">  1       -2 0.80602956E-01 0.55642210E+03</pdfrwt>
<totfact> 0.39947737E+02</totfact>
</mgrwt>
</event>
<event>
 4    1  0.3541639E-005  0.4905637E+03  0.7818608E-02  0.1016272E+00
         -2   -1    0    0    0  501 -0.00000000000E+00  0.00000000000E+00  0.33780770761E+02  0.33780770857E+02  0.25500000000E-02 0. -1.
          2   -1    0    0  501    0  0.00000000000E+00 -0.00000000000E+00 -0.17809892903E+04  0.17809892903E+04  0.25500000000E-02 0.  1.
    5000001    1    1    2    0    0 -0.16003762084E+03  0.27226533944E+02 -0.11737966480E+04  0.11964016446E+04  0.16500000000E+03 0.  0.
   -5000001    1    1    2    0    0  0.16003762084E+03 -0.27226533944E+02 -0.57341187156E+03  0.61836841662E+03  0.16500000000E+03 0.  0.
<mgrwt>
<rscale>  0 0.49056372E+03</rscale>
<asrwt>0</asrwt>
<pdfrwt beam="1">  1        2 0.25442698E+00 0.49056372E+03</pdfrwt>
<pdfrwt beam="2">  1       -2 0.48258255E-02 0.49056372E+03</pdfrwt>
<totfact> 0.23217270E+03</totfact>
</mgrwt>
</event>
<event>
 4    1  0.3541639E-005  0.5903457E+03  0.7818608E-02  0.9925641E-01
          2   -1    0    0  501    0  0.00000000000E+00  0.00000000000E+00  0.11063323493E+04  0.11063323493E+04  0.25500000000E-02 0. -1.
         -2   -1    0    0    0  501 -0.00000000000E+00 -0.00000000000E+00 -0.78753011395E+02  0.78753011437E+02  0.25500000000E-02 0.  1.
    5000001    1    1    2    0    0  0.13014708137E+02 -0.23799762558E+03  0.40220486905E+03  0.49578827043E+03  0.16500000000E+03 0.  0.
   -5000001    1    1    2    0    0 -0.13014708137E+02  0.23799762558E+03  0.62537446881E+03  0.68929709027E+03  0.16500000000E+03 0.  0.
<mgrwt>
<rscale>  0 0.59034568E+03</rscale>
<asrwt>0</asrwt>
<pdfrwt beam="1">  1        2 0.15804746E+00 0.59034568E+03</pdfrwt>
<pdfrwt beam="2">  1       -2 0.11250432E-01 0.59034568E+03</pdfrwt>
<totfact> 0.13797253E+03</totfact>
</mgrwt>
</event>
<event>
 4    1  0.3541639E-005  0.6281645E+03  0.7818608E-02  0.9848637E-01
         -2   -1    0    0    0  501 -0.00000000000E+00  0.00000000000E+00  0.27929643502E+03  0.27929643504E+03  0.25500000000E-02 0. -1.
          2   -1    0    0  501    0  0.00000000000E+00 -0.00000000000E+00 -0.35320052393E+03  0.35320052394E+03  0.25500000000E-02 0.  1.
    5000001    1    1    2    0    0 -0.18555918535E+03 -0.17356344518E+03  0.46481797643E+02  0.30649965462E+03  0.16500000000E+03 0.  0.
   -5000001    1    1    2    0    0  0.18555918535E+03  0.17356344518E+03 -0.12038588655E+03  0.32599730436E+03  0.16500000000E+03 0.  0.
<mgrwt>
<rscale>  0 0.62816446E+03</rscale>
<asrwt>0</asrwt>
<pdfrwt beam="1">  1        2 0.50457218E-01 0.62816446E+03</pdfrwt>
<pdfrwt beam="2">  1       -2 0.39899491E-01 0.62816446E+03</pdfrwt>
<totfact> 0.59461574E+02</totfact>
</mgrwt>
</event>
<event>
 4    1  0.3541639E-005  0.4005897E+03  0.7818608E-02  0.1043576E+00
         -2   -1    0    0    0  501 -0.00000000000E+00  0.00000000000E+00  0.26475223168E+03  0.26475223169E+03  0.25500000000E-02 0. -1.
          2   -1    0    0  501    0  0.00000000000E+00 -0.00000000000E+00 -0.15153044393E+03  0.15153044395E+03  0.25500000000E-02 0.  1.
    5000001    1    1    2    0    0 -0.10951621786E+03 -0.40057990351E+01  0.25728431949E+02  0.19974183491E+03  0.16500000000E+03 0.  0.
   -5000001    1    1    2    0    0  0.10951621786E+03  0.40057990351E+01  0.87493355799E+02  0.21654084074E+03  0.16500000000E+03 0.  0.
<mgrwt>
<rscale>  0 0.40058968E+03</rscale>
<asrwt>0</asrwt>
<pdfrwt beam="1">  1        2 0.21647207E-01 0.40058968E+03</pdfrwt>
<pdfrwt beam="2">  1       -2 0.37821747E-01 0.40058968E+03</pdfrwt>
<totfact> 0.16943773E+03</totfact>
</mgrwt>
</event>
<event>
 4    1  0.3541639E-005  0.3602084E+03  0.7818608E-02  0.1058501E+00
         -2   -1    0    0    0  501 -0.00000000000E+00  0.00000000000E+00  0.12351757926E+02  0.12351758190E+02  0.25500000000E-02 0. -1.
          2   -1    0    0  501    0  0.00000000000E+00 -0.00000000000E+00 -0.26261465867E+04  0.26261465867E+04  0.25500000000E-02 0.  1.
    5000001    1    1    2    0    0  0.23120745195E+02 -0.66189877686E+02 -0.14331027466E+04  0.14442728797E+04  0.16500000000E+03 0.  0.
   -5000001    1    1    2    0    0 -0.23120745195E+02  0.66189877686E+02 -0.11806920821E+04  0.11942254651E+04  0.16500000000E+03 0.  0.
<mgrwt>
<rscale>  0 0.36020842E+03</rscale>
<asrwt>0</asrwt>
<pdfrwt beam="1">  1        2 0.37516344E+00 0.36020842E+03</pdfrwt>
<pdfrwt beam="2">  1       -2 0.17645385E-02 0.36020842E+03</pdfrwt>
<totfact> 0.40136277E+03</totfact>
</mgrwt>
</event>
<event>
 4    1  0.3541639E-005  0.6095941E+03  0.7818608E-02  0.9885699E-01
         -2   -1    0    0    0  501 -0.00000000000E+00  0.00000000000E+00  0.30398428706E+03  0.30398428707E+03  0.25500000000E-02 0. -1.
          2   -1    0    0  501    0  0.00000000000E+00 -0.00000000000E+00 -0.30561193897E+03  0.30561193898E+03  0.25500000000E-02 0.  1.
    5000001    1    1    2    0    0 -0.17224130599E+03 -0.11956082051E+03 -0.14817231708E+03  0.30519156745E+03  0.16500000000E+03 0.  0.
   -5000001    1    1    2    0    0  0.17224130599E+03  0.11956082051E+03  0.14654466518E+03  0.30440465861E+03  0.16500000000E+03 0.  0.
<mgrwt>
<rscale>  0 0.60959405E+03</rscale>
<asrwt>0</asrwt>
<pdfrwt beam="1">  1        2 0.43658848E-01 0.60959405E+03</pdfrwt>
<pdfrwt beam="2">  1       -2 0.43426327E-01 0.60959405E+03</pdfrwt>
<totfact> 0.59136207E+02</totfact>
</mgrwt>
</event>
<event>
 4    1  0.3541639E-005  0.7141161E+03  0.7818608E-02  0.9693392E-01
          2   -1    0    0  501    0  0.00000000000E+00  0.00000000000E+00  0.13734360740E+04  0.13734360740E+04  0.25500000000E-02 0.  1.
         -2   -1    0    0    0  501 -0.00000000000E+00 -0.00000000000E+00 -0.92825915102E+02  0.92825915137E+02  0.25500000000E-02 0. -1.
    5000001    1    1    2    0    0 -0.39625982682E+02  0.31204913231E+03  0.71491992596E+03  0.79829842792E+03  0.16500000000E+03 0.  0.
   -5000001    1    1    2    0    0  0.39625982682E+02 -0.31204913231E+03  0.56569023293E+03  0.66796356121E+03  0.16500000000E+03 0.  0.
<mgrwt>
<rscale>  0 0.71411613E+03</rscale>
<asrwt>0</asrwt>
<pdfrwt beam="1">  1        2 0.19620515E+00 0.71411613E+03</pdfrwt>
<pdfrwt beam="2">  1       -2 0.13260845E-01 0.71411613E+03</pdfrwt>
<totfact> 0.74387277E+02</totfact>
</mgrwt>
</event>
<event>
 4    1  0.3541639E-005  0.5359768E+03  0.7818608E-02  0.1004793E+00
          2   -1    0    0  501    0  0.00000000000E+00  0.00000000000E+00  0.37555575937E+04  0.37555575937E+04  0.25500000000E-02 0.  1.
         -2   -1    0    0    0  501 -0.00000000000E+00 -0.00000000000E+00 -0.19123067181E+02  0.19123067351E+02  0.25500000000E-02 0. -1.
    5000001    1    1    2    0    0  0.17501051493E+03  0.11787199354E+03  0.18091711693E+04  0.18288925084E+04  0.16500000000E+03 0.  0.
   -5000001    1    1    2    0    0 -0.17501051493E+03 -0.11787199354E+03  0.19272633572E+04  0.19457881527E+04  0.16500000000E+03 0.  0.
<mgrwt>
<rscale>  0 0.53597679E+03</rscale>
<asrwt>0</asrwt>
<pdfrwt beam="1">  1        2 0.53650797E+00 0.53597679E+03</pdfrwt>
<pdfrwt beam="2">  1       -2 0.27318681E-02 0.53597679E+03</pdfrwt>
<totfact> 0.47888760E+02</totfact>
</mgrwt>
</event>
<event>
 4    1  0.3541639E-005  0.3676370E+03  0.7818608E-02  0.1055600E+00
          2   -1    0    0  501    0  0.00000000000E+00  0.00000000000E+00  0.22829671912E+04  0.22829671912E+04  0.25500000000E-02 0.  1.
         -2   -1    0    0    0  501 -0.00000000000E+00 -0.00000000000E+00 -0.14800582742E+02  0.14800582962E+02  0.25500000000E-02 0. -1.
    5000001    1    1    2    0    0 -0.64240962549E+02 -0.49123523401E+02  0.11033221207E+04  0.11185189868E+04  0.16500000000E+03 0.  0.
   -5000001    1    1    2    0    0  0.64240962549E+02  0.49123523401E+02  0.11648444878E+04  0.11792487874E+04  0.16500000000E+03 0.  0.
<mgrwt>
<rscale>  0 0.36763702E+03</rscale>
<asrwt>0</asrwt>
<pdfrwt beam="1">  1        2 0.32613826E+00 0.36763702E+03</pdfrwt>
<pdfrwt beam="2">  1       -2 0.21143684E-02 0.36763702E+03</pdfrwt>
<totfact> 0.45658914E+03</totfact>
</mgrwt>
</event>
<event>
 4    1  0.3541639E-005  0.5364284E+03  0.7818608E-02  0.1004685E+00
         -2   -1    0    0    0  501 -0.00000000000E+00  0.00000000000E+00  0.95883972912E+02  0.95883972946E+02  0.25500000000E-02 0. -1.
          2   -1    0    0  501    0  0.00000000000E+00 -0.00000000000E+00 -0.75026978781E+03  0.75026978781E+03  0.25500000000E-02 0.  1.
    5000001    1    1    2    0    0 -0.88704056209E+02 -0.18028049622E+03 -0.22322447102E+03  0.34267131681E+03  0.16500000000E+03 0.  0.
   -5000001    1    1    2    0    0  0.88704056209E+02  0.18028049622E+03 -0.43116134388E+03  0.50348244394E+03  0.16500000000E+03 0.  0.
<mgrwt>
<rscale>  0 0.53642837E+03</rscale>
<asrwt>0</asrwt>
<pdfrwt beam="1">  1        2 0.10718140E+00 0.53642837E+03</pdfrwt>
<pdfrwt beam="2">  1       -2 0.13697711E-01 0.53642837E+03</pdfrwt>
<totfact> 0.16845383E+03</totfact>
</mgrwt>
</event>
<event>
 4    1  0.3541639E-005  0.4542009E+03  0.7818608E-02  0.1026477E+00
         -2   -1    0    0    0  501 -0.00000000000E+00  0.00000000000E+00  0.35124741231E+02  0.35124741324E+02  0.25500000000E-02 0.  1.
          2   -1    0    0  501    0  0.00000000000E+00 -0.00000000000E+00 -0.14683271714E+04  0.14683271714E+04  0.25500000000E-02 0. -1.
    5000001    1    1    2    0    0 -0.45062119208E+02 -0.13117339468E+03 -0.95328073705E+03  0.97734651874E+03  0.16500000000E+03 0.  0.
   -5000001    1    1    2    0    0  0.45062119208E+02  0.13117339468E+03 -0.47992169313E+03  0.52610539400E+03  0.16500000000E+03 0.  0.
<mgrwt>
<rscale>  0 0.45420089E+03</rscale>
<asrwt>0</asrwt>
<pdfrwt beam="1">  1        2 0.20976099E+00 0.45420089E+03</pdfrwt>
<pdfrwt beam="2">  1       -2 0.50178211E-02 0.45420089E+03</pdfrwt>
<totfact> 0.31552654E+03</totfact>
</mgrwt>
</event>
<event>
 4    1  0.3541639E-005  0.6111867E+03  0.7818608E-02  0.9882465E-01
         -2   -1    0    0    0  501 -0.00000000000E+00  0.00000000000E+00  0.62739103968E+02  0.62739104020E+02  0.25500000000E-02 0. -1.
          2   -1    0    0  501    0  0.00000000000E+00 -0.00000000000E+00 -0.14885022521E+04  0.14885022521E+04  0.25500000000E-02 0.  1.
    5000001    1    1    2    0    0  0.11850614434E+03 -0.20329446808E+03 -0.97652394151E+03  0.10179373042E+04  0.16500000000E+03 0.  0.
   -5000001    1    1    2    0    0 -0.11850614434E+03  0.20329446808E+03 -0.44923920663E+03  0.53330405190E+03  0.16500000000E+03 0.  0.
<mgrwt>
<rscale>  0 0.61118671E+03</rscale>
<asrwt>0</asrwt>
<pdfrwt beam="1">  1        2 0.21264316E+00 0.61118671E+03</pdfrwt>
<pdfrwt beam="2">  1       -2 0.89627301E-02 0.61118671E+03</pdfrwt>
<totfact> 0.12323590E+03</totfact>
</mgrwt>
</event>
<event>
 4    1  0.3541639E-005  0.1020640E+04  0.7818608E-02  0.9286193E-01
         -2   -1    0    0    0  501 -0.00000000000E+00  0.00000000000E+00  0.20673159095E+03  0.20673159096E+03  0.25500000000E-02 0. -1.
          2   -1    0    0  501    0  0.00000000000E+00 -0.00000000000E+00 -0.12597315846E+04  0.12597315846E+04  0.25500000000E-02 0.  1.
    5000001    1    1    2    0    0  0.32358025600E+02 -0.31882860337E+03 -0.10455489346E+04  0.11059368403E+04  0.16500000000E+03 0.  0.
   -5000001    1    1    2    0    0 -0.32358025600E+02  0.31882860337E+03 -0.74510590969E+01  0.36052633528E+03  0.16500000000E+03 0.  0.
<mgrwt>
<rscale>  0 0.10206396E+04</rscale>
<asrwt>0</asrwt>
<pdfrwt beam="1">  1        2 0.17996165E+00 0.10206396E+04</pdfrwt>
<pdfrwt beam="2">  1       -2 0.29533085E-01 0.10206396E+04</pdfrwt>
<totfact> 0.20764245E+02</totfact>
</mgrwt>
</event>
<event>
 4    1  0.3541639E-005  0.1067053E+04  0.7818608E-02  0.9237913E-01
         -2   -1    0    0    0  501 -0.00000000000E+00  0.00000000000E+00  0.63866429287E+03  0.63866429287E+03  0.25500000000E-02 0. -1.
          2   -1    0    0  501    0  0.00000000000E+00 -0.00000000000E+00 -0.44569629297E+03  0.44569629298E+03  0.25500000000E-02 0.  1.
    5000001    1    1    2    0    0  0.43672718627E+03 -0.13426032515E+02 -0.16560318391E+03  0.49554042024E+03  0.16500000000E+03 0.  0.
   -5000001    1    1    2    0    0 -0.43672718627E+03  0.13426032515E+02  0.35857118380E+03  0.58882016561E+03  0.16500000000E+03 0.  0.
<mgrwt>
<rscale>  0 0.10670526E+04</rscale>
<asrwt>0</asrwt>
<pdfrwt beam="1">  1        2 0.63670899E-01 0.10670526E+04</pdfrwt>
<pdfrwt beam="2">  1       -2 0.91237756E-01 0.10670526E+04</pdfrwt>
<totfact> 0.78054057E+01</totfact>
</mgrwt>
</event>
<event>
 4    1  0.3541639E-005  0.4412101E+03  0.7818608E-02  0.1030376E+00
         -2   -1    0    0    0  501 -0.00000000000E+00  0.00000000000E+00  0.44511700228E+02  0.44511700302E+02  0.25500000000E-02 0. -1.
          2   -1    0    0  501    0  0.00000000000E+00 -0.00000000000E+00 -0.10933438203E+04  0.10933438203E+04  0.25500000000E-02 0.  1.
    5000001    1    1    2    0    0  0.13306169212E+03 -0.25292986056E+02 -0.66792310657E+03  0.70120712014E+03  0.16500000000E+03 0.  0.
   -5000001    1    1    2    0    0 -0.13306169212E+03  0.25292986056E+02 -0.38090901349E+03  0.43664840045E+03  0.16500000000E+03 0.  0.
<mgrwt>
<rscale>  0 0.44121012E+03</rscale>
<asrwt>0</asrwt>
<pdfrwt beam="1">  1        2 0.15619196E+00 0.44121012E+03</pdfrwt>
<pdfrwt beam="2">  1       -2 0.63588150E-02 0.44121012E+03</pdfrwt>
<totfact> 0.34926661E+03</totfact>
</mgrwt>
</event>
<event>
 4    1  0.3541639E-005  0.6575587E+03  0.7818608E-02  0.9792698E-01
          2   -1    0    0  501    0  0.00000000000E+00  0.00000000000E+00  0.10250089308E+04  0.10250089308E+04  0.25500000000E-02 0. -1.
         -2   -1    0    0    0  501 -0.00000000000E+00 -0.00000000000E+00 -0.10545846644E+03  0.10545846647E+03  0.25500000000E-02 0.  1.
    5000001    1    1    2    0    0 -0.27385033254E+03  0.26361053933E+01  0.59149150969E+03  0.67237501420E+03  0.16500000000E+03 0.  0.
   -5000001    1    1    2    0    0  0.27385033254E+03 -0.26361053933E+01  0.32805895467E+03  0.45809238307E+03  0.16500000000E+03 0.  0.
<mgrwt>
<rscale>  0 0.65755873E+03</rscale>
<asrwt>0</asrwt>
<pdfrwt beam="1">  1        2 0.14642984E+00 0.65755873E+03</pdfrwt>
<pdfrwt beam="2">  1       -2 0.15065496E-01 0.65755873E+03</pdfrwt>
<totfact> 0.94735319E+02</totfact>
</mgrwt>
</event>
<event>
 4    1  0.3541639E-005  0.4277211E+03  0.7818608E-02  0.1034582E+00
         -2   -1    0    0    0  501 -0.00000000000E+00  0.00000000000E+00  0.31147589409E+03  0.31147589411E+03  0.25500000000E-02 0. -1.
          2   -1    0    0  501    0  0.00000000000E+00 -0.00000000000E+00 -0.14683745621E+03  0.14683745623E+03  0.25500000000E-02 0.  1.
    5000001    1    1    2    0    0 -0.11573736189E+03 -0.36176986130E+01  0.57738281050E+01  0.20165951942E+03  0.16500000000E+03 0.  0.
   -5000001    1    1    2    0    0  0.11573736189E+03  0.36176986130E+01  0.15886460978E+03  0.25665383091E+03  0.16500000000E+03 0.  0.
<mgrwt>
<rscale>  0 0.42772107E+03</rscale>
<asrwt>0</asrwt>
<pdfrwt beam="1">  1        2 0.20976780E-01 0.42772107E+03</pdfrwt>
<pdfrwt beam="2">  1       -2 0.44496556E-01 0.42772107E+03</pdfrwt>
<totfact> 0.12833853E+03</totfact>
</mgrwt>
</event>
<event>
 4    1  0.3541639E-005  0.4685881E+03  0.7818608E-02  0.1022319E+00
          2   -1    0    0  501    0  0.00000000000E+00  0.00000000000E+00  0.14512147245E+04  0.14512147245E+04  0.25500000000E-02 0. -1.
         -2   -1    0    0    0  501 -0.00000000000E+00 -0.00000000000E+00 -0.37826032182E+02  0.37826032268E+02  0.25500000000E-02 0.  1.
    5000001    1    1    2    0    0  0.15341426862E+03 -0.45432994182E+02  0.85122289231E+03  0.88170602083E+03  0.16500000000E+03 0.  0.
   -5000001    1    1    2    0    0 -0.15341426862E+03  0.45432994182E+02  0.56216579999E+03  0.60733473592E+03  0.16500000000E+03 0.  0.
<mgrwt>
<rscale>  0 0.46858807E+03</rscale>
<asrwt>0</asrwt>
<pdfrwt beam="1">  1        2 0.20731634E+00 0.46858807E+03</pdfrwt>
<pdfrwt beam="2">  1       -2 0.54037202E-02 0.46858807E+03</pdfrwt>
<totfact> 0.28718881E+03</totfact>
</mgrwt>
</event>
<event>
 4    1  0.3541639E-005  0.6778189E+03  0.7818608E-02  0.9755935E-01
          2   -1    0    0  501    0  0.00000000000E+00  0.00000000000E+00  0.12483525734E+04  0.12483525734E+04  0.25500000000E-02 0.  1.
         -2   -1    0    0    0  501 -0.00000000000E+00 -0.00000000000E+00 -0.92008949931E+02  0.92008949966E+02  0.25500000000E-02 0. -1.
    5000001    1    1    2    0    0 -0.19900923514E+03  0.21909771880E+03  0.58827883182E+03  0.67890019150E+03  0.16500000000E+03 0.  0.
   -5000001    1    1    2    0    0  0.19900923514E+03 -0.21909771880E+03  0.56806479168E+03  0.66146133190E+03  0.16500000000E+03 0.  0.
<mgrwt>
<rscale>  0 0.67781888E+03</rscale>
<asrwt>0</asrwt>
<pdfrwt beam="1">  1        2 0.17833607E+00 0.67781888E+03</pdfrwt>
<pdfrwt beam="2">  1       -2 0.13144136E-01 0.67781888E+03</pdfrwt>
<totfact> 0.88458660E+02</totfact>
</mgrwt>
</event>
<event>
 4    1  0.3541639E-005  0.4897626E+03  0.7818608E-02  0.1016486E+00
         -2   -1    0    0    0  501 -0.00000000000E+00  0.00000000000E+00  0.10888419670E+03  0.10888419673E+03  0.25500000000E-02 0. -1.
          2   -1    0    0  501    0  0.00000000000E+00 -0.00000000000E+00 -0.55073963380E+03  0.55073963381E+03  0.25500000000E-02 0.  1.
    5000001    1    1    2    0    0 -0.11070011586E+03  0.13731499181E+03 -0.16652004169E+03  0.29336640386E+03  0.16500000000E+03 0.  0.
   -5000001    1    1    2    0    0  0.11070011586E+03 -0.13731499181E+03 -0.27533539541E+03  0.36625742667E+03  0.16500000000E+03 0.  0.
<mgrwt>
<rscale>  0 0.48976257E+03</rscale>
<asrwt>0</asrwt>
<pdfrwt beam="1">  1        2 0.78677089E-01 0.48976257E+03</pdfrwt>
<pdfrwt beam="2">  1       -2 0.15554886E-01 0.48976257E+03</pdfrwt>
<totfact> 0.19682442E+03</totfact>
</mgrwt>
</event>
<event>
 4    1  0.3541639E-005  0.4178645E+03  0.7818608E-02  0.1037764E+00
          2   -1    0    0  501    0  0.00000000000E+00  0.00000000000E+00  0.85733434702E+02  0.85733434740E+02  0.25500000000E-02 0.  1.
         -2   -1    0    0    0  501 -0.00000000000E+00 -0.00000000000E+00 -0.50916753435E+03  0.50916753436E+03  0.25500000000E-02 0. -1.
    5000001    1    1    2    0    0  0.11234164231E+03  0.55793271072E+02 -0.24922602665E+03  0.32414833958E+03  0.16500000000E+03 0.  0.
   -5000001    1    1    2    0    0 -0.11234164231E+03 -0.55793271072E+02 -0.17420807300E+03  0.27075262952E+03  0.16500000000E+03 0.  0.
<mgrwt>
<rscale>  0 0.41786448E+03</rscale>
<asrwt>0</asrwt>
<pdfrwt beam="1">  1        2 0.12247634E-01 0.41786448E+03</pdfrwt>
<pdfrwt beam="2">  1       -2 0.72738217E-01 0.41786448E+03</pdfrwt>
<totfact> 0.88157944E+02</totfact>
</mgrwt>
</event>
<event>
 4    1  0.3541639E-005  0.4802279E+03  0.7818608E-02  0.1019073E+00
          2   -1    0    0  501    0  0.00000000000E+00  0.00000000000E+00  0.53407838647E+03  0.53407838647E+03  0.25500000000E-02 0.  1.
         -2   -1    0    0    0  501 -0.00000000000E+00 -0.00000000000E+00 -0.10795177408E+03  0.10795177411E+03  0.25500000000E-02 0. -1.
    5000001    1    1    2    0    0  0.12682302047E+03 -0.87908818432E+02  0.32182115513E+03  0.39319956100E+03  0.16500000000E+03 0.  0.
   -5000001    1    1    2    0    0 -0.12682302047E+03  0.87908818432E+02  0.10430545726E+03  0.24883059959E+03  0.16500000000E+03 0.  0.
<mgrwt>
<rscale>  0 0.48022790E+03</rscale>
<asrwt>0</asrwt>
<pdfrwt beam="1">  1        2 0.76296910E-01 0.48022790E+03</pdfrwt>
<pdfrwt beam="2">  1       -2 0.15421682E-01 0.48022790E+03</pdfrwt>
<totfact> 0.20681425E+03</totfact>
</mgrwt>
</event>
<event>
 4    1  0.3541639E-005  0.6333679E+03  0.7818608E-02  0.9838499E-01
         -2   -1    0    0    0  501 -0.00000000000E+00  0.00000000000E+00  0.98487013081E+02  0.98487013114E+02  0.25500000000E-02 0. -1.
          2   -1    0    0  501    0  0.00000000000E+00 -0.00000000000E+00 -0.10182938479E+04  0.10182938479E+04  0.25500000000E-02 0.  1.
    5000001    1    1    2    0    0 -0.20533678746E+03  0.15025780430E+03 -0.62076594350E+03  0.69088056902E+03  0.16500000000E+03 0.  0.
   -5000001    1    1    2    0    0  0.20533678746E+03 -0.15025780430E+03 -0.29904089128E+03  0.42590029196E+03  0.16500000000E+03 0.  0.
<mgrwt>
<rscale>  0 0.63336789E+03</rscale>
<asrwt>0</asrwt>
<pdfrwt beam="1">  1        2 0.14547054E+00 0.63336789E+03</pdfrwt>
<pdfrwt beam="2">  1       -2 0.14069574E-01 0.63336789E+03</pdfrwt>
<totfact> 0.10734385E+03</totfact>
</mgrwt>
</event>
<event>
 4    1  0.3541639E-005  0.4440948E+03  0.7818608E-02  0.1029498E+00
          2   -1    0    0  501    0  0.00000000000E+00  0.00000000000E+00  0.45401513410E+03  0.45401513410E+03  0.25500000000E-02 0.  1.
         -2   -1    0    0    0  501 -0.00000000000E+00 -0.00000000000E+00 -0.10859782388E+03  0.10859782391E+03  0.25500000000E-02 0. -1.
    5000001    1    1    2    0    0 -0.67850849938E+02  0.77639111274E+02  0.37155996468E+02  0.19808366291E+03  0.16500000000E+03 0.  0.
   -5000001    1    1    2    0    0  0.67850849938E+02 -0.77639111274E+02  0.30826131375E+03  0.36452929511E+03  0.16500000000E+03 0.  0.
<mgrwt>
<rscale>  0 0.44409483E+03</rscale>
<asrwt>0</asrwt>
<pdfrwt beam="1">  1        2 0.64859305E-01 0.44409483E+03</pdfrwt>
<pdfrwt beam="2">  1       -2 0.15513975E-01 0.44409483E+03</pdfrwt>
<totfact> 0.24566820E+03</totfact>
</mgrwt>
</event>
<event>
 4    1  0.3541639E-005  0.4934598E+03  0.7818608E-02  0.1015500E+00
         -2   -1    0    0    0  501 -0.00000000000E+00  0.00000000000E+00  0.58815558956E+02  0.58815559011E+02  0.25500000000E-02 0. -1.
          2   -1    0    0  501    0  0.00000000000E+00 -0.00000000000E+00 -0.10350261498E+04  0.10350261498E+04  0.25500000000E-02 0.  1.
    5000001    1    1    2    0    0  0.17126959252E+03  0.59787352329E+02 -0.54852110037E+03  0.60083957790E+03  0.16500000000E+03 0.  0.
   -5000001    1    1    2    0    0 -0.17126959252E+03 -0.59787352329E+02 -0.42768949045E+03  0.49300213089E+03  0.16500000000E+03 0.  0.
<mgrwt>
<rscale>  0 0.49345979E+03</rscale>
<asrwt>0</asrwt>
<pdfrwt beam="1">  1        2 0.14786087E+00 0.49345979E+03</pdfrwt>
<pdfrwt beam="2">  1       -2 0.84022233E-02 0.49345979E+03</pdfrwt>
<totfact> 0.24364690E+03</totfact>
</mgrwt>
</event>
<event>
 4    1  0.3541639E-005  0.5113722E+03  0.7818608E-02  0.1010852E+00
          2   -1    0    0  501    0  0.00000000000E+00  0.00000000000E+00  0.11012383962E+04  0.11012383962E+04  0.25500000000E-02 0. -1.
         -2   -1    0    0    0  501 -0.00000000000E+00 -0.00000000000E+00 -0.59365336551E+02  0.59365336605E+02  0.25500000000E-02 0.  1.
    5000001    1    1    2    0    0  0.17191845820E+03 -0.90159209293E+02  0.56991696932E+03  0.62427156847E+03  0.16500000000E+03 0.  0.
   -5000001    1    1    2    0    0 -0.17191845820E+03  0.90159209293E+02  0.47195609030E+03  0.53633216430E+03  0.16500000000E+03 0.  0.
<mgrwt>
<rscale>  0 0.51137222E+03</rscale>
<asrwt>0</asrwt>
<pdfrwt beam="1">  1        2 0.15731977E+00 0.51137222E+03</pdfrwt>
<pdfrwt beam="2">  1       -2 0.84807625E-02 0.51137222E+03</pdfrwt>
<totfact> 0.21952291E+03</totfact>
</mgrwt>
</event>
<event>
 4    1  0.3541639E-005  0.3941979E+03  0.7818608E-02  0.1045807E+00
         -2   -1    0    0    0  501 -0.00000000000E+00  0.00000000000E+00  0.40699795286E+02  0.40699795366E+02  0.25500000000E-02 0. -1.
          2   -1    0    0  501    0  0.00000000000E+00 -0.00000000000E+00 -0.95450094576E+03  0.95450094577E+03  0.25500000000E-02 0.  1.
    5000001    1    1    2    0    0 -0.88989375837E+02  0.21495712380E+02 -0.31315623721E+03  0.36561318844E+03  0.16500000000E+03 0.  0.
   -5000001    1    1    2    0    0  0.88989375837E+02 -0.21495712380E+02 -0.60064491327E+03  0.62958755269E+03  0.16500000000E+03 0.  0.
<mgrwt>
<rscale>  0 0.39419788E+03</rscale>
<asrwt>0</asrwt>
<pdfrwt beam="1">  1        2 0.13635726E+00 0.39419788E+03</pdfrwt>
<pdfrwt beam="2">  1       -2 0.58142571E-02 0.39419788E+03</pdfrwt>
<totfact> 0.48481960E+03</totfact>
</mgrwt>
</event>
<event>
 4    1  0.3541639E-005  0.4723270E+03  0.7818608E-02  0.1021265E+00
         -2   -1    0    0    0  501 -0.00000000000E+00  0.00000000000E+00  0.52439201780E+02  0.52439201842E+02  0.25500000000E-02 0. -1.
          2   -1    0    0  501    0  0.00000000000E+00 -0.00000000000E+00 -0.10635782656E+04  0.10635782656E+04  0.25500000000E-02 0.  1.
    5000001    1    1    2    0    0  0.15375876601E+03 -0.21623683734E+02 -0.66299088418E+03  0.70063632102E+03  0.16500000000E+03 0.  0.
   -5000001    1    1    2    0    0 -0.15375876601E+03  0.21623683734E+02 -0.34814817965E+03  0.41538114643E+03  0.16500000000E+03 0.  0.
<mgrwt>
<rscale>  0 0.47232699E+03</rscale>
<asrwt>0</asrwt>
<pdfrwt beam="1">  1        2 0.15193974E+00 0.47232699E+03</pdfrwt>
<pdfrwt beam="2">  1       -2 0.74913152E-02 0.47232699E+03</pdfrwt>
<totfact> 0.28111773E+03</totfact>
</mgrwt>
</event>
<event>
 4    1  0.3541639E-005  0.6357437E+03  0.7818608E-02  0.9833904E-01
          2   -1    0    0  501    0  0.00000000000E+00  0.00000000000E+00  0.28826570386E+04  0.28826570386E+04  0.25500000000E-02 0.  1.
         -2   -1    0    0    0  501 -0.00000000000E+00 -0.00000000000E+00 -0.35051863151E+02  0.35051863244E+02  0.25500000000E-02 0. -1.
    5000001    1    1    2    0    0  0.22017081916E+03  0.14464425911E+03  0.17289348971E+04  0.17566553531E+04  0.16500000000E+03 0.  0.
   -5000001    1    1    2    0    0 -0.22017081916E+03 -0.14464425911E+03  0.11186702784E+04  0.11610535488E+04  0.16500000000E+03 0.  0.
<mgrwt>
<rscale>  0 0.63574366E+03</rscale>
<asrwt>0</asrwt>
<pdfrwt beam="1">  1        2 0.41180827E+00 0.63574366E+03</pdfrwt>
<pdfrwt beam="2">  1       -2 0.50074075E-02 0.63574366E+03</pdfrwt>
<totfact> 0.59555480E+02</totfact>
</mgrwt>
</event>
<event>
 4    1  0.3541639E-005  0.6328318E+03  0.7818608E-02  0.9839538E-01
         -2   -1    0    0    0  501 -0.00000000000E+00  0.00000000000E+00  0.31374191193E+02  0.31374191297E+02  0.25500000000E-02 0. -1.
          2   -1    0    0  501    0  0.00000000000E+00 -0.00000000000E+00 -0.31911267357E+04  0.31911267357E+04  0.25500000000E-02 0.  1.
    5000001    1    1    2    0    0  0.17056331260E+03 -0.19687438374E+03 -0.19414812005E+04  0.19658142381E+04  0.16500000000E+03 0.  0.
   -5000001    1    1    2    0    0 -0.17056331260E+03  0.19687438374E+03 -0.12182713440E+04  0.12566866889E+04  0.16500000000E+03 0.  0.
<mgrwt>
<rscale>  0 0.63283180E+03</rscale>
<asrwt>0</asrwt>
<pdfrwt beam="1">  1        2 0.45587504E+00 0.63283180E+03</pdfrwt>
<pdfrwt beam="2">  1       -2 0.44820294E-02 0.63283180E+03</pdfrwt>
<totfact> 0.47920224E+02</totfact>
</mgrwt>
</event>
<event>
 4    1  0.3541639E-005  0.3855478E+03  0.7818608E-02  0.1048902E+00
          2   -1    0    0  501    0  0.00000000000E+00  0.00000000000E+00  0.75811560805E+03  0.75811560806E+03  0.25500000000E-02 0.  1.
         -2   -1    0    0    0  501 -0.00000000000E+00 -0.00000000000E+00 -0.49018617634E+02  0.49018617700E+02  0.25500000000E-02 0. -1.
    5000001    1    1    2    0    0 -0.75555173070E+02  0.64265127521E+02  0.33380425669E+03  0.38534253928E+03  0.16500000000E+03 0.  0.
   -5000001    1    1    2    0    0  0.75555173070E+02 -0.64265127521E+02  0.37529273372E+03  0.42179168647E+03  0.16500000000E+03 0.  0.
<mgrwt>
<rscale>  0 0.38554781E+03</rscale>
<asrwt>0</asrwt>
<pdfrwt beam="1">  1        2 0.10830223E+00 0.38554781E+03</pdfrwt>
<pdfrwt beam="2">  1       -2 0.70026597E-02 0.38554781E+03</pdfrwt>
<totfact> 0.48827957E+03</totfact>
</mgrwt>
</event>
<event>
 4    1  0.3541639E-005  0.5888069E+03  0.7818608E-02  0.9928904E-01
         -2   -1    0    0    0  501 -0.00000000000E+00  0.00000000000E+00  0.35091128584E+02  0.35091128677E+02  0.25500000000E-02 0. -1.
          2   -1    0    0  501    0  0.00000000000E+00 -0.00000000000E+00 -0.24699513559E+04  0.24699513559E+04  0.25500000000E-02 0.  1.
    5000001    1    1    2    0    0  0.15229641878E+03  0.18979030474E+03 -0.12824857196E+04  0.13157542247E+04  0.16500000000E+03 0.  0.
   -5000001    1    1    2    0    0 -0.15229641878E+03 -0.18979030474E+03 -0.11523745077E+04  0.11892882598E+04  0.16500000000E+03 0.  0.
<mgrwt>
<rscale>  0 0.58880686E+03</rscale>
<asrwt>0</asrwt>
<pdfrwt beam="1">  1        2 0.35285008E+00 0.58880686E+03</pdfrwt>
<pdfrwt beam="2">  1       -2 0.50130199E-02 0.58880686E+03</pdfrwt>
<totfact> 0.98081136E+02</totfact>
</mgrwt>
</event>
<event>
 4    1  0.3541639E-005  0.3661460E+03  0.7818608E-02  0.1056176E+00
         -2   -1    0    0    0  501 -0.00000000000E+00  0.00000000000E+00  0.14173072895E+02  0.14173073124E+02  0.25500000000E-02 0. -1.
          2   -1    0    0  501    0  0.00000000000E+00 -0.00000000000E+00 -0.23647463080E+04  0.23647463080E+04  0.25500000000E-02 0.  1.
    5000001    1    1    2    0    0  0.15873856914E+01  0.73837850735E+02 -0.13631636923E+04  0.13750981056E+04  0.16500000000E+03 0.  0.
   -5000001    1    1    2    0    0 -0.15873856914E+01 -0.73837850735E+02 -0.98740954282E+03  0.10038212756E+04  0.16500000000E+03 0.  0.
<mgrwt>
<rscale>  0 0.36614599E+03</rscale>
<asrwt>0</asrwt>
<pdfrwt beam="1">  1        2 0.33782065E+00 0.36614599E+03</pdfrwt>
<pdfrwt beam="2">  1       -2 0.20247262E-02 0.36614599E+03</pdfrwt>
<totfact> 0.44336972E+03</totfact>
</mgrwt>
</event>
<event>
 4    1  0.3541639E-005  0.4874623E+03  0.7818608E-02  0.1017104E+00
          2   -1    0    0  501    0  0.00000000000E+00  0.00000000000E+00  0.13427968939E+04  0.13427968939E+04  0.25500000000E-02 0.  1.
         -2   -1    0    0    0  501 -0.00000000000E+00 -0.00000000000E+00 -0.44239663099E+02  0.44239663173E+02  0.25500000000E-02 0. -1.
    5000001    1    1    2    0    0 -0.16017419353E+03 -0.39018399730E+02  0.44804313581E+03  0.50511964854E+03  0.16500000000E+03 0.  0.
   -5000001    1    1    2    0    0  0.16017419353E+03  0.39018399730E+02  0.85051409500E+03  0.88191690855E+03  0.16500000000E+03 0.  0.
<mgrwt>
<rscale>  0 0.48746234E+03</rscale>
<asrwt>0</asrwt>
<pdfrwt beam="1">  1        2 0.19182808E+00 0.48746234E+03</pdfrwt>
<pdfrwt beam="2">  1       -2 0.63199535E-02 0.48746234E+03</pdfrwt>
<totfact> 0.25669437E+03</totfact>
</mgrwt>
</event>
<event>
 4    1  0.3541639E-005  0.7223693E+03  0.7818608E-02  0.9679724E-01
          2   -1    0    0  501    0  0.00000000000E+00  0.00000000000E+00  0.22424921195E+04  0.22424921195E+04  0.25500000000E-02 0.  1.
         -2   -1    0    0    0  501 -0.00000000000E+00 -0.00000000000E+00 -0.58173826833E+02  0.58173826889E+02  0.25500000000E-02 0. -1.
    5000001    1    1    2    0    0  0.12517257715E+03 -0.29223622039E+03  0.12401508186E+04  0.12908405151E+04  0.16500000000E+03 0.  0.
   -5000001    1    1    2    0    0 -0.12517257715E+03  0.29223622039E+03  0.94416747409E+03  0.10098254313E+04  0.16500000000E+03 0.  0.
<mgrwt>
<rscale>  0 0.72236929E+03</rscale>
<asrwt>0</asrwt>
<pdfrwt beam="1">  1        2 0.32035594E+00 0.72236929E+03</pdfrwt>
<pdfrwt beam="2">  1       -2 0.83105488E-02 0.72236929E+03</pdfrwt>
<totfact> 0.57190190E+02</totfact>
</mgrwt>
</event>
<event>
 4    1  0.3541639E-005  0.6865576E+03  0.7818608E-02  0.9740501E-01
          2   -1    0    0  501    0  0.00000000000E+00  0.00000000000E+00  0.15950952422E+04  0.15950952422E+04  0.25500000000E-02 0.  1.
         -2   -1    0    0    0  501 -0.00000000000E+00 -0.00000000000E+00 -0.73876686747E+02  0.73876686791E+02  0.25500000000E-02 0. -1.
    5000001    1    1    2    0    0  0.12049608954E+03 -0.25115199276E+03  0.48324139359E+03  0.58167334092E+03  0.16500000000E+03 0.  0.
   -5000001    1    1    2    0    0 -0.12049608954E+03  0.25115199276E+03  0.10379771618E+04  0.10872985880E+04  0.16500000000E+03 0.  0.
<mgrwt>
<rscale>  0 0.68655765E+03</rscale>
<asrwt>0</asrwt>
<pdfrwt beam="1">  1        2 0.22787075E+00 0.68655765E+03</pdfrwt>
<pdfrwt beam="2">  1       -2 0.10553812E-01 0.68655765E+03</pdfrwt>
<totfact> 0.82986800E+02</totfact>
</mgrwt>
</event>
<event>
 4    1  0.3541639E-005  0.5154483E+03  0.7818608E-02  0.1009824E+00
         -2   -1    0    0    0  501 -0.00000000000E+00  0.00000000000E+00  0.54567089407E+02  0.54567089467E+02  0.25500000000E-02 0. -1.
          2   -1    0    0  501    0  0.00000000000E+00 -0.00000000000E+00 -0.12172491771E+04  0.12172491771E+04  0.25500000000E-02 0.  1.
    5000001    1    1    2    0    0 -0.19241250550E+03  0.22602599157E+02 -0.48071187735E+03  0.54391392590E+03  0.16500000000E+03 0.  0.
   -5000001    1    1    2    0    0  0.19241250550E+03 -0.22602599157E+02 -0.68197021036E+03  0.72790234069E+03  0.16500000000E+03 0.  0.
<mgrwt>
<rscale>  0 0.51544833E+03</rscale>
<asrwt>0</asrwt>
<pdfrwt beam="1">  1        2 0.17389272E+00 0.51544833E+03</pdfrwt>
<pdfrwt beam="2">  1       -2 0.77952992E-02 0.51544833E+03</pdfrwt>
<totfact> 0.21580377E+03</totfact>
</mgrwt>
</event>
<event>
 4    1  0.3541639E-005  0.4262757E+03  0.7818608E-02  0.1035043E+00
          2   -1    0    0  501    0  0.00000000000E+00  0.00000000000E+00  0.11319354798E+04  0.11319354798E+04  0.25500000000E-02 0.  1.
         -2   -1    0    0    0  501 -0.00000000000E+00 -0.00000000000E+00 -0.40132793747E+02  0.40132793828E+02  0.25500000000E-02 0. -1.
    5000001    1    1    2    0    0  0.11611780559E+03 -0.58573868600E+02  0.44720456745E+03  0.49409631450E+03  0.16500000000E+03 0.  0.
   -5000001    1    1    2    0    0 -0.11611780559E+03  0.58573868600E+02  0.64459811859E+03  0.67797195911E+03  0.16500000000E+03 0.  0.
<mgrwt>
<rscale>  0 0.42627565E+03</rscale>
<asrwt>0</asrwt>
<pdfrwt beam="1">  1        2 0.16170503E+00 0.42627565E+03</pdfrwt>
<pdfrwt beam="2">  1       -2 0.57332576E-02 0.42627565E+03</pdfrwt>
<totfact> 0.38986425E+03</totfact>
</mgrwt>
</event>
<event>
 4    1  0.3541639E-005  0.4295077E+03  0.7818608E-02  0.1034016E+00
          2   -1    0    0  501    0  0.00000000000E+00  0.00000000000E+00  0.27923050944E+04  0.27923050944E+04  0.25500000000E-02 0.  1.
         -2   -1    0    0    0  501 -0.00000000000E+00 -0.00000000000E+00 -0.16516539905E+02  0.16516540102E+02  0.25500000000E-02 0. -1.
    5000001    1    1    2    0    0 -0.49275728852E+02 -0.12831426747E+03  0.13960886935E+04  0.14125088633E+04  0.16500000000E+03 0.  0.
   -5000001    1    1    2    0    0  0.49275728852E+02  0.12831426747E+03  0.13796998610E+04  0.13963127712E+04  0.16500000000E+03 0.  0.
<mgrwt>
<rscale>  0 0.42950771E+03</rscale>
<asrwt>0</asrwt>
<pdfrwt beam="1">  1        2 0.39890080E+00 0.42950771E+03</pdfrwt>
<pdfrwt beam="2">  1       -2 0.23595053E-02 0.42950771E+03</pdfrwt>
<totfact> 0.21289094E+03</totfact>
</mgrwt>
</event>
<event>
 4    1  0.3541639E-005  0.4914366E+03  0.7818608E-02  0.1016039E+00
         -2   -1    0    0    0  501 -0.00000000000E+00  0.00000000000E+00  0.10284065516E+04  0.10284065516E+04  0.25500000000E-02 0. -1.
          2   -1    0    0  501    0  0.00000000000E+00 -0.00000000000E+00 -0.58709746650E+02  0.58709746705E+02  0.25500000000E-02 0.  1.
    5000001    1    1    2    0    0  0.11386739887E+03 -0.97531696582E+02  0.71339650414E+03  0.74742075732E+03  0.16500000000E+03 0.  0.
   -5000001    1    1    2    0    0 -0.11386739887E+03  0.97531696582E+02  0.25630030078E+03  0.33969554095E+03  0.16500000000E+03 0.  0.
<mgrwt>
<rscale>  0 0.49143662E+03</rscale>
<asrwt>0</asrwt>
<pdfrwt beam="1">  1        2 0.83871067E-02 0.49143662E+03</pdfrwt>
<pdfrwt beam="2">  1       -2 0.14691522E+00 0.49143662E+03</pdfrwt>
<totfact> 0.26804711E+02</totfact>
</mgrwt>
</event>
<event>
 4    1  0.3541639E-005  0.3598970E+03  0.7818608E-02  0.1058625E+00
          2   -1    0    0  501    0  0.00000000000E+00  0.00000000000E+00  0.47054608722E+02  0.47054608791E+02  0.25500000000E-02 0.  1.
         -2   -1    0    0    0  501 -0.00000000000E+00 -0.00000000000E+00 -0.68816782709E+03  0.68816782709E+03  0.25500000000E-02 0. -1.
    5000001    1    1    2    0    0 -0.43095096135E+02 -0.56482559092E+02 -0.34188489135E+03  0.38620945836E+03  0.16500000000E+03 0.  0.
   -5000001    1    1    2    0    0  0.43095096135E+02  0.56482559092E+02 -0.29922832701E+03  0.34901297752E+03  0.16500000000E+03 0.  0.
<mgrwt>
<rscale>  0 0.35989703E+03</rscale>
<asrwt>0</asrwt>
<pdfrwt beam="1">  1        2 0.67220874E-02 0.35989703E+03</pdfrwt>
<pdfrwt beam="2">  1       -2 0.98309684E-01 0.35989703E+03</pdfrwt>
<totfact> 0.95648752E+02</totfact>
</mgrwt>
</event>
<event>
 4    1  0.3541639E-005  0.3708288E+03  0.7818608E-02  0.1054377E+00
         -2   -1    0    0    0  501 -0.00000000000E+00  0.00000000000E+00  0.36663349313E+02  0.36663349401E+02  0.25500000000E-02 0.  1.
          2   -1    0    0  501    0  0.00000000000E+00 -0.00000000000E+00 -0.93768005449E+03  0.93768005449E+03  0.25500000000E-02 0. -1.
    5000001    1    1    2    0    0  0.54919249150E+02  0.35737023868E+02 -0.30998796984E+03  0.35722653911E+03  0.16500000000E+03 0.  0.
   -5000001    1    1    2    0    0 -0.54919249150E+02 -0.35737023868E+02 -0.59102873534E+03  0.61711686478E+03  0.16500000000E+03 0.  0.
<mgrwt>
<rscale>  0 0.37082876E+03</rscale>
<asrwt>0</asrwt>
<pdfrwt beam="1">  1        2 0.13395428E+00 0.37082876E+03</pdfrwt>
<pdfrwt beam="2">  1       -2 0.52376219E-02 0.37082876E+03</pdfrwt>
<totfact> 0.58267204E+03</totfact>
</mgrwt>
</event>
<event>
 4    1  0.3541639E-005  0.4291776E+03  0.7818608E-02  0.1034120E+00
         -2   -1    0    0    0  501 -0.00000000000E+00  0.00000000000E+00  0.53930593381E+03  0.53930593382E+03  0.25500000000E-02 0. -1.
          2   -1    0    0  501    0  0.00000000000E+00 -0.00000000000E+00 -0.85384467028E+02  0.85384467066E+02  0.25500000000E-02 0.  1.
    5000001    1    1    2    0    0 -0.60747587557E+02  0.12292942918E+03  0.22022170192E+03  0.30744838908E+03  0.16500000000E+03 0.  0.
   -5000001    1    1    2    0    0  0.60747587557E+02 -0.12292942918E+03  0.23369976486E+03  0.31724201180E+03  0.16500000000E+03 0.  0.
<mgrwt>
<rscale>  0 0.42917758E+03</rscale>
<asrwt>0</asrwt>
<pdfrwt beam="1">  1        2 0.12197781E-01 0.42917758E+03</pdfrwt>
<pdfrwt beam="2">  1       -2 0.77043702E-01 0.42917758E+03</pdfrwt>
<totfact> 0.78117877E+02</totfact>
</mgrwt>
</event>
<event>
 4    1  0.3541639E-005  0.4426876E+03  0.7818608E-02  0.1029925E+00
         -2   -1    0    0    0  501 -0.00000000000E+00  0.00000000000E+00  0.37167114424E+02  0.37167114512E+02  0.25500000000E-02 0. -1.
          2   -1    0    0  501    0  0.00000000000E+00 -0.00000000000E+00 -0.13181837793E+04  0.13181837793E+04  0.25500000000E-02 0.  1.
    5000001    1    1    2    0    0 -0.10843992570E+02  0.14583397415E+03 -0.58059495378E+03  0.62104801791E+03  0.16500000000E+03 0.  0.
   -5000001    1    1    2    0    0  0.10843992570E+02 -0.14583397415E+03 -0.70042171108E+03  0.73430287589E+03  0.16500000000E+03 0.  0.
<mgrwt>
<rscale>  0 0.44268764E+03</rscale>
<asrwt>0</asrwt>
<pdfrwt beam="1">  1        2 0.18831194E+00 0.44268764E+03</pdfrwt>
<pdfrwt beam="2">  1       -2 0.53095886E-02 0.44268764E+03</pdfrwt>
<totfact> 0.34688228E+03</totfact>
</mgrwt>
</event>
<event>
 4    1  0.3541639E-005  0.7768410E+03  0.7818608E-02  0.9594157E-01
         -2   -1    0    0    0  501 -0.00000000000E+00  0.00000000000E+00  0.46725979343E+02  0.46725979412E+02  0.25500000000E-02 0. -1.
          2   -1    0    0  501    0  0.00000000000E+00 -0.00000000000E+00 -0.32288350071E+04  0.32288350071E+04  0.25500000000E-02 0.  1.
    5000001    1    1    2    0    0  0.18573043156E+03 -0.17862971369E+03 -0.25998603476E+04  0.26178050338E+04  0.16500000000E+03 0.  0.
   -5000001    1    1    2    0    0 -0.18573043156E+03  0.17862971369E+03 -0.58224868017E+03  0.65775595275E+03  0.16500000000E+03 0.  0.
<mgrwt>
<rscale>  0 0.77684098E+03</rscale>
<asrwt>0</asrwt>
<pdfrwt beam="1">  1        2 0.46126200E+00 0.77684098E+03</pdfrwt>
<pdfrwt beam="2">  1       -2 0.66751420E-02 0.77684098E+03</pdfrwt>
<totfact> 0.24110749E+02</totfact>
</mgrwt>
</event>
<event>
 4    1  0.3541639E-005  0.4004265E+03  0.7818608E-02  0.1043632E+00
          2   -1    0    0  501    0  0.00000000000E+00  0.00000000000E+00  0.26366635482E+04  0.26366635482E+04  0.25500000000E-02 0.  1.
         -2   -1    0    0    0  501 -0.00000000000E+00 -0.00000000000E+00 -0.15203058602E+02  0.15203058816E+02  0.25500000000E-02 0. -1.
    5000001    1    1    2    0    0 -0.45104453767E+02 -0.37083721992E+02  0.66691439646E+03  0.68949940275E+03  0.16500000000E+03 0.  0.
   -5000001    1    1    2    0    0  0.45104453767E+02  0.37083721992E+02  0.19545460932E+04  0.19623672043E+04  0.16500000000E+03 0.  0.
<mgrwt>
<rscale>  0 0.40042653E+03</rscale>
<asrwt>0</asrwt>
<pdfrwt beam="1">  1        2 0.37666628E+00 0.40042653E+03</pdfrwt>
<pdfrwt beam="2">  1       -2 0.21718652E-02 0.40042653E+03</pdfrwt>
<totfact> 0.29062398E+03</totfact>
</mgrwt>
</event>
<event>
 4    1  0.3541639E-005  0.5925508E+03  0.7818608E-02  0.9920982E-01
          2   -1    0    0  501    0  0.00000000000E+00  0.00000000000E+00  0.27235554828E+03  0.27235554829E+03  0.25500000000E-02 0.  1.
         -2   -1    0    0    0  501 -0.00000000000E+00 -0.00000000000E+00 -0.32229606803E+03  0.32229606804E+03  0.25500000000E-02 0. -1.
    5000001    1    1    2    0    0 -0.72671847763E+02  0.16775323039E+03 -0.19027150423E+03  0.31120827284E+03  0.16500000000E+03 0.  0.
   -5000001    1    1    2    0    0  0.72671847763E+02 -0.16775323039E+03  0.14033098448E+03  0.28344334349E+03  0.16500000000E+03 0.  0.
<mgrwt>
<rscale>  0 0.59255083E+03</rscale>
<asrwt>0</asrwt>
<pdfrwt beam="1">  1        2 0.38907936E-01 0.59255083E+03</pdfrwt>
<pdfrwt beam="2">  1       -2 0.46042295E-01 0.59255083E+03</pdfrwt>
<totfact> 0.59825469E+02</totfact>
</mgrwt>
</event>
<event>
 4    1  0.3541639E-005  0.8945469E+03  0.7818608E-02  0.9432424E-01
         -2   -1    0    0    0  501 -0.00000000000E+00  0.00000000000E+00  0.87579791840E+02  0.87579791877E+02  0.25500000000E-02 0. -1.
          2   -1    0    0  501    0  0.00000000000E+00 -0.00000000000E+00 -0.22842433411E+04  0.22842433411E+04  0.25500000000E-02 0.  1.
    5000001    1    1    2    0    0 -0.37334026822E+03  0.81999015201E+02 -0.15317545339E+04  0.15873259736E+04  0.16500000000E+03 0.  0.
   -5000001    1    1    2    0    0  0.37334026822E+03 -0.81999015201E+02 -0.66490901542E+03  0.78449715943E+03  0.16500000000E+03 0.  0.
<mgrwt>
<rscale>  0 0.89454694E+03</rscale>
<asrwt>0</asrwt>
<pdfrwt beam="1">  1        2 0.32632044E+00 0.89454694E+03</pdfrwt>
<pdfrwt beam="2">  1       -2 0.12511400E-01 0.89454694E+03</pdfrwt>
<totfact> 0.27573591E+02</totfact>
</mgrwt>
</event>
<event>
 4    1  0.3541639E-005  0.5027691E+03  0.7818608E-02  0.1013059E+00
          2   -1    0    0  501    0  0.00000000000E+00  0.00000000000E+00  0.14004468930E+04  0.14004468930E+04  0.25500000000E-02 0.  1.
         -2   -1    0    0    0  501 -0.00000000000E+00 -0.00000000000E+00 -0.45124301060E+02  0.45124301132E+02  0.25500000000E-02 0. -1.
    5000001    1    1    2    0    0  0.98054751834E+02  0.15569742197E+03  0.54550234189E+03  0.59887747209E+03  0.16500000000E+03 0.  0.
   -5000001    1    1    2    0    0 -0.98054751834E+02 -0.15569742197E+03  0.80982025006E+03  0.84669372206E+03  0.16500000000E+03 0.  0.
<mgrwt>
<rscale>  0 0.50276908E+03</rscale>
<asrwt>0</asrwt>
<pdfrwt beam="1">  1        2 0.20006385E+00 0.50276908E+03</pdfrwt>
<pdfrwt beam="2">  1       -2 0.64463283E-02 0.50276908E+03</pdfrwt>
<totfact> 0.23189104E+03</totfact>
</mgrwt>
</event>
<event>
 4    1  0.3541639E-005  0.4522003E+03  0.7818608E-02  0.1027068E+00
         -2   -1    0    0    0  501 -0.00000000000E+00  0.00000000000E+00  0.22532123918E+03  0.22532123919E+03  0.25500000000E-02 0. -1.
          2   -1    0    0  501    0  0.00000000000E+00 -0.00000000000E+00 -0.22688177915E+03  0.22688177917E+03  0.25500000000E-02 0.  1.
    5000001    1    1    2    0    0 -0.91078684258E+02 -0.78878389251E+02  0.96066352642E+02  0.22576729419E+03  0.16500000000E+03 0.  0.
   -5000001    1    1    2    0    0  0.91078684258E+02  0.78878389251E+02 -0.97626892619E+02  0.22643572417E+03  0.16500000000E+03 0.  0.
<mgrwt>
<rscale>  0 0.45220033E+03</rscale>
<asrwt>0</asrwt>
<pdfrwt beam="1">  1        2 0.32411683E-01 0.45220033E+03</pdfrwt>
<pdfrwt beam="2">  1       -2 0.32188748E-01 0.45220033E+03</pdfrwt>
<totfact> 0.14580696E+03</totfact>
</mgrwt>
</event>
<event>
 4    1  0.3541639E-005  0.3738907E+03  0.7818608E-02  0.1053215E+00
          2   -1    0    0  501    0  0.00000000000E+00  0.00000000000E+00  0.60919946988E+03  0.60919946989E+03  0.25500000000E-02 0.  1.
         -2   -1    0    0    0  501 -0.00000000000E+00 -0.00000000000E+00 -0.57368015171E+02  0.57368015227E+02  0.25500000000E-02 0. -1.
    5000001    1    1    2    0    0 -0.78229933078E+02 -0.23270460036E+02  0.21781416260E+03  0.28518318003E+03  0.16500000000E+03 0.  0.
   -5000001    1    1    2    0    0  0.78229933078E+02  0.23270460036E+02  0.33401729211E+03  0.38138430509E+03  0.16500000000E+03 0.  0.
<mgrwt>
<rscale>  0 0.37389070E+03</rscale>
<asrwt>0</asrwt>
<pdfrwt beam="1">  1        2 0.87028491E-01 0.37389070E+03</pdfrwt>
<pdfrwt beam="2">  1       -2 0.81954312E-02 0.37389070E+03</pdfrwt>
<totfact> 0.49493426E+03</totfact>
</mgrwt>
</event>
<event>
 4    1  0.3541639E-005  0.9005256E+03  0.7818608E-02  0.9424925E-01
          2   -1    0    0  501    0  0.00000000000E+00  0.00000000000E+00  0.29260445209E+04  0.29260445209E+04  0.25500000000E-02 0.  1.
         -2   -1    0    0    0  501 -0.00000000000E+00 -0.00000000000E+00 -0.69286917472E+02  0.69286917519E+02  0.25500000000E-02 0. -1.
    5000001    1    1    2    0    0 -0.37665066479E+03  0.45981275217E+02  0.83774018505E+03  0.93435197790E+03  0.16500000000E+03 0.  0.
   -5000001    1    1    2    0    0  0.37665066479E+03 -0.45981275217E+02  0.20190174184E+04  0.20609794605E+04  0.16500000000E+03 0.  0.
<mgrwt>
<rscale>  0 0.90052564E+03</rscale>
<asrwt>0</asrwt>
<pdfrwt beam="1">  1        2 0.41800645E+00 0.90052564E+03</pdfrwt>
<pdfrwt beam="2">  1       -2 0.98981289E-02 0.90052564E+03</pdfrwt>
<totfact> 0.18642206E+02</totfact>
</mgrwt>
</event>
<event>
 4    1  0.3541639E-005  0.6705724E+03  0.7818608E-02  0.9768924E-01
         -2   -1    0    0    0  501 -0.00000000000E+00  0.00000000000E+00  0.38338977792E+02  0.38338977876E+02  0.25500000000E-02 0. -1.
          2   -1    0    0  501    0  0.00000000000E+00 -0.00000000000E+00 -0.29321815852E+04  0.29321815852E+04  0.25500000000E-02 0.  1.
    5000001    1    1    2    0    0 -0.47328150535E+02  0.28786106013E+03 -0.14053892069E+04  0.14448002515E+04  0.16500000000E+03 0.  0.
   -5000001    1    1    2    0    0  0.47328150535E+02 -0.28786106013E+03 -0.14884534005E+04  0.15257203116E+04  0.16500000000E+03 0.  0.
<mgrwt>
<rscale>  0 0.67057243E+03</rscale>
<asrwt>0</asrwt>
<pdfrwt beam="1">  1        2 0.41888294E+00 0.67057243E+03</pdfrwt>
<pdfrwt beam="2">  1       -2 0.54769987E-02 0.67057243E+03</pdfrwt>
<totfact> 0.48554478E+02</totfact>
</mgrwt>
</event>
<event>
 4    1  0.3541639E-005  0.4324224E+03  0.7818608E-02  0.1033097E+00
          2   -1    0    0  501    0  0.00000000000E+00  0.00000000000E+00  0.95146672369E+02  0.95146672404E+02  0.25500000000E-02 0.  1.
         -2   -1    0    0    0  501 -0.00000000000E+00 -0.00000000000E+00 -0.49131802140E+03  0.49131802141E+03  0.25500000000E-02 0. -1.
    5000001    1    1    2    0    0 -0.75277346749E+02  0.10530938521E+03 -0.12676378221E+03  0.24505265154E+03  0.16500000000E+03 0.  0.
   -5000001    1    1    2    0    0  0.75277346749E+02 -0.10530938521E+03 -0.26940756682E+03  0.34141204227E+03  0.16500000000E+03 0.  0.
<mgrwt>
<rscale>  0 0.43242236E+03</rscale>
<asrwt>0</asrwt>
<pdfrwt beam="1">  1        2 0.13592382E-01 0.43242236E+03</pdfrwt>
<pdfrwt beam="2">  1       -2 0.70188287E-01 0.43242236E+03</pdfrwt>
<totfact> 0.83877054E+02</totfact>
</mgrwt>
</event>
<event>
 4    1  0.3541639E-005  0.4782539E+03  0.7818608E-02  0.1019616E+00
          2   -1    0    0  501    0  0.00000000000E+00  0.00000000000E+00  0.41536591818E+03  0.41536591818E+03  0.25500000000E-02 0.  1.
         -2   -1    0    0    0  501 -0.00000000000E+00 -0.00000000000E+00 -0.13766586412E+03  0.13766586414E+03  0.25500000000E-02 0. -1.
    5000001    1    1    2    0    0  0.99143968524E+02  0.85539449528E+02  0.26972880137E+03  0.34223551863E+03  0.16500000000E+03 0.  0.
   -5000001    1    1    2    0    0 -0.99143968524E+02 -0.85539449528E+02  0.79712526900E+01  0.21079626370E+03  0.16500000000E+03 0.  0.
<mgrwt>
<rscale>  0 0.47825394E+03</rscale>
<asrwt>0</asrwt>
<pdfrwt beam="1">  1        2 0.59337989E-01 0.47825394E+03</pdfrwt>
<pdfrwt beam="2">  1       -2 0.19666552E-01 0.47825394E+03</pdfrwt>
<totfact> 0.18117970E+03</totfact>
</mgrwt>
</event>
<event>
 4    1  0.3541639E-005  0.4764483E+03  0.7818608E-02  0.1020116E+00
          2   -1    0    0  501    0  0.00000000000E+00  0.00000000000E+00  0.16127276124E+04  0.16127276124E+04  0.25500000000E-02 0.  1.
         -2   -1    0    0    0  501 -0.00000000000E+00 -0.00000000000E+00 -0.35189291660E+02  0.35189291752E+02  0.25500000000E-02 0. -1.
    5000001    1    1    2    0    0 -0.10236595359E+03  0.91365926623E+02  0.43100599317E+03  0.48147449273E+03  0.16500000000E+03 0.  0.
   -5000001    1    1    2    0    0  0.10236595359E+03 -0.91365926623E+02  0.11465323275E+04  0.11664424114E+04  0.16500000000E+03 0.  0.
<mgrwt>
<rscale>  0 0.47644829E+03</rscale>
<asrwt>0</asrwt>
<pdfrwt beam="1">  1        2 0.23038965E+00 0.47644829E+03</pdfrwt>
<pdfrwt beam="2">  1       -2 0.50270418E-02 0.47644829E+03</pdfrwt>
<totfact> 0.26519172E+03</totfact>
</mgrwt>
</event>
<event>
 4    1  0.3541639E-005  0.7755062E+03  0.7818608E-02  0.9596164E-01
         -2   -1    0    0    0  501 -0.00000000000E+00  0.00000000000E+00  0.16880356155E+03  0.16880356157E+03  0.25500000000E-02 0. -1.
          2   -1    0    0  501    0  0.00000000000E+00 -0.00000000000E+00 -0.89069476506E+03  0.89069476507E+03  0.25500000000E-02 0.  1.
    5000001    1    1    2    0    0 -0.13166528875E+03  0.22006613301E+03 -0.68815775898E+03  0.75269579008E+03  0.16500000000E+03 0.  0.
   -5000001    1    1    2    0    0  0.13166528875E+03 -0.22006613301E+03 -0.33733444524E+02  0.30680253656E+03  0.16500000000E+03 0.  0.
<mgrwt>
<rscale>  0 0.77550615E+03</rscale>
<asrwt>0</asrwt>
<pdfrwt beam="1">  1        2 0.12724211E+00 0.77550615E+03</pdfrwt>
<pdfrwt beam="2">  1       -2 0.24114795E-01 0.77550615E+03</pdfrwt>
<totfact> 0.50594709E+02</totfact>
</mgrwt>
</event>
<event>
 4    1  0.3541639E-005  0.3825441E+03  0.7818608E-02  0.1049997E+00
          2   -1    0    0  501    0  0.00000000000E+00  0.00000000000E+00  0.18903599409E+04  0.18903599409E+04  0.25500000000E-02 0.  1.
         -2   -1    0    0    0  501 -0.00000000000E+00 -0.00000000000E+00 -0.19353451485E+02  0.19353451653E+02  0.25500000000E-02 0. -1.
    5000001    1    1    2    0    0  0.34735477370E+02 -0.72546985511E+02  0.12038915150E+04  0.12178051561E+04  0.16500000000E+03 0.  0.
   -5000001    1    1    2    0    0 -0.34735477370E+02  0.72546985511E+02  0.66711497442E+03  0.69190823639E+03  0.16500000000E+03 0.  0.
<mgrwt>
<rscale>  0 0.38254406E+03</rscale>
<asrwt>0</asrwt>
<pdfrwt beam="1">  1        2 0.27005144E+00 0.38254406E+03</pdfrwt>
<pdfrwt beam="2">  1       -2 0.27647786E-02 0.38254406E+03</pdfrwt>
<totfact> 0.47831879E+03</totfact>
</mgrwt>
</event>
<event>
 4    1  0.3541639E-005  0.4399236E+03  0.7818608E-02  0.1030770E+00
          2   -1    0    0  501    0  0.00000000000E+00  0.00000000000E+00  0.14894115505E+03  0.14894115507E+03  0.25500000000E-02 0.  1.
         -2   -1    0    0    0  501 -0.00000000000E+00 -0.00000000000E+00 -0.32484771558E+03  0.32484771559E+03  0.25500000000E-02 0. -1.
    5000001    1    1    2    0    0 -0.49301092603E+02  0.11920618276E+03 -0.15567073513E+02  0.21001915512E+03  0.16500000000E+03 0.  0.
   -5000001    1    1    2    0    0  0.49301092603E+02 -0.11920618276E+03 -0.16033948701E+03  0.26376971554E+03  0.16500000000E+03 0.  0.
<mgrwt>
<rscale>  0 0.43992360E+03</rscale>
<asrwt>0</asrwt>
<pdfrwt beam="1">  1        2 0.21277308E-01 0.43992360E+03</pdfrwt>
<pdfrwt beam="2">  1       -2 0.46406816E-01 0.43992360E+03</pdfrwt>
<totfact> 0.11620888E+03</totfact>
</mgrwt>
</event>
<event>
 4    1  0.3541639E-005  0.5529169E+03  0.7818608E-02  0.1000821E+00
         -2   -1    0    0    0  501 -0.00000000000E+00  0.00000000000E+00  0.13552224793E+03  0.13552224796E+03  0.25500000000E-02 0. -1.
          2   -1    0    0  501    0  0.00000000000E+00 -0.00000000000E+00 -0.56396113210E+03  0.56396113210E+03  0.25500000000E-02 0.  1.
    5000001    1    1    2    0    0 -0.19403381230E+03  0.87933305343E+01 -0.78685661378E+02  0.26672621972E+03  0.16500000000E+03 0.  0.
   -5000001    1    1    2    0    0  0.19403381230E+03 -0.87933305343E+01 -0.34975322278E+03  0.43275716034E+03  0.16500000000E+03 0.  0.
<mgrwt>
<rscale>  0 0.55291692E+03</rscale>
<asrwt>0</asrwt>
<pdfrwt beam="1">  1        2 0.80565875E-01 0.55291692E+03</pdfrwt>
<pdfrwt beam="2">  1       -2 0.19360321E-01 0.55291692E+03</pdfrwt>
<totfact> 0.13185522E+03</totfact>
</mgrwt>
</event>
<event>
 4    1  0.3541639E-005  0.5701412E+03  0.7818608E-02  0.9969366E-01
         -2   -1    0    0    0  501 -0.00000000000E+00  0.00000000000E+00  0.15153445686E+03  0.15153445688E+03  0.25500000000E-02 0. -1.
          2   -1    0    0  501    0  0.00000000000E+00 -0.00000000000E+00 -0.53628234412E+03  0.53628234413E+03  0.25500000000E-02 0.  1.
    5000001    1    1    2    0    0  0.20830151402E+03  0.33478704316E+01 -0.67936393787E+02  0.27430108017E+03  0.16500000000E+03 0.  0.
   -5000001    1    1    2    0    0 -0.20830151402E+03 -0.33478704316E+01 -0.31681149348E+03  0.41351572084E+03  0.16500000000E+03 0.  0.
<mgrwt>
<rscale>  0 0.57014122E+03</rscale>
<asrwt>0</asrwt>
<pdfrwt beam="1">  1        2 0.76611762E-01 0.57014122E+03</pdfrwt>
<pdfrwt beam="2">  1       -2 0.21647780E-01 0.57014122E+03</pdfrwt>
<totfact> 0.11498926E+03</totfact>
</mgrwt>
</event>
<event>
 4    1  0.3541639E-005  0.6909788E+03  0.7818608E-02  0.9732785E-01
          2   -1    0    0  501    0  0.00000000000E+00  0.00000000000E+00  0.26279128650E+04  0.26279128650E+04  0.25500000000E-02 0.  1.
         -2   -1    0    0    0  501 -0.00000000000E+00 -0.00000000000E+00 -0.45421185406E+02  0.45421185478E+02  0.25500000000E-02 0. -1.
    5000001    1    1    2    0    0 -0.18545516123E+03 -0.24013812351E+03  0.13254112594E+04  0.13696714722E+04  0.16500000000E+03 0.  0.
   -5000001    1    1    2    0    0  0.18545516123E+03  0.24013812351E+03  0.12570804202E+04  0.13036625783E+04  0.16500000000E+03 0.  0.
<mgrwt>
<rscale>  0 0.69097878E+03</rscale>
<asrwt>0</asrwt>
<pdfrwt beam="1">  1        2 0.37541604E+00 0.69097878E+03</pdfrwt>
<pdfrwt beam="2">  1       -2 0.64887422E-02 0.69097878E+03</pdfrwt>
<totfact> 0.53866122E+02</totfact>
</mgrwt>
</event>
<event>
 4    1  0.3541639E-005  0.4928633E+03  0.7818608E-02  0.1015659E+00
         -2   -1    0    0    0  501 -0.00000000000E+00  0.00000000000E+00  0.66862255651E+02  0.66862255700E+02  0.25500000000E-02 0. -1.
          2   -1    0    0  501    0  0.00000000000E+00 -0.00000000000E+00 -0.90826354112E+03  0.90826354112E+03  0.25500000000E-02 0.  1.
    5000001    1    1    2    0    0 -0.52683507572E+02  0.37979729945E+02 -0.75928024877E+03  0.77971116961E+03  0.16500000000E+03 0.  0.
   -5000001    1    1    2    0    0  0.52683507572E+02 -0.37979729945E+02 -0.82121036699E+02  0.19541462720E+03  0.16500000000E+03 0.  0.
<mgrwt>
<rscale>  0 0.49286326E+03</rscale>
<asrwt>0</asrwt>
<pdfrwt beam="1">  1        2 0.12975193E+00 0.49286326E+03</pdfrwt>
<pdfrwt beam="2">  1       -2 0.95517513E-02 0.49286326E+03</pdfrwt>
<totfact> 0.23746357E+03</totfact>
</mgrwt>
</event>
<event>
 4    1  0.3541639E-005  0.3801356E+03  0.7818608E-02  0.1050884E+00
         -2   -1    0    0    0  501 -0.00000000000E+00  0.00000000000E+00  0.40491735483E+02  0.40491735563E+02  0.25500000000E-02 0. -1.
          2   -1    0    0  501    0  0.00000000000E+00 -0.00000000000E+00 -0.89217622787E+03  0.89217622787E+03  0.25500000000E-02 0.  1.
    5000001    1    1    2    0    0  0.53547292966E+02 -0.76908723496E+02 -0.45255058368E+03  0.49072323679E+03  0.16500000000E+03 0.  0.
   -5000001    1    1    2    0    0 -0.53547292966E+02  0.76908723496E+02 -0.39913390870E+03  0.44194472664E+03  0.16500000000E+03 0.  0.
<mgrwt>
<rscale>  0 0.38013558E+03</rscale>
<asrwt>0</asrwt>
<pdfrwt beam="1">  1        2 0.12745374E+00 0.38013558E+03</pdfrwt>
<pdfrwt beam="2">  1       -2 0.57845342E-02 0.38013558E+03</pdfrwt>
<totfact> 0.53425731E+03</totfact>
</mgrwt>
</event>
<event>
 4    1  0.3541639E-005  0.4087505E+03  0.7818608E-02  0.1040791E+00
         -2   -1    0    0    0  501 -0.00000000000E+00  0.00000000000E+00  0.20987336574E+02  0.20987336729E+02  0.25500000000E-02 0. -1.
          2   -1    0    0  501    0  0.00000000000E+00 -0.00000000000E+00 -0.19902114021E+04  0.19902114021E+04  0.25500000000E-02 0.  1.
    5000001    1    1    2    0    0 -0.11710028541E+03  0.24621154179E+02 -0.91071509408E+03  0.93324469495E+03  0.16500000000E+03 0.  0.
   -5000001    1    1    2    0    0  0.11710028541E+03 -0.24621154179E+02 -0.10585089715E+04  0.10779540439E+04  0.16500000000E+03 0.  0.
<mgrwt>
<rscale>  0 0.40875047E+03</rscale>
<asrwt>0</asrwt>
<pdfrwt beam="1">  1        2 0.28431579E+00 0.40875047E+03</pdfrwt>
<pdfrwt beam="2">  1       -2 0.29981922E-02 0.40875047E+03</pdfrwt>
<totfact> 0.37782001E+03</totfact>
</mgrwt>
</event>
<event>
 4    1  0.3541639E-005  0.3997085E+03  0.7818608E-02  0.1043881E+00
          2   -1    0    0  501    0  0.00000000000E+00  0.00000000000E+00  0.11672136786E+04  0.11672136786E+04  0.25500000000E-02 0.  1.
         -2   -1    0    0    0  501 -0.00000000000E+00 -0.00000000000E+00 -0.34219715766E+02  0.34219715861E+02  0.25500000000E-02 0. -1.
    5000001    1    1    2    0    0 -0.10452607958E+03 -0.40119268261E+02  0.52600669776E+03  0.56253293511E+03  0.16500000000E+03 0.  0.
   -5000001    1    1    2    0    0  0.10452607958E+03  0.40119268261E+02  0.60698726510E+03  0.63890045938E+03  0.16500000000E+03 0.  0.
<mgrwt>
<rscale>  0 0.39970850E+03</rscale>
<asrwt>0</asrwt>
<pdfrwt beam="1">  1        2 0.16674481E+00 0.39970850E+03</pdfrwt>
<pdfrwt beam="2">  1       -2 0.48885309E-02 0.39970850E+03</pdfrwt>
<totfact> 0.47593167E+03</totfact>
</mgrwt>
</event>
<event>
 4    1  0.3541639E-005  0.5903190E+03  0.7818608E-02  0.9925697E-01
         -2   -1    0    0    0  501 -0.00000000000E+00  0.00000000000E+00  0.25931194763E+02  0.25931194888E+02  0.25500000000E-02 0. -1.
          2   -1    0    0  501    0  0.00000000000E+00 -0.00000000000E+00 -0.33596268942E+04  0.33596268942E+04  0.25500000000E-02 0.  1.
    5000001    1    1    2    0    0  0.10875252639E+03  0.21836543576E+03 -0.17791692242E+04  0.18033798003E+04  0.16500000000E+03 0.  0.
   -5000001    1    1    2    0    0 -0.10875252639E+03 -0.21836543576E+03 -0.15545264752E+04  0.15821782888E+04  0.16500000000E+03 0.  0.
<mgrwt>
<rscale>  0 0.59031903E+03</rscale>
<asrwt>0</asrwt>
<pdfrwt beam="1">  1        2 0.47994642E+00 0.59031903E+03</pdfrwt>
<pdfrwt beam="2">  1       -2 0.37044586E-02 0.59031903E+03</pdfrwt>
<totfact> 0.51739639E+02</totfact>
</mgrwt>
</event>
<event>
 4    1  0.3541639E-005  0.7046448E+03  0.7818608E-02  0.9709322E-01
         -2   -1    0    0    0  501 -0.00000000000E+00  0.00000000000E+00  0.71198359170E+02  0.71198359215E+02  0.25500000000E-02 0. -1.
          2   -1    0    0  501    0  0.00000000000E+00 -0.00000000000E+00 -0.17434539081E+04  0.17434539081E+04  0.25500000000E-02 0.  1.
    5000001    1    1    2    0    0  0.73343813559E+02  0.24319576848E+03 -0.37270349112E+03  0.48026699771E+03  0.16500000000E+03 0.  0.
   -5000001    1    1    2    0    0 -0.73343813559E+02 -0.24319576848E+03 -0.12995520578E+04  0.13343852696E+04  0.16500000000E+03 0.  0.
<mgrwt>
<rscale>  0 0.70464475E+03</rscale>
<asrwt>0</asrwt>
<pdfrwt beam="1">  1        2 0.24906482E+00 0.70464475E+03</pdfrwt>
<pdfrwt beam="2">  1       -2 0.10171195E-01 0.70464475E+03</pdfrwt>
<totfact> 0.73904966E+02</totfact>
</mgrwt>
</event>
<event>
 4    1  0.3541639E-005  0.7842727E+03  0.7818608E-02  0.9583065E-01
          2   -1    0    0  501    0  0.00000000000E+00  0.00000000000E+00  0.15404319761E+04  0.15404319761E+04  0.25500000000E-02 0.  1.
         -2   -1    0    0    0  501 -0.00000000000E+00 -0.00000000000E+00 -0.99823253093E+02  0.99823253126E+02  0.25500000000E-02 0. -1.
    5000001    1    1    2    0    0  0.49458048484E+02 -0.32840663317E+03  0.45370659468E+03  0.58597925674E+03  0.16500000000E+03 0.  0.
   -5000001    1    1    2    0    0 -0.49458048484E+02  0.32840663317E+03  0.98690212833E+03  0.10542759725E+04  0.16500000000E+03 0.  0.
<mgrwt>
<rscale>  0 0.78427274E+03</rscale>
<asrwt>0</asrwt>
<pdfrwt beam="1">  1        2 0.22006172E+00 0.78427274E+03</pdfrwt>
<pdfrwt beam="2">  1       -2 0.14260464E-01 0.78427274E+03</pdfrwt>
<totfact> 0.53548442E+02</totfact>
</mgrwt>
</event>
<event>
 4    1  0.3541639E-005  0.4712344E+03  0.7818608E-02  0.1021572E+00
         -2   -1    0    0    0  501 -0.00000000000E+00  0.00000000000E+00  0.93686890188E+02  0.93686890223E+02  0.25500000000E-02 0. -1.
          2   -1    0    0  501    0  0.00000000000E+00 -0.00000000000E+00 -0.59256396791E+03  0.59256396792E+03  0.25500000000E-02 0.  1.
    5000001    1    1    2    0    0 -0.96031557193E+02  0.12856706203E+03 -0.32281738762E+03  0.39646893342E+03  0.16500000000E+03 0.  0.
   -5000001    1    1    2    0    0  0.96031557193E+02 -0.12856706203E+03 -0.17605969010E+03  0.28978192472E+03  0.16500000000E+03 0.  0.
<mgrwt>
<rscale>  0 0.47123444E+03</rscale>
<asrwt>0</asrwt>
<pdfrwt beam="1">  1        2 0.84651993E-01 0.47123444E+03</pdfrwt>
<pdfrwt beam="2">  1       -2 0.13383842E-01 0.47123444E+03</pdfrwt>
<totfact> 0.23235018E+03</totfact>
</mgrwt>
</event>
<event>
 4    1  0.3541639E-005  0.7862552E+03  0.7818608E-02  0.9580128E-01
          2   -1    0    0  501    0  0.00000000000E+00  0.00000000000E+00  0.47395607099E+03  0.47395607100E+03  0.25500000000E-02 0. -1.
         -2   -1    0    0    0  501 -0.00000000000E+00 -0.00000000000E+00 -0.32608357819E+03  0.32608357820E+03  0.25500000000E-02 0.  1.
    5000001    1    1    2    0    0  0.18061570231E+03  0.28461997747E+03  0.19300802890E+03  0.42202803546E+03  0.16500000000E+03 0.  0.
   -5000001    1    1    2    0    0 -0.18061570231E+03 -0.28461997747E+03 -0.45135536097E+02  0.37801161373E+03  0.16500000000E+03 0.  0.
<mgrwt>
<rscale>  0 0.78625515E+03</rscale>
<asrwt>0</asrwt>
<pdfrwt beam="1">  1        2 0.67708010E-01 0.78625515E+03</pdfrwt>
<pdfrwt beam="2">  1       -2 0.46583368E-01 0.78625515E+03</pdfrwt>
<totfact> 0.31380698E+02</totfact>
</mgrwt>
</event>
<event>
 4    1  0.3541639E-005  0.9661432E+03  0.7818608E-02  0.9346478E-01
         -2   -1    0    0    0  501 -0.00000000000E+00  0.00000000000E+00  0.51101482249E+03  0.51101482249E+03  0.25500000000E-02 0. -1.
          2   -1    0    0  501    0  0.00000000000E+00 -0.00000000000E+00 -0.45665639470E+03  0.45665639471E+03  0.25500000000E-02 0.  1.
    5000001    1    1    2    0    0  0.33212254327E+03  0.18018663186E+03  0.27929258569E+03  0.49799794625E+03  0.16500000000E+03 0.  0.
   -5000001    1    1    2    0    0 -0.33212254327E+03 -0.18018663186E+03 -0.22493415790E+03  0.46967327095E+03  0.16500000000E+03 0.  0.
<mgrwt>
<rscale>  0 0.96614323E+03</rscale>
<asrwt>0</asrwt>
<pdfrwt beam="1">  1        2 0.65236628E-01 0.96614323E+03</pdfrwt>
<pdfrwt beam="2">  1       -2 0.73002118E-01 0.96614323E+03</pdfrwt>
<totfact> 0.12636488E+02</totfact>
</mgrwt>
</event>
<event>
 4    1  0.3541639E-005  0.5792886E+03  0.7818608E-02  0.9949332E-01
         -2   -1    0    0    0  501 -0.00000000000E+00  0.00000000000E+00  0.17652686454E+02  0.17652686638E+02  0.25500000000E-02 0. -1.
          2   -1    0    0  501    0  0.00000000000E+00 -0.00000000000E+00 -0.47524682630E+04  0.47524682630E+04  0.25500000000E-02 0.  1.
    5000001    1    1    2    0    0 -0.19473878840E+02  0.18536944308E+03 -0.35867668591E+04  0.35953946325E+04  0.16500000000E+03 0.  0.
   -5000001    1    1    2    0    0  0.19473878840E+02 -0.18536944308E+03 -0.11480487175E+04  0.11747263171E+04  0.16500000000E+03 0.  0.
<mgrwt>
<rscale>  0 0.57928864E+03</rscale>
<asrwt>0</asrwt>
<pdfrwt beam="1">  1        2 0.67892322E+00 0.57928864E+03</pdfrwt>
<pdfrwt beam="2">  1       -2 0.25218154E-02 0.57928864E+03</pdfrwt>
<totfact> 0.10229801E+02</totfact>
</mgrwt>
</event>
<event>
 4    1  0.3541639E-005  0.5270906E+03  0.7818608E-02  0.1006940E+00
          2   -1    0    0  501    0  0.00000000000E+00  0.00000000000E+00  0.12579818516E+04  0.12579818516E+04  0.25500000000E-02 0.  1.
         -2   -1    0    0    0  501 -0.00000000000E+00 -0.00000000000E+00 -0.55212334058E+02  0.55212334117E+02  0.25500000000E-02 0. -1.
    5000001    1    1    2    0    0  0.29611998546E+02  0.19485946489E+03  0.45645385750E+03  0.52385322901E+03  0.16500000000E+03 0.  0.
   -5000001    1    1    2    0    0 -0.29611998546E+02 -0.19485946489E+03  0.74631566003E+03  0.78934095670E+03  0.16500000000E+03 0.  0.
<mgrwt>
<rscale>  0 0.52709056E+03</rscale>
<asrwt>0</asrwt>
<pdfrwt beam="1">  1        2 0.17971171E+00 0.52709056E+03</pdfrwt>
<pdfrwt beam="2">  1       -2 0.78874755E-02 0.52709056E+03</pdfrwt>
<totfact> 0.20111659E+03</totfact>
</mgrwt>
</event>
<event>
 4    1  0.3541639E-005  0.3493433E+03  0.7818608E-02  0.1062885E+00
         -2   -1    0    0    0  501 -0.00000000000E+00  0.00000000000E+00  0.24877251163E+02  0.24877251293E+02  0.25500000000E-02 0. -1.
          2   -1    0    0  501    0  0.00000000000E+00 -0.00000000000E+00 -0.12264293692E+04  0.12264293692E+04  0.25500000000E-02 0.  1.
    5000001    1    1    2    0    0  0.35060668394E+02  0.45342120436E+02 -0.60012361337E+03  0.62502680717E+03  0.16500000000E+03 0.  0.
   -5000001    1    1    2    0    0 -0.35060668394E+02 -0.45342120436E+02 -0.60142850463E+03  0.62627981329E+03  0.16500000000E+03 0.  0.
<mgrwt>
<rscale>  0 0.34934334E+03</rscale>
<asrwt>0</asrwt>
<pdfrwt beam="1">  1        2 0.17520416E+00 0.34934334E+03</pdfrwt>
<pdfrwt beam="2">  1       -2 0.35538938E-02 0.34934334E+03</pdfrwt>
<totfact> 0.71559821E+03</totfact>
</mgrwt>
</event>
<event>
 4    1  0.3541639E-005  0.3890648E+03  0.7818608E-02  0.1047633E+00
         -2   -1    0    0    0  501 -0.00000000000E+00  0.00000000000E+00  0.54356451617E+02  0.54356451677E+02  0.25500000000E-02 0. -1.
          2   -1    0    0  501    0  0.00000000000E+00 -0.00000000000E+00 -0.69619819297E+03  0.69619819298E+03  0.25500000000E-02 0.  1.
    5000001    1    1    2    0    0  0.62336732979E+02 -0.76387593363E+02 -0.26314589450E+03  0.32587067142E+03  0.16500000000E+03 0.  0.
   -5000001    1    1    2    0    0 -0.62336732979E+02  0.76387593363E+02 -0.37869584685E+03  0.42468397323E+03  0.16500000000E+03 0.  0.
<mgrwt>
<rscale>  0 0.38906485E+03</rscale>
<asrwt>0</asrwt>
<pdfrwt beam="1">  1        2 0.99456880E-01 0.38906485E+03</pdfrwt>
<pdfrwt beam="2">  1       -2 0.77652078E-02 0.38906485E+03</pdfrwt>
<totfact> 0.46066370E+03</totfact>
</mgrwt>
</event>
<event>
 4    1  0.3541639E-005  0.5747934E+03  0.7818608E-02  0.9959127E-01
         -2   -1    0    0    0  501 -0.00000000000E+00  0.00000000000E+00  0.92642925619E+03  0.92642925619E+03  0.25500000000E-02 0. -1.
          2   -1    0    0  501    0  0.00000000000E+00 -0.00000000000E+00 -0.89156143893E+02  0.89156143930E+02  0.25500000000E-02 0.  1.
    5000001    1    1    2    0    0  0.16985391684E+03  0.13965067174E+03  0.27060701360E+03  0.38575357288E+03  0.16500000000E+03 0.  0.
   -5000001    1    1    2    0    0 -0.16985391684E+03 -0.13965067174E+03  0.56666609870E+03  0.62983182723E+03  0.16500000000E+03 0.  0.
<mgrwt>
<rscale>  0 0.57479339E+03</rscale>
<asrwt>0</asrwt>
<pdfrwt beam="1">  1        2 0.12736592E-01 0.57479339E+03</pdfrwt>
<pdfrwt beam="2">  1       -2 0.13234703E+00 0.57479339E+03</pdfrwt>
<totfact> 0.20643514E+02</totfact>
</mgrwt>
</event>
<event>
 4    1  0.3541639E-005  0.6121562E+03  0.7818608E-02  0.9880502E-01
          2   -1    0    0  501    0  0.00000000000E+00  0.00000000000E+00  0.30687540188E+04  0.30687540188E+04  0.25500000000E-02 0.  1.
         -2   -1    0    0    0  501 -0.00000000000E+00 -0.00000000000E+00 -0.30528290701E+02  0.30528290808E+02  0.25500000000E-02 0. -1.
    5000001    1    1    2    0    0 -0.38993259662E+02 -0.17762927417E+03  0.24441991305E+04  0.24565030069E+04  0.16500000000E+03 0.  0.
   -5000001    1    1    2    0    0  0.38993259662E+02  0.17762927417E+03  0.59402659755E+03  0.64277930266E+03  0.16500000000E+03 0.  0.
<mgrwt>
<rscale>  0 0.61215624E+03</rscale>
<asrwt>0</asrwt>
<pdfrwt beam="1">  1        2 0.43839308E+00 0.61215624E+03</pdfrwt>
<pdfrwt beam="2">  1       -2 0.43611879E-02 0.61215624E+03</pdfrwt>
<totfact> 0.58579891E+02</totfact>
</mgrwt>
</event>
<event>
 4    1  0.3541639E-005  0.6051413E+03  0.7818608E-02  0.9894797E-01
         -2   -1    0    0    0  501 -0.00000000000E+00  0.00000000000E+00  0.85529646237E+02  0.85529646275E+02  0.25500000000E-02 0. -1.
          2   -1    0    0  501    0  0.00000000000E+00 -0.00000000000E+00 -0.10703773712E+04  0.10703773712E+04  0.25500000000E-02 0.  1.
    5000001    1    1    2    0    0  0.81201487571E+02  0.23168608543E+03 -0.37083491997E+03  0.47435815755E+03  0.16500000000E+03 0.  0.
   -5000001    1    1    2    0    0 -0.81201487571E+02 -0.23168608543E+03 -0.61401280499E+03  0.68154885992E+03  0.16500000000E+03 0.  0.
<mgrwt>
<rscale>  0 0.60514130E+03</rscale>
<asrwt>0</asrwt>
<pdfrwt beam="1">  1        2 0.15291105E+00 0.60514130E+03</pdfrwt>
<pdfrwt beam="2">  1       -2 0.12218522E-01 0.60514130E+03</pdfrwt>
<totfact> 0.12640871E+03</totfact>
</mgrwt>
</event>
<event>
 4    1  0.3541639E-005  0.5238415E+03  0.7818608E-02  0.1007737E+00
         -2   -1    0    0    0  501 -0.00000000000E+00  0.00000000000E+00  0.10353525875E+03  0.10353525878E+03  0.25500000000E-02 0. -1.
          2   -1    0    0  501    0  0.00000000000E+00 -0.00000000000E+00 -0.66260015152E+03  0.66260015153E+03  0.25500000000E-02 0.  1.
    5000001    1    1    2    0    0 -0.91919495944E+02 -0.14806495569E+03 -0.43295941814E+03  0.49502654736E+03  0.16500000000E+03 0.  0.
   -5000001    1    1    2    0    0  0.91919495944E+02  0.14806495569E+03 -0.12610547463E+03  0.27110886295E+03  0.16500000000E+03 0.  0.
<mgrwt>
<rscale>  0 0.52384150E+03</rscale>
<asrwt>0</asrwt>
<pdfrwt beam="1">  1        2 0.94657162E-01 0.52384150E+03</pdfrwt>
<pdfrwt beam="2">  1       -2 0.14790752E-01 0.52384150E+03</pdfrwt>
<totfact> 0.17247883E+03</totfact>
</mgrwt>
</event>
<event>
 4    1  0.3541639E-005  0.4578556E+03  0.7818608E-02  0.1025405E+00
         -2   -1    0    0    0  501 -0.00000000000E+00  0.00000000000E+00  0.53206112981E+02  0.53206113042E+02  0.25500000000E-02 0. -1.
          2   -1    0    0  501    0  0.00000000000E+00 -0.00000000000E+00 -0.98499835160E+03  0.98499835160E+03  0.25500000000E-02 0.  1.
    5000001    1    1    2    0    0  0.15377856856E+03 -0.29656262269E+02 -0.52395532105E+03  0.57121057457E+03  0.16500000000E+03 0.  0.
   -5000001    1    1    2    0    0 -0.15377856856E+03  0.29656262269E+02 -0.40783691757E+03  0.46699389008E+03  0.16500000000E+03 0.  0.
<mgrwt>
<rscale>  0 0.45785558E+03</rscale>
<asrwt>0</asrwt>
<pdfrwt beam="1">  1        2 0.14071404E+00 0.45785558E+03</pdfrwt>
<pdfrwt beam="2">  1       -2 0.76008739E-02 0.45785558E+03</pdfrwt>
<totfact> 0.30602417E+03</totfact>
</mgrwt>
</event>
<event>
 4    1  0.3541639E-005  0.3662046E+03  0.7818608E-02  0.1056154E+00
          2   -1    0    0  501    0  0.00000000000E+00  0.00000000000E+00  0.17775053879E+03  0.17775053881E+03  0.25500000000E-02 0.  1.
         -2   -1    0    0    0  501 -0.00000000000E+00 -0.00000000000E+00 -0.18861517445E+03  0.18861517446E+03  0.25500000000E-02 0. -1.
    5000001    1    1    2    0    0 -0.43584328021E+00 -0.77555946803E+02  0.11496535563E+02  0.18268082870E+03  0.16500000000E+03 0.  0.
   -5000001    1    1    2    0    0  0.43584328021E+00  0.77555946803E+02 -0.22361171215E+02  0.18368488458E+03  0.16500000000E+03 0.  0.
<mgrwt>
<rscale>  0 0.36620458E+03</rscale>
<asrwt>0</asrwt>
<pdfrwt beam="1">  1        2 0.25392934E-01 0.36620458E+03</pdfrwt>
<pdfrwt beam="2">  1       -2 0.26945025E-01 0.36620458E+03</pdfrwt>
<totfact> 0.26421877E+03</totfact>
</mgrwt>
</event>
<event>
 4    1  0.3541639E-005  0.3820755E+03  0.7818608E-02  0.1050169E+00
         -2   -1    0    0    0  501 -0.00000000000E+00  0.00000000000E+00  0.42414889201E+03  0.42414889202E+03  0.25500000000E-02 0. -1.
          2   -1    0    0  501    0  0.00000000000E+00 -0.00000000000E+00 -0.86043877896E+02  0.86043877934E+02  0.25500000000E-02 0.  1.
    5000001    1    1    2    0    0 -0.91503593864E+02 -0.13838099258E+02  0.20453319663E+03  0.27860945642E+03  0.16500000000E+03 0.  0.
   -5000001    1    1    2    0    0  0.91503593864E+02  0.13838099258E+02  0.13357181748E+03  0.23158331353E+03  0.16500000000E+03 0.  0.
<mgrwt>
<rscale>  0 0.38207547E+03</rscale>
<asrwt>0</asrwt>
<pdfrwt beam="1">  1        2 0.12291982E-01 0.38207547E+03</pdfrwt>
<pdfrwt beam="2">  1       -2 0.60592700E-01 0.38207547E+03</pdfrwt>
<totfact> 0.12947153E+03</totfact>
</mgrwt>
</event>
<event>
 4    1  0.3541639E-005  0.1014508E+04  0.7818608E-02  0.9292775E-01
         -2   -1    0    0    0  501 -0.00000000000E+00  0.00000000000E+00  0.49775999401E+03  0.49775999401E+03  0.25500000000E-02 0. -1.
          2   -1    0    0  501    0  0.00000000000E+00 -0.00000000000E+00 -0.51692878137E+03  0.51692878138E+03  0.25500000000E-02 0.  1.
    5000001    1    1    2    0    0  0.46424634619E+03  0.10363684412E+03  0.52202046041E+02  0.50617716169E+03  0.16500000000E+03 0.  0.
   -5000001    1    1    2    0    0 -0.46424634619E+03 -0.10363684412E+03 -0.71370833407E+02  0.50851161370E+03  0.16500000000E+03 0.  0.
<mgrwt>
<rscale>  0 0.10145077E+04</rscale>
<asrwt>0</asrwt>
<pdfrwt beam="1">  1        2 0.73846969E-01 0.10145077E+04</pdfrwt>
<pdfrwt beam="2">  1       -2 0.71108571E-01 0.10145077E+04</pdfrwt>
<totfact> 0.11588541E+02</totfact>
</mgrwt>
</event>
<event>
 4    1  0.3541639E-005  0.1195153E+04  0.7818608E-02  0.9117110E-01
         -2   -1    0    0    0  501 -0.00000000000E+00  0.00000000000E+00  0.11524405890E+04  0.11524405890E+04  0.25500000000E-02 0.  1.
          2   -1    0    0  501    0  0.00000000000E+00 -0.00000000000E+00 -0.30986213701E+03  0.30986213702E+03  0.25500000000E-02 0. -1.
    5000001    1    1    2    0    0  0.48920070593E+03 -0.16834162719E+03  0.72647651905E+03  0.90700020224E+03  0.16500000000E+03 0.  0.
   -5000001    1    1    2    0    0 -0.48920070593E+03  0.16834162719E+03  0.11610193298E+03  0.55530252383E+03  0.16500000000E+03 0.  0.
<mgrwt>
<rscale>  0 0.11951531E+04</rscale>
<asrwt>0</asrwt>
<pdfrwt beam="1">  1        2 0.44266019E-01 0.11951531E+04</pdfrwt>
<pdfrwt beam="2">  1       -2 0.16463437E+00 0.11951531E+04</pdfrwt>
<totfact> 0.26449365E+01</totfact>
</mgrwt>
</event>
<event>
 4    1  0.3541639E-005  0.4492341E+03  0.7818608E-02  0.1027951E+00
         -2   -1    0    0    0  501 -0.00000000000E+00  0.00000000000E+00  0.11232215062E+03  0.11232215065E+03  0.25500000000E-02 0. -1.
          2   -1    0    0  501    0  0.00000000000E+00 -0.00000000000E+00 -0.44917968509E+03  0.44917968509E+03  0.25500000000E-02 0.  1.
    5000001    1    1    2    0    0 -0.82036135075E+02  0.12512196691E+03 -0.20470616351E+03  0.30251454088E+03  0.16500000000E+03 0.  0.
   -5000001    1    1    2    0    0  0.82036135075E+02 -0.12512196691E+03 -0.13215137095E+03  0.25898729487E+03  0.16500000000E+03 0.  0.
<mgrwt>
<rscale>  0 0.44923414E+03</rscale>
<asrwt>0</asrwt>
<pdfrwt beam="1">  1        2 0.64168526E-01 0.44923414E+03</pdfrwt>
<pdfrwt beam="2">  1       -2 0.16046022E-01 0.44923414E+03</pdfrwt>
<totfact> 0.23493771E+03</totfact>
</mgrwt>
</event>
<event>
 4    1  0.3541639E-005  0.3972452E+03  0.7818608E-02  0.1044738E+00
         -2   -1    0    0    0  501 -0.00000000000E+00  0.00000000000E+00  0.35897179413E+02  0.35897179504E+02  0.25500000000E-02 0. -1.
          2   -1    0    0  501    0  0.00000000000E+00 -0.00000000000E+00 -0.10989985170E+04  0.10989985170E+04  0.25500000000E-02 0.  1.
    5000001    1    1    2    0    0  0.90535209904E+02 -0.48543973413E+02 -0.64839830979E+03  0.67690361923E+03  0.16500000000E+03 0.  0.
   -5000001    1    1    2    0    0 -0.90535209904E+02  0.48543973413E+02 -0.41470302781E+03  0.45799207729E+03  0.16500000000E+03 0.  0.
<mgrwt>
<rscale>  0 0.39724525E+03</rscale>
<asrwt>0</asrwt>
<pdfrwt beam="1">  1        2 0.15699977E+00 0.39724525E+03</pdfrwt>
<pdfrwt beam="2">  1       -2 0.51281692E-02 0.39724525E+03</pdfrwt>
<totfact> 0.48321462E+03</totfact>
</mgrwt>
</event>
<event>
 4    1  0.3541639E-005  0.4510428E+03  0.7818608E-02  0.1027412E+00
          2   -1    0    0  501    0  0.00000000000E+00  0.00000000000E+00  0.77022214569E+02  0.77022214611E+02  0.25500000000E-02 0.  1.
         -2   -1    0    0    0  501 -0.00000000000E+00 -0.00000000000E+00 -0.66032770467E+03  0.66032770468E+03  0.25500000000E-02 0. -1.
    5000001    1    1    2    0    0 -0.14758801634E+03  0.25286007476E+01 -0.36189611580E+03  0.42424334411E+03  0.16500000000E+03 0.  0.
   -5000001    1    1    2    0    0  0.14758801634E+03 -0.25286007476E+01 -0.22140937430E+03  0.31310657518E+03  0.16500000000E+03 0.  0.
<mgrwt>
<rscale>  0 0.45104280E+03</rscale>
<asrwt>0</asrwt>
<pdfrwt beam="1">  1        2 0.11003174E-01 0.45104280E+03</pdfrwt>
<pdfrwt beam="2">  1       -2 0.94332526E-01 0.45104280E+03</pdfrwt>
<totfact> 0.56207763E+02</totfact>
</mgrwt>
</event>
<event>
 4    1  0.3541639E-005  0.4572156E+03  0.7818608E-02  0.1025592E+00
          2   -1    0    0  501    0  0.00000000000E+00  0.00000000000E+00  0.42383775670E+03  0.42383775670E+03  0.25500000000E-02 0.  1.
         -2   -1    0    0    0  501 -0.00000000000E+00 -0.00000000000E+00 -0.12330549071E+03  0.12330549074E+03  0.25500000000E-02 0. -1.
    5000001    1    1    2    0    0 -0.12953561917E+03 -0.47604858046E+01  0.25885756733E+03  0.33321821532E+03  0.16500000000E+03 0.  0.
   -5000001    1    1    2    0    0  0.12953561917E+03  0.47604858046E+01  0.41674698659E+02  0.21392503212E+03  0.16500000000E+03 0.  0.
<mgrwt>
<rscale>  0 0.45721558E+03</rscale>
<asrwt>0</asrwt>
<pdfrwt beam="1">  1        2 0.60548251E-01 0.45721558E+03</pdfrwt>
<pdfrwt beam="2">  1       -2 0.17615070E-01 0.45721558E+03</pdfrwt>
<totfact> 0.21397321E+03</totfact>
</mgrwt>
</event>
<event>
 4    1  0.3541639E-005  0.1027950E+04  0.7818608E-02  0.9278410E-01
         -2   -1    0    0    0  501 -0.00000000000E+00  0.00000000000E+00  0.18925520399E+03  0.18925520401E+03  0.25500000000E-02 0. -1.
          2   -1    0    0  501    0  0.00000000000E+00 -0.00000000000E+00 -0.13958419193E+04  0.13958419193E+04  0.25500000000E-02 0.  1.
    5000001    1    1    2    0    0  0.22795900589E+03 -0.37970888600E+03 -0.29182041879E+03  0.55545324132E+03  0.16500000000E+03 0.  0.
   -5000001    1    1    2    0    0 -0.22795900589E+03  0.37970888600E+03 -0.91476629647E+03  0.10296438819E+04  0.16500000000E+03 0.  0.
<mgrwt>
<rscale>  0 0.10279501E+04</rscale>
<asrwt>0</asrwt>
<pdfrwt beam="1">  1        2 0.19940598E+00 0.10279501E+04</pdfrwt>
<pdfrwt beam="2">  1       -2 0.27036458E-01 0.10279501E+04</pdfrwt>
<totfact> 0.20564276E+02</totfact>
</mgrwt>
</event>
<event>
 4    1  0.3541639E-005  0.5630902E+03  0.7818608E-02  0.9985087E-01
         -2   -1    0    0    0  501 -0.00000000000E+00  0.00000000000E+00  0.52527543304E+02  0.52527543366E+02  0.25500000000E-02 0. -1.
          2   -1    0    0  501    0  0.00000000000E+00 -0.00000000000E+00 -0.15090679890E+04  0.15090679890E+04  0.25500000000E-02 0.  1.
    5000001    1    1    2    0    0 -0.11567006994E+03 -0.19342214828E+03 -0.82635670155E+03  0.87228555572E+03  0.16500000000E+03 0.  0.
   -5000001    1    1    2    0    0  0.11567006994E+03  0.19342214828E+03 -0.63018374419E+03  0.68930997669E+03  0.16500000000E+03 0.  0.
<mgrwt>
<rscale>  0 0.56309017E+03</rscale>
<asrwt>0</asrwt>
<pdfrwt beam="1">  1        2 0.21558111E+00 0.56309017E+03</pdfrwt>
<pdfrwt beam="2">  1       -2 0.75039357E-02 0.56309017E+03</pdfrwt>
<totfact> 0.15990792E+03</totfact>
</mgrwt>
</event>
<event>
 4    1  0.3541639E-005  0.6913745E+03  0.7818608E-02  0.9732098E-01
         -2   -1    0    0    0  501 -0.00000000000E+00  0.00000000000E+00  0.10300951109E+03  0.10300951112E+03  0.25500000000E-02 0. -1.
          2   -1    0    0  501    0  0.00000000000E+00 -0.00000000000E+00 -0.11600838690E+04  0.11600838690E+04  0.25500000000E-02 0.  1.
    5000001    1    1    2    0    0 -0.28224084884E+03 -0.10091054720E+03 -0.61862982228E+03  0.70694461756E+03  0.16500000000E+03 0.  0.
   -5000001    1    1    2    0    0  0.28224084884E+03  0.10091054720E+03 -0.43844453567E+03  0.55614876261E+03  0.16500000000E+03 0.  0.
<mgrwt>
<rscale>  0 0.69137449E+03</rscale>
<asrwt>0</asrwt>
<pdfrwt beam="1">  1        2 0.16572626E+00 0.69137449E+03</pdfrwt>
<pdfrwt beam="2">  1       -2 0.14715645E-01 0.69137449E+03</pdfrwt>
<totfact> 0.82040531E+02</totfact>
</mgrwt>
</event>
