<event>
 8    1  0.1714417E-029  0.1840213E+04  0.7818608E-02  0.8685202E-01
          3   -1    0    0  501    0  0.00000000000E+00  0.00000000000E+00  0.20710553083E+04  0.20710553108E+04  0.10100000000E+00 0. -1.
         -3   -1    0    0    0  501 -0.00000000000E+00 -0.00000000000E+00 -0.40877502078E+03  0.40877503326E+03  0.10100000000E+00 0.  1.
     200001    2    1    2    0    0  0.25665414744E+02  0.52560172022E+03  0.12118802790E+04  0.14950582641E+04  0.69973532177E+03 0.  0.
    5000001    2    3    3    0    0 -0.16115875215E+02  0.76830959967E+02  0.28486576809E+03  0.34941574789E+03  0.18649434629E+03 0.  0.
        -13    1    4    4    0    0 -0.15524711809E+02  0.13365307726E+03  0.22153268022E+03  0.25919278791E+03  0.10566000000E+00 0. -1.
     200003    1    4    4    0    0 -0.59116340544E+00 -0.56822117290E+02  0.63333087872E+02  0.90222959977E+02  0.30000000000E+02 0. -1.
     200000    1    3    3    0    0  0.41781289959E+02  0.44877076026E+03  0.92701451089E+03  0.11456425162E+04  0.50000000000E+03 0.  1.
    -200001    1    1    2    0    0 -0.25665414744E+02 -0.52560172022E+03  0.45040000857E+03  0.98477207999E+03  0.70000000000E+03 0.  1.
<mgrwt>
<rscale>  0 0.18402127E+04</rscale>
<asrwt>0</asrwt>
<pdfrwt beam="1">  1        3 0.29586504E+00 0.18402127E+04</pdfrwt>
<pdfrwt beam="2">  1       -3 0.58396434E-01 0.18402127E+04</pdfrwt>
<totfact> 0.29084381E-01</totfact>
</mgrwt>
</event>
<event>
 8    1  0.1714417E-029  0.2175947E+04  0.7818608E-02  0.8528507E-01
         -3   -1    0    0    0  501 -0.00000000000E+00  0.00000000000E+00  0.10622063375E+04  0.10622063423E+04  0.10100000000E+00 0.  1.
          3   -1    0    0  501    0  0.00000000000E+00 -0.00000000000E+00 -0.11143658126E+04  0.11143658172E+04  0.10100000000E+00 0. -1.
     200001    2    1    2    0    0  0.31213370153E+01  0.24047005455E+03  0.77197089861E+03  0.10688598941E+04  0.69906138151E+03 0.  0.
    5000001    2    3    3    0    0  0.20686044222E+00  0.12297413294E+03  0.76795144262E+02  0.20452019518E+03  0.14425094762E+03 0.  0.
        -13    1    4    4    0    0  0.41653642548E+02  0.12955103927E+03  0.42461935463E+02  0.14255358586E+03  0.10566000000E+00 0. -1.
     200003    1    4    4    0    0 -0.41446782106E+02 -0.65769063293E+01  0.34333208799E+02  0.61966609317E+02  0.30000000000E+02 0. -1.
     200000    1    3    3    0    0  0.29144765731E+01  0.11749592161E+03  0.69517575434E+03  0.86433969896E+03  0.50000000000E+03 0.  1.
    -200001    1    1    2    0    0 -0.31213370153E+01 -0.24047005455E+03 -0.82413037372E+03  0.11077122653E+04  0.70000000000E+03 0. -1.
<mgrwt>
<rscale>  0 0.21759471E+04</rscale>
<asrwt>0</asrwt>
<pdfrwt beam="1">  1        3 0.15919512E+00 0.21759471E+04</pdfrwt>
<pdfrwt beam="2">  1       -3 0.15174376E+00 0.21759471E+04</pdfrwt>
<totfact> 0.20892745E-01</totfact>
</mgrwt>
</event>
<event>
 8    1  0.1714417E-029  0.1619836E+04  0.7818608E-02  0.8808454E-01
         -3   -1    0    0    0  501 -0.00000000000E+00  0.00000000000E+00  0.95792769863E+03  0.95792770395E+03  0.10100000000E+00 0. -1.
          3   -1    0    0  501    0  0.00000000000E+00 -0.00000000000E+00 -0.68477698278E+03  0.68477699023E+03  0.10100000000E+00 0.  1.
     200001    2    1    2    0    0 -0.22431245921E+03  0.26189396367E+03 -0.68434271199E+02  0.79089202056E+03  0.70846482704E+03 0.  0.
    5000001    2    3    3    0    0 -0.28777129273E+02  0.40280141760E+02 -0.24384108662E+02  0.20840840007E+03  0.20096980738E+03 0.  0.
        -13    1    4    4    0    0  0.50905691784E+02 -0.28927943836E+02 -0.68531018467E+02  0.90137267802E+02  0.10566000000E+00 0. -1.
     200003    1    4    4    0    0 -0.79682821057E+02  0.69208085596E+02  0.44146909805E+02  0.11827113227E+03  0.30000000000E+02 0. -1.
     200000    1    3    3    0    0 -0.19553532993E+03  0.22161382191E+03 -0.44050162537E+02  0.58248362049E+03  0.50000000000E+03 0.  1.
    -200001    1    1    2    0    0  0.22431245921E+03 -0.26189396367E+03  0.34158498705E+03  0.85181267362E+03  0.70000000000E+03 0. -1.
<mgrwt>
<rscale>  0 0.16198356E+04</rscale>
<asrwt>0</asrwt>
<pdfrwt beam="1">  1        3 0.97825284E-01 0.16198356E+04</pdfrwt>
<pdfrwt beam="2">  1       -3 0.13684682E+00 0.16198356E+04</pdfrwt>
<totfact> 0.94795497E-01</totfact>
</mgrwt>
</event>
<event>
 8    1  0.1714417E-029  0.1911551E+04  0.7818608E-02  0.8649128E-01
          3   -1    0    0  501    0  0.00000000000E+00  0.00000000000E+00  0.14428015873E+04  0.14428015908E+04  0.10100000000E+00 0.  1.
         -3   -1    0    0    0  501 -0.00000000000E+00 -0.00000000000E+00 -0.63314771435E+03  0.63314772241E+03  0.10100000000E+00 0. -1.
     200001    2    1    2    0    0 -0.15635525724E+03 -0.62776647096E+03  0.32949507987E+03  0.10086676376E+04  0.70021831383E+03 0.  0.
    5000001    2    3    3    0    0  0.19725492956E+02 -0.95372284394E+02  0.88469043009E+01  0.19180580539E+03  0.16500373196E+03 0.  0.
        -13    1    4    4    0    0  0.89509008838E+02 -0.59004486750E+02  0.90596957638E+01  0.10758941106E+03  0.10566000000E+00 0. -1.
     200003    1    4    4    0    0 -0.69783515882E+02 -0.36367797644E+02 -0.21279146294E+00  0.84216394333E+02  0.30000000000E+02 0. -1.
     200000    1    3    3    0    0 -0.17608075020E+03 -0.53239418656E+03  0.32064817557E+03  0.81686183224E+03  0.50000000000E+03 0. -1.
    -200001    1    1    2    0    0  0.15635525724E+03  0.62776647096E+03  0.48015879306E+03  0.10672816756E+04  0.70000000000E+03 0.  1.
<mgrwt>
<rscale>  0 0.19115507E+04</rscale>
<asrwt>0</asrwt>
<pdfrwt beam="1">  1        3 0.20611452E+00 0.19115507E+04</pdfrwt>
<pdfrwt beam="2">  1       -3 0.90449673E-01 0.19115507E+04</pdfrwt>
<totfact> 0.36623473E-01</totfact>
</mgrwt>
</event>
<event>
 8    1  0.1714417E-029  0.1493772E+04  0.7818608E-02  0.8888605E-01
          3   -1    0    0  501    0  0.00000000000E+00  0.00000000000E+00  0.59870082490E+03  0.59870083342E+03  0.10100000000E+00 0. -1.
         -3   -1    0    0    0  501 -0.00000000000E+00 -0.00000000000E+00 -0.93174826220E+03  0.93174826767E+03  0.10100000000E+00 0.  1.
     200001    2    1    2    0    0 -0.73303457916E+02 -0.11773201664E+03 -0.39195614308E+03  0.81441526090E+03  0.70029163525E+03 0.  0.
    5000001    2    3    3    0    0 -0.71162944453E+02  0.15756846330E+02 -0.36585477017E+02  0.18663172445E+03  0.16787036836E+03 0.  0.
        -13    1    4    4    0    0 -0.10950009963E+03  0.36809707398E+02  0.10115873380E+02  0.11596365136E+03  0.10566000000E+00 0. -1.
     200003    1    4    4    0    0  0.38337155176E+02 -0.21052861068E+02 -0.46701350397E+02  0.70668073095E+02  0.30000000000E+02 0. -1.
     200000    1    3    3    0    0 -0.21405134622E+01 -0.13348886297E+03 -0.35537066607E+03  0.62778353645E+03  0.50000000000E+03 0. -1.
    -200001    1    1    2    0    0  0.73303457916E+02  0.11773201664E+03  0.58908705780E+02  0.71603384019E+03  0.70000000000E+03 0. -1.
<mgrwt>
<rscale>  0 0.14937717E+04</rscale>
<asrwt>0</asrwt>
<pdfrwt beam="1">  1        3 0.85528690E-01 0.14937717E+04</pdfrwt>
<pdfrwt beam="2">  1       -3 0.13310690E+00 0.14937717E+04</pdfrwt>
<totfact> 0.13953006E+00</totfact>
</mgrwt>
</event>
<event>
 8    1  0.1714417E-029  0.1596723E+04  0.7818608E-02  0.8822563E-01
          3   -1    0    0  501    0  0.00000000000E+00  0.00000000000E+00  0.42186572576E+04  0.42186572588E+04  0.10100000000E+00 0. -1.
         -3   -1    0    0    0  501 -0.00000000000E+00 -0.00000000000E+00 -0.15108630154E+03  0.15108633530E+03  0.10100000000E+00 0.  1.
     200001    2    1    2    0    0  0.27982433851E+03 -0.16648631109E+03  0.25527045559E+04  0.26694966819E+04  0.70985395161E+03 0.  0.
    5000001    2    3    3    0    0 -0.35791682642E+01 -0.78081796301E+02  0.36702640888E+03  0.40778894916E+03  0.15960534100E+03 0.  0.
        -13    1    4    4    0    0 -0.58762146730E+02  0.15515876606E+01  0.22949933216E+03  0.23690789759E+03  0.10566000000E+00 0. -1.
     200003    1    4    4    0    0  0.55182978466E+02 -0.79633383961E+02  0.13752707672E+03  0.17088105157E+03  0.30000000000E+02 0. -1.
     200000    1    3    3    0    0  0.28340350677E+03 -0.88404514787E+02  0.21856781470E+04  0.22617077327E+04  0.50000000000E+03 0. -1.
    -200001    1    1    2    0    0 -0.27982433851E+03  0.16648631109E+03  0.15148664001E+04  0.17002469122E+04  0.70000000000E+03 0.  1.
<mgrwt>
<rscale>  0 0.15967234E+04</rscale>
<asrwt>0</asrwt>
<pdfrwt beam="1">  1        3 0.60266520E+00 0.15967234E+04</pdfrwt>
<pdfrwt beam="2">  1       -3 0.21583764E-01 0.15967234E+04</pdfrwt>
<totfact> 0.56328665E-02</totfact>
</mgrwt>
</event>
<event>
 8    1  0.1714417E-029  0.1981029E+04  0.7818608E-02  0.8615542E-01
         -3   -1    0    0    0  501 -0.00000000000E+00  0.00000000000E+00  0.79229010412E+03  0.79229011056E+03  0.10100000000E+00 0. -1.
          3   -1    0    0  501    0  0.00000000000E+00 -0.00000000000E+00 -0.12383334506E+04  0.12383334548E+04  0.10100000000E+00 0.  1.
     200001    2    1    2    0    0 -0.20873141134E+03  0.31582716113E+03 -0.82725427561E+03  0.11482192531E+04  0.70052995572E+03 0.  0.
    5000001    2    3    3    0    0 -0.14074730667E+03  0.11356262047E+03 -0.35810114979E+03  0.43014026136E+03  0.15517067332E+03 0.  0.
        -13    1    4    4    0    0 -0.77000054697E+02 -0.19704591635E+02 -0.18027025455E+03  0.19701435277E+03  0.10566000000E+00 0. -1.
     200003    1    4    4    0    0 -0.63747251977E+02  0.13326721211E+03 -0.17783089524E+03  0.23312590860E+03  0.30000000000E+02 0. -1.
     200000    1    3    3    0    0 -0.67984104666E+02  0.20226454066E+03 -0.46915312582E+03  0.71807899173E+03  0.50000000000E+03 0.  1.
    -200001    1    1    2    0    0  0.20873141134E+03 -0.31582716113E+03  0.38121092909E+03  0.88240431223E+03  0.70000000000E+03 0. -1.
<mgrwt>
<rscale>  0 0.19810294E+04</rscale>
<asrwt>0</asrwt>
<pdfrwt beam="1">  1        3 0.17690478E+00 0.19810294E+04</pdfrwt>
<pdfrwt beam="2">  1       -3 0.11318430E+00 0.19810294E+04</pdfrwt>
<totfact> 0.33244407E-01</totfact>
</mgrwt>
</event>
<event>
 8    1  0.1714417E-029  0.1744131E+04  0.7818608E-02  0.8736588E-01
          3   -1    0    0  501    0  0.00000000000E+00  0.00000000000E+00  0.34512703910E+03  0.34512705388E+03  0.10100000000E+00 0. -1.
         -3   -1    0    0    0  501 -0.00000000000E+00 -0.00000000000E+00 -0.22035305559E+04  0.22035305583E+04  0.10100000000E+00 0.  1.
     200001    2    1    2    0    0  0.50492235662E+03 -0.11920154222E+03 -0.97780673099E+03  0.13098653401E+04  0.70034678001E+03 0.  0.
    5000001    2    3    3    0    0  0.15712564811E+03 -0.46725090131E+02 -0.39447336331E+03  0.46340612412E+03  0.17962265493E+03 0.  0.
        -13    1    4    4    0    0  0.18122218108E+02 -0.69213196512E+02 -0.24763247947E+03  0.25776100833E+03  0.10566000000E+00 0. -1.
     200003    1    4    4    0    0  0.13900343000E+03  0.22488106381E+02 -0.14684088384E+03  0.20564511579E+03  0.30000000000E+02 0. -1.
     200000    1    3    3    0    0  0.34779670852E+03 -0.72476452092E+02 -0.58333336767E+03  0.84645921603E+03  0.50000000000E+03 0. -1.
    -200001    1    1    2    0    0 -0.50492235662E+03  0.11920154222E+03 -0.88059678586E+03  0.12387922720E+04  0.70000000000E+03 0.  1.
<mgrwt>
<rscale>  0 0.17441307E+04</rscale>
<asrwt>0</asrwt>
<pdfrwt beam="1">  1        3 0.49303865E-01 0.17441307E+04</pdfrwt>
<pdfrwt beam="2">  1       -3 0.31479007E+00 0.17441307E+04</pdfrwt>
<totfact> 0.32104986E-01</totfact>
</mgrwt>
</event>
<event>
 8    1  0.1714417E-029  0.1688923E+04  0.7818608E-02  0.8767707E-01
          3   -1    0    0  501    0  0.00000000000E+00  0.00000000000E+00  0.12446071869E+04  0.12446071910E+04  0.10100000000E+00 0.  1.
         -3   -1    0    0    0  501 -0.00000000000E+00 -0.00000000000E+00 -0.57296411616E+03  0.57296412506E+03  0.10100000000E+00 0. -1.
     200001    2    1    2    0    0  0.70185471592E+02  0.40138410619E+03  0.78066093228E+02  0.81339561959E+03  0.69963055817E+03 0.  0.
    5000001    2    3    3    0    0  0.53268325317E+02  0.70318722913E+02  0.55468490606E+02  0.21306143808E+03  0.18583913924E+03 0.  0.
        -13    1    4    4    0    0 -0.60882080320E+02  0.52057005905E+02  0.48028724896E+02  0.93398764163E+02  0.10566000000E+00 0. -1.
     200003    1    4    4    0    0  0.11415040564E+03  0.18261717008E+02  0.74397657106E+01  0.11966267392E+03  0.30000000000E+02 0. -1.
     200000    1    3    3    0    0  0.16917146274E+02  0.33106538328E+03  0.22597602621E+02  0.60033418151E+03  0.50000000000E+03 0. -1.
    -200001    1    1    2    0    0 -0.70185471592E+02 -0.40138410619E+03  0.59357697750E+03  0.10041756965E+04  0.70000000000E+03 0.  1.
<mgrwt>
<rscale>  0 0.16889231E+04</rscale>
<asrwt>0</asrwt>
<pdfrwt beam="1">  1        3 0.17780103E+00 0.16889231E+04</pdfrwt>
<pdfrwt beam="2">  1       -3 0.81852017E-01 0.16889231E+04</pdfrwt>
<totfact> 0.71205700E-01</totfact>
</mgrwt>
</event>
<event>
 8    1  0.1714417E-029  0.1473899E+04  0.7818608E-02  0.8901998E-01
          3   -1    0    0  501    0  0.00000000000E+00  0.00000000000E+00  0.37067006747E+03  0.37067008123E+03  0.10100000000E+00 0.  1.
         -3   -1    0    0    0  501 -0.00000000000E+00 -0.00000000000E+00 -0.14651702298E+04  0.14651702332E+04  0.10100000000E+00 0. -1.
     200001    2    1    2    0    0 -0.19014107627E+03  0.59207738201E+02 -0.69865734523E+03  0.10073774481E+04  0.69787395119E+03 0.  0.
    5000001    2    3    3    0    0 -0.68846678381E+02 -0.18901814458E+02 -0.14734200247E+03  0.24924682588E+03  0.18792863222E+03 0.  0.
        -13    1    4    4    0    0 -0.11333472925E+03 -0.34634360274E+02 -0.34691828831E+02  0.12348211983E+03  0.10566000000E+00 0. -1.
     200003    1    4    4    0    0  0.44488050872E+02  0.15732545816E+02 -0.11265017363E+03  0.12576470605E+03  0.30000000000E+02 0. -1.
     200000    1    3    3    0    0 -0.12129439788E+03  0.78109552659E+02 -0.55131534277E+03  0.75813062222E+03  0.50000000000E+03 0.  1.
    -200001    1    1    2    0    0  0.19014107627E+03 -0.59207738201E+02 -0.39584281706E+03  0.82846286638E+03  0.70000000000E+03 0.  1.
<mgrwt>
<rscale>  0 0.14738993E+04</rscale>
<asrwt>0</asrwt>
<pdfrwt beam="1">  1        3 0.52952869E-01 0.14738993E+04</pdfrwt>
<pdfrwt beam="2">  1       -3 0.20931003E+00 0.14738993E+04</pdfrwt>
<totfact> 0.11510390E+00</totfact>
</mgrwt>
</event>
<event>
 8    1  0.1714417E-029  0.2285864E+04  0.7818608E-02  0.8483516E-01
         -3   -1    0    0    0  501 -0.00000000000E+00  0.00000000000E+00  0.62566348107E+03  0.62566348923E+03  0.10100000000E+00 0. -1.
          3   -1    0    0  501    0  0.00000000000E+00 -0.00000000000E+00 -0.20878527960E+04  0.20878527985E+04  0.10100000000E+00 0.  1.
     200001    2    1    2    0    0  0.84035497010E+03  0.54835145954E+02 -0.34085059340E+03  0.11461605854E+04  0.69878579804E+03 0.  0.
    5000001    2    3    3    0    0  0.40047921432E+03 -0.69414472496E+02 -0.14010194710E+03  0.43959942940E+03  0.91744932571E+02 0.  0.
        -13    1    4    4    0    0  0.15893984082E+03 -0.27747084478E+01 -0.88797018494E+02  0.18208375453E+03  0.10566000000E+00 0. -1.
     200003    1    4    4    0    0  0.24153937350E+03 -0.66639764048E+02 -0.51304928607E+02  0.25751567487E+03  0.30000000000E+02 0. -1.
     200000    1    3    3    0    0  0.43987575578E+03  0.12424961845E+03 -0.20074864630E+03  0.70656115602E+03  0.50000000000E+03 0. -1.
    -200001    1    1    2    0    0 -0.84035497010E+03 -0.54835145954E+02 -0.11213387215E+04  0.15673557023E+04  0.70000000000E+03 0. -1.
<mgrwt>
<rscale>  0 0.22858637E+04</rscale>
<asrwt>0</asrwt>
<pdfrwt beam="1">  1        3 0.29826468E+00 0.22858637E+04</pdfrwt>
<pdfrwt beam="2">  1       -3 0.89380499E-01 0.22858637E+04</pdfrwt>
<totfact> 0.10693673E-01</totfact>
</mgrwt>
</event>
<event>
 8    1  0.1714417E-029  0.1783149E+04  0.7818608E-02  0.8715312E-01
         -3   -1    0    0    0  501 -0.00000000000E+00  0.00000000000E+00  0.25151967337E+04  0.25151967358E+04  0.10100000000E+00 0.  1.
          3   -1    0    0  501    0  0.00000000000E+00 -0.00000000000E+00 -0.31604101873E+03  0.31604103487E+03  0.10100000000E+00 0. -1.
     200001    2    1    2    0    0 -0.22703042926E+03 -0.85127556379E+02  0.30824787730E+03  0.80039509644E+03  0.69772920240E+03 0.  0.
    5000001    2    3    3    0    0 -0.37542373250E+01 -0.10942511704E+03  0.10636038848E+03  0.21627080532E+03  0.15320763185E+03 0.  0.
        -13    1    4    4    0    0  0.63279885586E+02 -0.38612441923E+02  0.83619243182E+02  0.11174727552E+03  0.10566000000E+00 0. -1.
     200003    1    4    4    0    0 -0.67034122911E+02 -0.70812675120E+02  0.22741145301E+02  0.10452352980E+03  0.30000000000E+02 0. -1.
     200000    1    3    3    0    0 -0.22327619193E+03  0.24297560664E+02  0.20188748881E+03  0.58412429112E+03  0.50000000000E+03 0. -1.
    -200001    1    1    2    0    0  0.22703042926E+03  0.85127556379E+02  0.18909078377E+04  0.20308426742E+04  0.70000000000E+03 0.  1.
<mgrwt>
<rscale>  0 0.17831493E+04</rscale>
<asrwt>0</asrwt>
<pdfrwt beam="1">  1        3 0.45148720E-01 0.17831493E+04</pdfrwt>
<pdfrwt beam="2">  1       -3 0.35931381E+00 0.17831493E+04</pdfrwt>
<totfact> 0.21666264E-01</totfact>
</mgrwt>
</event>
<event>
 8    1  0.1714417E-029  0.3025831E+04  0.7818608E-02  0.8236393E-01
          3   -1    0    0  501    0  0.00000000000E+00  0.00000000000E+00  0.36934328877E+04  0.36934328891E+04  0.10100000000E+00 0.  1.
         -3   -1    0    0    0  501 -0.00000000000E+00 -0.00000000000E+00 -0.61972535995E+03  0.61972536818E+03  0.10100000000E+00 0. -1.
     200001    2    1    2    0    0  0.58417161437E+03  0.10242451259E+04  0.24485653103E+04  0.28061289460E+04  0.69896568548E+03 0.  0.
    5000001    2    3    3    0    0  0.12403595041E+03  0.34296364759E+03  0.59399778229E+03  0.71680130340E+03  0.16721771028E+03 0.  0.
        -13    1    4    4    0    0 -0.38531161510E+02  0.10003965609E+03  0.16816781264E+03  0.19943171155E+03  0.10566000000E+00 0. -1.
     200003    1    4    4    0    0  0.16256711192E+03  0.24292399150E+03  0.42582996965E+03  0.51736959185E+03  0.30000000000E+02 0. -1.
     200000    1    3    3    0    0  0.46013566396E+03  0.68128147833E+03  0.18545675280E+04  0.20893276426E+04  0.50000000000E+03 0.  1.
    -200001    1    1    2    0    0 -0.58417161437E+03 -0.10242451259E+04  0.62514221739E+03  0.15070293113E+04  0.70000000000E+03 0. -1.
<mgrwt>
<rscale>  0 0.30258315E+04</rscale>
<asrwt>0</asrwt>
<pdfrwt beam="1">  1        3 0.52763326E+00 0.30258315E+04</pdfrwt>
<pdfrwt beam="2">  1       -3 0.88532197E-01 0.30258315E+04</pdfrwt>
<totfact> 0.65152480E-03</totfact>
</mgrwt>
</event>
<event>
 8    1  0.1714417E-029  0.1823787E+04  0.7818608E-02  0.8693751E-01
          3   -1    0    0  501    0  0.00000000000E+00  0.00000000000E+00  0.12975378709E+04  0.12975378748E+04  0.10100000000E+00 0.  1.
         -3   -1    0    0    0  501 -0.00000000000E+00 -0.00000000000E+00 -0.64086728017E+03  0.64086728813E+03  0.10100000000E+00 0. -1.
     200001    2    1    2    0    0 -0.35866671716E+03 -0.44131017472E+03  0.47142022955E+03  0.10176912114E+04  0.70004420189E+03 0.  0.
    5000001    2    3    3    0    0 -0.15661143066E+03 -0.16933742399E+03  0.75029525730E+02  0.29525013696E+03  0.16834758765E+03 0.  0.
        -13    1    4    4    0    0 -0.89874993475E+02  0.11194278677E+02  0.18788347589E+02  0.92497781035E+02  0.10566000000E+00 0. -1.
     200003    1    4    4    0    0 -0.66736437189E+02 -0.18053170266E+03  0.56241178140E+02  0.20275235593E+03  0.30000000000E+02 0. -1.
     200000    1    3    3    0    0 -0.20205528649E+03 -0.27197275074E+03  0.39639070382E+03  0.72244107443E+03  0.50000000000E+03 0.  1.
    -200001    1    1    2    0    0  0.35866671716E+03  0.44131017472E+03  0.18525036119E+03  0.92071395158E+03  0.70000000000E+03 0. -1.
<mgrwt>
<rscale>  0 0.18237868E+04</rscale>
<asrwt>0</asrwt>
<pdfrwt beam="1">  1        3 0.18536255E+00 0.18237868E+04</pdfrwt>
<pdfrwt beam="2">  1       -3 0.91552472E-01 0.18237868E+04</pdfrwt>
<totfact> 0.48675558E-01</totfact>
</mgrwt>
</event>
<event>
 8    1  0.1714417E-029  0.1764130E+04  0.7818608E-02  0.8725611E-01
         -3   -1    0    0    0  501 -0.00000000000E+00  0.00000000000E+00  0.11814598000E+04  0.11814598044E+04  0.10100000000E+00 0. -1.
          3   -1    0    0  501    0  0.00000000000E+00 -0.00000000000E+00 -0.65853976089E+03  0.65853976863E+03  0.10100000000E+00 0.  1.
     200001    2    1    2    0    0 -0.53807570393E+01  0.44327028980E+02  0.81902788253E+03  0.10786365236E+04  0.70046858579E+03 0.  0.
    5000001    2    3    3    0    0  0.82465953633E+02 -0.41987206341E+01  0.32603971195E+03  0.36933466313E+03  0.15260385599E+03 0.  0.
        -13    1    4    4    0    0  0.17183599303E+02  0.53313144433E+02  0.39933229268E+02  0.68791288825E+02  0.10566000000E+00 0. -1.
     200003    1    4    4    0    0  0.65282354331E+02 -0.57511865068E+02  0.28610648268E+03  0.30054337431E+03  0.30000000000E+02 0. -1.
     200000    1    3    3    0    0 -0.87846710673E+02  0.48525749614E+02  0.49298817058E+03  0.70930186048E+03  0.50000000000E+03 0. -1.
    -200001    1    1    2    0    0  0.53807570393E+01 -0.44327028980E+02 -0.29610784337E+03  0.76136304937E+03  0.70000000000E+03 0.  1.
<mgrwt>
<rscale>  0 0.17641295E+04</rscale>
<asrwt>0</asrwt>
<pdfrwt beam="1">  1        3 0.94077111E-01 0.17641295E+04</pdfrwt>
<pdfrwt beam="2">  1       -3 0.16877997E+00 0.17641295E+04</pdfrwt>
<totfact> 0.59277938E-01</totfact>
</mgrwt>
</event>
<event>
 8    1  0.1714417E-029  0.1758620E+04  0.7818608E-02  0.8728620E-01
          3   -1    0    0  501    0  0.00000000000E+00  0.00000000000E+00  0.11286469594E+04  0.11286469640E+04  0.10100000000E+00 0. -1.
         -3   -1    0    0    0  501 -0.00000000000E+00 -0.00000000000E+00 -0.68505552580E+03  0.68505553325E+03  0.10100000000E+00 0.  1.
     200001    2    1    2    0    0 -0.17171238890E+03  0.28410399864E+03  0.65049797869E+03  0.10118231142E+04  0.70031290689E+03 0.  0.
    5000001    2    3    3    0    0  0.21938874704E+02  0.59599512567E+02  0.18558700344E+03  0.26748092737E+03  0.18185184776E+03 0.  0.
        -13    1    4    4    0    0 -0.51039553034E+02 -0.40249869320E+02  0.55127687147E+02  0.85230047568E+02  0.10566000000E+00 0. -1.
     200003    1    4    4    0    0  0.72978427738E+02  0.99849381886E+02  0.13045931630E+03  0.18225087980E+03  0.30000000000E+02 0. -1.
     200000    1    3    3    0    0 -0.19365126361E+03  0.22450448608E+03  0.46491097525E+03  0.74434218681E+03  0.50000000000E+03 0. -1.
    -200001    1    1    2    0    0  0.17171238890E+03 -0.28410399864E+03 -0.20690654505E+03  0.80187938303E+03  0.70000000000E+03 0.  1.
<mgrwt>
<rscale>  0 0.17586197E+04</rscale>
<asrwt>0</asrwt>
<pdfrwt beam="1">  1        3 0.16123528E+00 0.17586197E+04</pdfrwt>
<pdfrwt beam="2">  1       -3 0.97865076E-01 0.17586197E+04</pdfrwt>
<totfact> 0.61374770E-01</totfact>
</mgrwt>
</event>
<event>
 8    1  0.1714417E-029  0.1675409E+04  0.7818608E-02  0.8775515E-01
          3   -1    0    0  501    0  0.00000000000E+00  0.00000000000E+00  0.57543796898E+03  0.57543797784E+03  0.10100000000E+00 0. -1.
         -3   -1    0    0    0  501 -0.00000000000E+00 -0.00000000000E+00 -0.12195035831E+04  0.12195035873E+04  0.10100000000E+00 0.  1.
     200001    2    1    2    0    0  0.12158163099E+03 -0.33915292692E+03 -0.62873697159E+03  0.10075142554E+04  0.69997713863E+03 0.  0.
    5000001    2    3    3    0    0  0.53672490320E+02 -0.16640279372E+03 -0.17867590478E+03  0.30965379390E+03  0.18272867085E+03 0.  0.
        -13    1    4    4    0    0  0.46753995978E+02 -0.20111131801E+03 -0.14784031401E+03  0.25394579733E+03  0.10566000000E+00 0. -1.
     200003    1    4    4    0    0  0.69184943419E+01  0.34708524297E+02 -0.30835590775E+02  0.55707996565E+02  0.30000000000E+02 0. -1.
     200000    1    3    3    0    0  0.67909140671E+02 -0.17275013320E+03 -0.45006106681E+03  0.69786046153E+03  0.50000000000E+03 0.  1.
    -200001    1    1    2    0    0 -0.12158163099E+03  0.33915292692E+03 -0.15328642563E+02  0.78742730973E+03  0.70000000000E+03 0. -1.
<mgrwt>
<rscale>  0 0.16754088E+04</rscale>
<asrwt>0</asrwt>
<pdfrwt beam="1">  1        3 0.82205425E-01 0.16754088E+04</pdfrwt>
<pdfrwt beam="2">  1       -3 0.17421480E+00 0.16754088E+04</pdfrwt>
<totfact> 0.74376257E-01</totfact>
</mgrwt>
</event>
<event>
 8    1  0.1714417E-029  0.1524775E+04  0.7818608E-02  0.8868143E-01
          3   -1    0    0  501    0  0.00000000000E+00  0.00000000000E+00  0.50271569076E+03  0.50271570090E+03  0.10100000000E+00 0.  1.
         -3   -1    0    0    0  501 -0.00000000000E+00 -0.00000000000E+00 -0.11561899737E+04  0.11561899781E+04  0.10100000000E+00 0. -1.
     200001    2    1    2    0    0  0.14518270097E+03  0.22731832476E+03 -0.47234759563E+03  0.88718130188E+03  0.70087571927E+03 0.  0.
    5000001    2    3    3    0    0 -0.56104233585E+02 -0.13155748517E+02 -0.94113831892E+02  0.18617845596E+03  0.14994747536E+03 0.  0.
        -13    1    4    4    0    0 -0.17758148436E+02  0.43497604938E+02  0.18954902702E+02  0.50662540122E+02  0.10566000000E+00 0. -1.
     200003    1    4    4    0    0 -0.38346085149E+02 -0.56653353455E+02 -0.11306873459E+03  0.13551591584E+03  0.30000000000E+02 0. -1.
     200000    1    3    3    0    0  0.20128693455E+03  0.24047407328E+03 -0.37823376374E+03  0.70100284591E+03  0.50000000000E+03 0. -1.
    -200001    1    1    2    0    0 -0.14518270097E+03 -0.22731832476E+03 -0.18112668732E+03  0.77172437715E+03  0.70000000000E+03 0.  1.
<mgrwt>
<rscale>  0 0.15247752E+04</rscale>
<asrwt>0</asrwt>
<pdfrwt beam="1">  1        3 0.71816529E-01 0.15247752E+04</pdfrwt>
<pdfrwt beam="2">  1       -3 0.16517000E+00 0.15247752E+04</pdfrwt>
<totfact> 0.11722311E+00</totfact>
</mgrwt>
</event>
<event>
 8    1  0.1714417E-029  0.1431424E+04  0.7818608E-02  0.8931381E-01
          3   -1    0    0  501    0  0.00000000000E+00  0.00000000000E+00  0.10103075847E+04  0.10103075898E+04  0.10100000000E+00 0.  1.
         -3   -1    0    0    0  501 -0.00000000000E+00 -0.00000000000E+00 -0.50701725918E+03  0.50701726924E+03  0.10100000000E+00 0. -1.
     200001    2    1    2    0    0 -0.79411178608E+02  0.43761997519E+02  0.12870774527E+03  0.71824203653E+03  0.70077435144E+03 0.  0.
    5000001    2    3    3    0    0  0.14524985433E+02  0.78499093439E+02  0.73490314390E+02  0.20532914586E+03  0.17431623262E+03 0.  0.
        -13    1    4    4    0    0  0.45393032076E+02  0.76460059452E+02  0.11508634398E+03  0.14543571015E+03  0.10566000000E+00 0. -1.
     200003    1    4    4    0    0 -0.30868046643E+02  0.20390339871E+01 -0.41596029588E+02  0.59893435706E+02  0.30000000000E+02 0. -1.
     200000    1    3    3    0    0 -0.93936164041E+02 -0.34737095920E+02  0.55217430878E+02  0.51291289067E+03  0.50000000000E+03 0. -1.
    -200001    1    1    2    0    0  0.79411178608E+02 -0.43761997519E+02  0.37458258026E+03  0.79908282246E+03  0.70000000000E+03 0.  1.
<mgrwt>
<rscale>  0 0.14314236E+04</rscale>
<asrwt>0</asrwt>
<pdfrwt beam="1">  1        3 0.14432965E+00 0.14314236E+04</pdfrwt>
<pdfrwt beam="2">  1       -3 0.72431039E-01 0.14314236E+04</pdfrwt>
<totfact> 0.16553594E+00</totfact>
</mgrwt>
</event>
<event>
 8    1  0.1714417E-029  0.1677226E+04  0.7818608E-02  0.8774461E-01
          3   -1    0    0  501    0  0.00000000000E+00  0.00000000000E+00  0.82433612101E+03  0.82433612720E+03  0.10100000000E+00 0.  1.
         -3   -1    0    0    0  501 -0.00000000000E+00 -0.00000000000E+00 -0.85313716443E+03  0.85313717040E+03  0.10100000000E+00 0. -1.
     200001    2    1    2    0    0 -0.22292554102E+02 -0.43628811376E+03 -0.16475859504E+03  0.84121452664E+03  0.69975153377E+03 0.  0.
    5000001    2    3    3    0    0 -0.38029379561E+02 -0.14079443698E+03 -0.32671011974E+02  0.24538628772E+03  0.19462201310E+03 0.  0.
        -13    1    4    4    0    0 -0.96431414746E+02 -0.10155768807E+02 -0.14825542229E+02  0.98091616647E+02  0.10566000000E+00 0. -1.
     200003    1    4    4    0    0  0.58402035185E+02 -0.13063866818E+03 -0.17845469745E+02  0.14729467107E+03  0.30000000000E+02 0. -1.
     200000    1    3    3    0    0  0.15736825459E+02 -0.29549367677E+03 -0.13208758307E+03  0.59582823892E+03  0.50000000000E+03 0. -1.
    -200001    1    1    2    0    0  0.22292554102E+02  0.43628811376E+03  0.13595755162E+03  0.83625877097E+03  0.70000000000E+03 0. -1.
<mgrwt>
<rscale>  0 0.16772260E+04</rscale>
<asrwt>0</asrwt>
<pdfrwt beam="1">  1        3 0.11776230E+00 0.16772260E+04</pdfrwt>
<pdfrwt beam="2">  1       -3 0.12187674E+00 0.16772260E+04</pdfrwt>
<totfact> 0.81068005E-01</totfact>
</mgrwt>
</event>
<event>
 8    1  0.1714417E-029  0.1669865E+04  0.7818608E-02  0.8778740E-01
          3   -1    0    0  501    0  0.00000000000E+00  0.00000000000E+00  0.35960432939E+03  0.35960434357E+03  0.10100000000E+00 0.  1.
         -3   -1    0    0    0  501 -0.00000000000E+00 -0.00000000000E+00 -0.19385547080E+04  0.19385547107E+04  0.10100000000E+00 0. -1.
     200001    2    1    2    0    0 -0.45065492831E+03 -0.60610924473E+02 -0.80086600587E+03  0.11570285447E+04  0.70040355894E+03 0.  0.
    5000001    2    3    3    0    0 -0.66302173891E+02  0.56268235794E+01 -0.31793807181E+03  0.35995021194E+03  0.15508674400E+03 0.  0.
        -13    1    4    4    0    0  0.49054282381E+02  0.62052467085E+01 -0.87171023405E+02  0.10021789357E+03  0.10566000000E+00 0. -1.
     200003    1    4    4    0    0 -0.11535645627E+03 -0.57842312908E+00 -0.23076704840E+03  0.25973231837E+03  0.30000000000E+02 0. -1.
     200000    1    3    3    0    0 -0.38435275442E+03 -0.66237748052E+02 -0.48292793406E+03  0.79707833279E+03  0.50000000000E+03 0.  1.
    -200001    1    1    2    0    0  0.45065492831E+03  0.60610924473E+02 -0.77808437276E+03  0.11411305095E+04  0.70000000000E+03 0.  1.
<mgrwt>
<rscale>  0 0.16698655E+04</rscale>
<asrwt>0</asrwt>
<pdfrwt beam="1">  1        3 0.51372049E-01 0.16698655E+04</pdfrwt>
<pdfrwt beam="2">  1       -3 0.27693638E+00 0.16698655E+04</pdfrwt>
<totfact> 0.48387809E-01</totfact>
</mgrwt>
</event>
<event>
 8    1  0.1714417E-029  0.1979931E+04  0.7818608E-02  0.8616062E-01
          3   -1    0    0  501    0  0.00000000000E+00  0.00000000000E+00  0.12825348540E+04  0.12825348580E+04  0.10100000000E+00 0.  1.
         -3   -1    0    0    0  501 -0.00000000000E+00 -0.00000000000E+00 -0.76413627341E+03  0.76413628009E+03  0.10100000000E+00 0. -1.
     200001    2    1    2    0    0  0.41713818494E+03  0.14810009101E+02  0.83982348776E+03  0.11705789211E+04  0.70051974871E+03 0.  0.
    5000001    2    3    3    0    0  0.12121629086E+03  0.11770941234E+03  0.23986381783E+03  0.32908640179E+03  0.14904467054E+03 0.  0.
        -13    1    4    4    0    0  0.14283053812E+03  0.56318016063E+02  0.16822967982E+03  0.22775758580E+03  0.10566000000E+00 0. -1.
     200003    1    4    4    0    0 -0.21614247261E+02  0.61391396279E+02  0.71634138006E+02  0.10132881599E+03  0.30000000000E+02 0. -1.
     200000    1    3    3    0    0  0.29592189409E+03 -0.10289940324E+03  0.59995966993E+03  0.84149251936E+03  0.50000000000E+03 0.  1.
    -200001    1    1    2    0    0 -0.41713818494E+03 -0.14810009101E+02 -0.32142490713E+03  0.87609221697E+03  0.70000000000E+03 0. -1.
<mgrwt>
<rscale>  0 0.19799307E+04</rscale>
<asrwt>0</asrwt>
<pdfrwt beam="1">  1        3 0.18321927E+00 0.19799307E+04</pdfrwt>
<pdfrwt beam="2">  1       -3 0.10916232E+00 0.19799307E+04</pdfrwt>
<totfact> 0.32891718E-01</totfact>
</mgrwt>
</event>
<event>
 8    1  0.1714417E-029  0.1849801E+04  0.7818608E-02  0.8680255E-01
         -3   -1    0    0    0  501 -0.00000000000E+00  0.00000000000E+00  0.14887268617E+04  0.14887268651E+04  0.10100000000E+00 0. -1.
          3   -1    0    0  501    0  0.00000000000E+00 -0.00000000000E+00 -0.57461222994E+03  0.57461223882E+03  0.10100000000E+00 0.  1.
     200001    2    1    2    0    0 -0.33129317608E+03  0.48942814747E+03  0.31537981898E+03  0.96890845009E+03  0.70001719577E+03 0.  0.
    5000001    2    3    3    0    0 -0.75577777947E+02  0.10519317882E+03  0.65479591301E+02  0.24401052640E+03  0.19615288610E+03 0.  0.
        -13    1    4    4    0    0 -0.68031630513E+02  0.59217711942E+02  0.13046491877E+03  0.15860689251E+03  0.10566000000E+00 0. -1.
     200003    1    4    4    0    0 -0.75461474345E+01  0.45975466875E+02 -0.64985327466E+02  0.85403633889E+02  0.30000000000E+02 0. -1.
     200000    1    3    3    0    0 -0.25571539813E+03  0.38423496866E+03  0.24990022768E+03  0.72489792369E+03  0.50000000000E+03 0.  1.
    -200001    1    1    2    0    0  0.33129317608E+03 -0.48942814747E+03  0.59873481279E+03  0.10944306539E+04  0.70000000000E+03 0. -1.
<mgrwt>
<rscale>  0 0.18498007E+04</rscale>
<asrwt>0</asrwt>
<pdfrwt beam="1">  1        3 0.82087462E-01 0.18498007E+04</pdfrwt>
<pdfrwt beam="2">  1       -3 0.21267527E+00 0.18498007E+04</pdfrwt>
<totfact> 0.41506473E-01</totfact>
</mgrwt>
</event>
<event>
 8    1  0.1714417E-029  0.1773183E+04  0.7818608E-02  0.8720692E-01
          3   -1    0    0  501    0  0.00000000000E+00  0.00000000000E+00  0.20182851554E+04  0.20182851580E+04  0.10100000000E+00 0. -1.
         -3   -1    0    0    0  501 -0.00000000000E+00 -0.00000000000E+00 -0.38946166206E+03  0.38946167515E+03  0.10100000000E+00 0.  1.
     200001    2    1    2    0    0  0.34483341460E+03 -0.34436788576E+03  0.11420457857E+04  0.14256817328E+04  0.70057155384E+03 0.  0.
    5000001    2    3    3    0    0  0.17174877164E+03 -0.14538560745E+03  0.42228909617E+03  0.51047578175E+03  0.17782808440E+03 0.  0.
        -13    1    4    4    0    0  0.53864233364E+02 -0.13003174940E+03  0.32429017702E+03  0.35351625360E+03  0.10566000000E+00 0. -1.
     200003    1    4    4    0    0  0.11788453828E+03 -0.15353858043E+02  0.97998919151E+02  0.15695952815E+03  0.30000000000E+02 0. -1.
     200000    1    3    3    0    0  0.17308464296E+03 -0.19898227832E+03  0.71975668950E+03  0.91520595103E+03  0.50000000000E+03 0. -1.
    -200001    1    1    2    0    0 -0.34483341460E+03  0.34436788576E+03  0.48677770770E+03  0.98206510033E+03  0.70000000000E+03 0.  1.
<mgrwt>
<rscale>  0 0.17731833E+04</rscale>
<asrwt>0</asrwt>
<pdfrwt beam="1">  1        3 0.28832645E+00 0.17731833E+04</pdfrwt>
<pdfrwt beam="2">  1       -3 0.55637382E-01 0.17731833E+04</pdfrwt>
<totfact> 0.35636941E-01</totfact>
</mgrwt>
</event>
<event>
 8    1  0.1714417E-029  0.2182142E+04  0.7818608E-02  0.8525898E-01
         -3   -1    0    0    0  501 -0.00000000000E+00  0.00000000000E+00  0.18387733040E+04  0.18387733068E+04  0.10100000000E+00 0. -1.
          3   -1    0    0  501    0  0.00000000000E+00 -0.00000000000E+00 -0.64740786475E+03  0.64740787263E+03  0.10100000000E+00 0.  1.
     200001    2    1    2    0    0  0.34267014506E+03  0.53100585798E+03 -0.28978435071E+02  0.94390065333E+03  0.70051312917E+03 0.  0.
    5000001    2    3    3    0    0  0.16468542238E+03  0.17438311918E+03 -0.62425239064E+02  0.30360616793E+03  0.17535402514E+03 0.  0.
        -13    1    4    4    0    0  0.13086477870E+03  0.17289175881E+03 -0.10550574382E+03  0.24114025735E+03  0.10566000000E+00 0. -1.
     200003    1    4    4    0    0  0.33820643680E+02  0.14913603664E+01  0.43080504758E+02  0.62465910582E+02  0.30000000000E+02 0. -1.
     200000    1    3    3    0    0  0.17798472268E+03  0.35662273880E+03  0.33446803993E+02  0.64029448540E+03  0.50000000000E+03 0. -1.
    -200001    1    1    2    0    0 -0.34267014506E+03 -0.53100585798E+03  0.12203438744E+04  0.15422805261E+04  0.70000000000E+03 0. -1.
<mgrwt>
<rscale>  0 0.21821424E+04</rscale>
<asrwt>0</asrwt>
<pdfrwt beam="1">  1        3 0.92486839E-01 0.21821424E+04</pdfrwt>
<pdfrwt beam="2">  1       -3 0.26268190E+00 0.21821424E+04</pdfrwt>
<totfact> 0.15600443E-01</totfact>
</mgrwt>
</event>
<event>
 8    1  0.1714417E-029  0.3234259E+04  0.7818608E-02  0.8179828E-01
          3   -1    0    0  501    0  0.00000000000E+00  0.00000000000E+00  0.10707977279E+04  0.10707977327E+04  0.10100000000E+00 0. -1.
         -3   -1    0    0    0  501 -0.00000000000E+00 -0.00000000000E+00 -0.24422046565E+04  0.24422046586E+04  0.10100000000E+00 0.  1.
     200001    2    1    2    0    0  0.59732385369E+03  0.12612545056E+04 -0.22797411778E+03  0.15778028390E+04  0.69995063145E+03 0.  0.
    5000001    2    3    3    0    0  0.10799216404E+03  0.21927343559E+03 -0.33780076567E+02  0.30781017042E+03  0.18401864142E+03 0.  0.
        -13    1    4    4    0    0  0.83273426440E+02  0.40439963680E+02 -0.76255264281E+02  0.11993636108E+03  0.10566000000E+00 0. -1.
     200003    1    4    4    0    0  0.24718737600E+02  0.17883347191E+03  0.42475187714E+02  0.18787380934E+03  0.30000000000E+02 0. -1.
     200000    1    3    3    0    0  0.48933168965E+03  0.10419810700E+04 -0.19419404121E+03  0.12699926686E+04  0.50000000000E+03 0.  1.
    -200001    1    1    2    0    0 -0.59732385369E+03 -0.12612545056E+04 -0.11434328108E+04  0.19351995522E+04  0.70000000000E+03 0. -1.
<mgrwt>
<rscale>  0 0.32342586E+04</rscale>
<asrwt>0</asrwt>
<pdfrwt beam="1">  1        3 0.15297111E+00 0.32342586E+04</pdfrwt>
<pdfrwt beam="2">  1       -3 0.34888638E+00 0.32342586E+04</pdfrwt>
<totfact> 0.13725158E-02</totfact>
</mgrwt>
</event>
<event>
 8    1  0.1714417E-029  0.1466637E+04  0.7818608E-02  0.8906947E-01
          3   -1    0    0  501    0  0.00000000000E+00  0.00000000000E+00  0.18765948427E+04  0.18765948454E+04  0.10100000000E+00 0.  1.
         -3   -1    0    0    0  501 -0.00000000000E+00 -0.00000000000E+00 -0.28655955128E+03  0.28655956908E+03  0.10100000000E+00 0. -1.
     200001    2    1    2    0    0  0.14995413212E+03  0.13000399547E+03  0.92704057174E+03  0.11788022017E+04  0.70055915414E+03 0.  0.
    5000001    2    3    3    0    0  0.12526668423E+03  0.94630761421E+01  0.28991167520E+03  0.35961186108E+03  0.17172832971E+03 0.  0.
        -13    1    4    4    0    0 -0.10271219630E+02  0.30828695418E+02  0.17542646715E+03  0.17841065818E+03  0.10566000000E+00 0. -1.
     200003    1    4    4    0    0  0.13553790385E+03 -0.21365619276E+02  0.11448520805E+03  0.18120120289E+03  0.30000000000E+02 0. -1.
     200000    1    3    3    0    0  0.24687447897E+02  0.12054091932E+03  0.63712889654E+03  0.81919034060E+03  0.50000000000E+03 0. -1.
    -200001    1    1    2    0    0 -0.14995413212E+03 -0.13000399547E+03  0.66299471971E+03  0.98435221285E+03  0.70000000000E+03 0. -1.
<mgrwt>
<rscale>  0 0.14666372E+04</rscale>
<asrwt>0</asrwt>
<pdfrwt beam="1">  1        3 0.26808498E+00 0.14666372E+04</pdfrwt>
<pdfrwt beam="2">  1       -3 0.40937080E-01 0.14666372E+04</pdfrwt>
<totfact> 0.88517133E-01</totfact>
</mgrwt>
</event>
<event>
 8    1  0.1714417E-029  0.1780608E+04  0.7818608E-02  0.8716680E-01
         -3   -1    0    0    0  501 -0.00000000000E+00  0.00000000000E+00  0.98579493908E+03  0.98579494425E+03  0.10100000000E+00 0. -1.
          3   -1    0    0  501    0  0.00000000000E+00 -0.00000000000E+00 -0.80406299328E+03  0.80406299963E+03  0.10100000000E+00 0.  1.
     200001    2    1    2    0    0  0.43493558017E+03 -0.84482528853E+02  0.41797739522E+03  0.92839513623E+03  0.70064696494E+03 0.  0.
    5000001    2    3    3    0    0  0.16719862382E+03 -0.11142689624E+03  0.11702594421E+03  0.28575927309E+03  0.16610827049E+03 0.  0.
        -13    1    4    4    0    0  0.17072333588E+03 -0.35086857960E+02  0.54669718572E+02  0.18266454037E+03  0.10566000000E+00 0. -1.
     200003    1    4    4    0    0 -0.35247120587E+01 -0.76340038276E+02  0.62356225633E+02  0.10309473272E+03  0.30000000000E+02 0. -1.
     200000    1    3    3    0    0  0.26773695636E+03  0.26944367383E+02  0.30095145102E+03  0.64263586315E+03  0.50000000000E+03 0. -1.
    -200001    1    1    2    0    0 -0.43493558017E+03  0.84482528853E+02 -0.23624544943E+03  0.86146280765E+03  0.70000000000E+03 0.  1.
<mgrwt>
<rscale>  0 0.17806080E+04</rscale>
<asrwt>0</asrwt>
<pdfrwt beam="1">  1        3 0.11486614E+00 0.17806080E+04</pdfrwt>
<pdfrwt beam="2">  1       -3 0.14082785E+00 0.17806080E+04</pdfrwt>
<totfact> 0.59503889E-01</totfact>
</mgrwt>
</event>
<event>
 8    1  0.1714417E-029  0.1770638E+04  0.7818608E-02  0.8722072E-01
          3   -1    0    0  501    0  0.00000000000E+00  0.00000000000E+00  0.55270372454E+03  0.55270373377E+03  0.10100000000E+00 0.  1.
         -3   -1    0    0    0  501 -0.00000000000E+00 -0.00000000000E+00 -0.14181006286E+04  0.14181006322E+04  0.10100000000E+00 0. -1.
     200001    2    1    2    0    0 -0.29157011581E+03 -0.33483123099E+03 -0.91724788815E+02  0.83692005634E+03  0.70348891828E+03 0.  0.
    5000001    2    3    3    0    0 -0.64086852703E+02 -0.12525823139E+03 -0.43746511016E+02  0.24702905599E+03  0.19827467831E+03 0.  0.
        -13    1    4    4    0    0 -0.10910506049E+03 -0.10412653424E+03 -0.87454968797E+02  0.17434056352E+03  0.10566000000E+00 0. -1.
     200003    1    4    4    0    0  0.45018207783E+02 -0.21131697151E+02  0.43708457781E+02  0.72688492473E+02  0.30000000000E+02 0. -1.
     200000    1    3    3    0    0 -0.22748326310E+03 -0.20957299960E+03 -0.47978277798E+02  0.58989100035E+03  0.50000000000E+03 0.  1.
    -200001    1    1    2    0    0  0.29157011581E+03  0.33483123099E+03 -0.77367211523E+03  0.11338843096E+04  0.70000000000E+03 0. -1.
<mgrwt>
<rscale>  0 0.17706378E+04</rscale>
<asrwt>0</asrwt>
<pdfrwt beam="1">  1        3 0.78957676E-01 0.17706378E+04</pdfrwt>
<pdfrwt beam="2">  1       -3 0.20258580E+00 0.17706378E+04</pdfrwt>
<totfact> 0.52641842E-01</totfact>
</mgrwt>
</event>
<event>
 8    1  0.1714417E-029  0.1423006E+04  0.7818608E-02  0.8937332E-01
         -3   -1    0    0    0  501 -0.00000000000E+00  0.00000000000E+00  0.71967328451E+03  0.71967329160E+03  0.10100000000E+00 0. -1.
          3   -1    0    0  501    0  0.00000000000E+00 -0.00000000000E+00 -0.70342592904E+03  0.70342593629E+03  0.10100000000E+00 0.  1.
     200001    2    1    2    0    0 -0.87501661536E+02  0.47524773551E+01 -0.77995375078E+02  0.71136836649E+03  0.70162849678E+03 0.  0.
    5000001    2    3    3    0    0 -0.14080549639E+03 -0.18315066804E+02 -0.73835757482E+01  0.20307766561E+03  0.14499790203E+03 0.  0.
        -13    1    4    4    0    0 -0.13244093163E+03 -0.11564726229E+02 -0.56561883519E+02  0.14447699158E+03  0.10566000000E+00 0. -1.
     200003    1    4    4    0    0 -0.83645647548E+01 -0.67503405752E+01  0.49178307771E+02  0.58600674029E+02  0.30000000000E+02 0. -1.
     200000    1    3    3    0    0  0.53303834849E+02  0.23067544159E+02 -0.70611799330E+02  0.50829070089E+03  0.50000000000E+03 0.  1.
    -200001    1    1    2    0    0  0.87501661536E+02 -0.47524773551E+01  0.94242730549E+02  0.71173086140E+03  0.70000000000E+03 0. -1.
<mgrwt>
<rscale>  0 0.14230065E+04</rscale>
<asrwt>0</asrwt>
<pdfrwt beam="1">  1        3 0.10048942E+00 0.14230065E+04</pdfrwt>
<pdfrwt beam="2">  1       -3 0.10281047E+00 0.14230065E+04</pdfrwt>
<totfact> 0.18127641E+00</totfact>
</mgrwt>
</event>
<event>
 8    1  0.1714417E-029  0.1771948E+04  0.7818608E-02  0.8721361E-01
         -3   -1    0    0    0  501 -0.00000000000E+00  0.00000000000E+00  0.52630674429E+03  0.52630675398E+03  0.10100000000E+00 0.  1.
          3   -1    0    0  501    0  0.00000000000E+00 -0.00000000000E+00 -0.14914310176E+04  0.14914310210E+04  0.10100000000E+00 0. -1.
     200001    2    1    2    0    0 -0.54251517435E+03 -0.11196480535E+02 -0.51952681274E+03  0.10262716019E+04  0.69919755151E+03 0.  0.
    5000001    2    3    3    0    0 -0.24716031666E+03  0.29599406747E+02 -0.88770497703E+02  0.30208253861E+03  0.14631921220E+03 0.  0.
        -13    1    4    4    0    0 -0.17393858297E+03  0.36384559160E+02 -0.12246071774E+03  0.21581266261E+03  0.10566000000E+00 0. -1.
     200003    1    4    4    0    0 -0.73221733690E+02 -0.67851524131E+01  0.33690220040E+02  0.86269875995E+02  0.30000000000E+02 0. -1.
     200000    1    3    3    0    0 -0.29535485769E+03 -0.40795887282E+02 -0.43075631504E+03  0.72418906325E+03  0.50000000000E+03 0. -1.
    -200001    1    1    2    0    0  0.54251517435E+03  0.11196480535E+02 -0.44559746053E+03  0.99146617310E+03  0.70000000000E+03 0.  1.
<mgrwt>
<rscale>  0 0.17719483E+04</rscale>
<asrwt>0</asrwt>
<pdfrwt beam="1">  1        3 0.21306157E+00 0.17719483E+04</pdfrwt>
<pdfrwt beam="2">  1       -3 0.75186679E-01 0.17719483E+04</pdfrwt>
<totfact> 0.50818744E-01</totfact>
</mgrwt>
</event>
<event>
 8    1  0.1714417E-029  0.1628409E+04  0.7818608E-02  0.8803283E-01
         -3   -1    0    0    0  501 -0.00000000000E+00  0.00000000000E+00  0.74619358736E+03  0.74619359419E+03  0.10100000000E+00 0. -1.
          3   -1    0    0  501    0  0.00000000000E+00 -0.00000000000E+00 -0.88841399578E+03  0.88841400153E+03  0.10100000000E+00 0.  1.
     200001    2    1    2    0    0 -0.61911293967E+02  0.34630801815E+03  0.15342479809E+03  0.79724964365E+03  0.69878864750E+03 0.  0.
    5000001    2    3    3    0    0  0.17767220049E+02  0.10831163787E+03  0.97248421101E+02  0.23498037723E+03  0.18360674626E+03 0.  0.
        -13    1    4    4    0    0 -0.61475399719E+02  0.80655191571E+02 -0.21987459169E+01  0.10143633642E+03  0.10566000000E+00 0. -1.
     200003    1    4    4    0    0  0.79242619768E+02  0.27656446300E+02  0.99447167018E+02  0.13354404082E+03  0.30000000000E+02 0. -1.
     200000    1    3    3    0    0 -0.79678514016E+02  0.23799638028E+03  0.56176376988E+02  0.56226926641E+03  0.50000000000E+03 0.  1.
    -200001    1    1    2    0    0  0.61911293967E+02 -0.34630801815E+03 -0.29564520652E+03  0.83735795207E+03  0.70000000000E+03 0.  1.
<mgrwt>
<rscale>  0 0.16284088E+04</rscale>
<asrwt>0</asrwt>
<pdfrwt beam="1">  1        3 0.12691629E+00 0.16284088E+04</pdfrwt>
<pdfrwt beam="2">  1       -3 0.10659908E+00 0.16284088E+04</pdfrwt>
<totfact> 0.93510820E-01</totfact>
</mgrwt>
</event>
<event>
 8    1  0.1714417E-029  0.1589496E+04  0.7818608E-02  0.8827027E-01
         -3   -1    0    0    0  501 -0.00000000000E+00  0.00000000000E+00  0.28423702655E+03  0.28423704449E+03  0.10100000000E+00 0. -1.
          3   -1    0    0  501    0  0.00000000000E+00 -0.00000000000E+00 -0.22221743864E+04  0.22221743887E+04  0.10100000000E+00 0.  1.
     200001    2    1    2    0    0  0.84804041736E+02 -0.35981981012E+03 -0.87083401301E+03  0.11777385712E+04  0.70146578157E+03 0.  0.
    5000001    2    3    3    0    0  0.44880467744E+02 -0.12402067605E+03 -0.21434867320E+03  0.31857146015E+03  0.19531266484E+03 0.  0.
        -13    1    4    4    0    0  0.67554574170E+02 -0.92643793176E+02 -0.23800370805E+03  0.26418226495E+03  0.10566000000E+00 0. -1.
     200003    1    4    4    0    0 -0.22674106426E+02 -0.31376882874E+02  0.23655034844E+02  0.54389195200E+02  0.30000000000E+02 0. -1.
     200000    1    3    3    0    0  0.39923573991E+02 -0.23579913407E+03 -0.65648533980E+03  0.85916711108E+03  0.50000000000E+03 0. -1.
    -200001    1    1    2    0    0 -0.84804041736E+02  0.35981981012E+03 -0.10671033469E+04  0.13286728620E+04  0.70000000000E+03 0.  1.
<mgrwt>
<rscale>  0 0.15894959E+04</rscale>
<asrwt>0</asrwt>
<pdfrwt beam="1">  1        3 0.31745347E+00 0.15894959E+04</pdfrwt>
<pdfrwt beam="2">  1       -3 0.40605292E-01 0.15894959E+04</pdfrwt>
<totfact> 0.47498351E-01</totfact>
</mgrwt>
</event>
<event>
 8    1  0.1714417E-029  0.1527217E+04  0.7818608E-02  0.8866553E-01
          3   -1    0    0  501    0  0.00000000000E+00  0.00000000000E+00  0.10015210659E+04  0.10015210710E+04  0.10100000000E+00 0.  1.
         -3   -1    0    0    0  501 -0.00000000000E+00 -0.00000000000E+00 -0.58221197103E+03  0.58221197980E+03  0.10100000000E+00 0. -1.
     200001    2    1    2    0    0  0.52741135532E+02  0.25310141543E+03  0.41565636992E+02  0.74735271040E+03  0.69997601222E+03 0.  0.
    5000001    2    3    3    0    0  0.20926720781E+02 -0.82811037445E+02 -0.23449047619E+02  0.14065983736E+03  0.10926910106E+03 0.  0.
        -13    1    4    4    0    0  0.19741827549E+02 -0.16972734975E+02 -0.55664228006E+02  0.61451858646E+02  0.10566000000E+00 0. -1.
     200003    1    4    4    0    0  0.11848932317E+01 -0.65838302470E+02  0.32215180387E+02  0.79207978711E+02  0.30000000000E+02 0. -1.
     200000    1    3    3    0    0  0.31814414751E+02  0.33591245288E+03  0.65014684611E+02  0.60669287304E+03  0.50000000000E+03 0.  1.
    -200001    1    1    2    0    0 -0.52741135532E+02 -0.25310141543E+03  0.37774345792E+03  0.83638034044E+03  0.70000000000E+03 0.  1.
<mgrwt>
<rscale>  0 0.15272165E+04</rscale>
<asrwt>0</asrwt>
<pdfrwt beam="1">  1        3 0.14307444E+00 0.15272165E+04</pdfrwt>
<pdfrwt beam="2">  1       -3 0.83173140E-01 0.15272165E+04</pdfrwt>
<totfact> 0.12370985E+00</totfact>
</mgrwt>
</event>
<event>
 8    1  0.1714417E-029  0.1529521E+04  0.7818608E-02  0.8865056E-01
         -3   -1    0    0    0  501 -0.00000000000E+00  0.00000000000E+00  0.80185621604E+03  0.80185622240E+03  0.10100000000E+00 0. -1.
          3   -1    0    0  501    0  0.00000000000E+00 -0.00000000000E+00 -0.72938115943E+03  0.72938116642E+03  0.10100000000E+00 0.  1.
     200001    2    1    2    0    0  0.19559642235E+03  0.13514214923E+02 -0.20571487254E+03  0.75288641970E+03  0.69719348659E+03 0.  0.
    5000001    2    3    3    0    0  0.59114662990E+02 -0.70639974636E+01 -0.10424350791E+03  0.22435338261E+03  0.18953439768E+03 0.  0.
        -13    1    4    4    0    0 -0.34150678289E+02 -0.53728619487E+02 -0.96436787836E+02  0.11555560822E+03  0.10566000000E+00 0. -1.
     200003    1    4    4    0    0  0.93265341279E+02  0.46664622024E+02 -0.78067200742E+01  0.10879777438E+03  0.30000000000E+02 0. -1.
     200000    1    3    3    0    0  0.13648175936E+03  0.20578212386E+02 -0.10147136463E+03  0.52853303710E+03  0.50000000000E+03 0.  1.
    -200001    1    1    2    0    0 -0.19559642235E+03 -0.13514214923E+02  0.27818992915E+03  0.77835096911E+03  0.70000000000E+03 0.  1.
<mgrwt>
<rscale>  0 0.15295213E+04</rscale>
<asrwt>0</asrwt>
<pdfrwt beam="1">  1        3 0.10419731E+00 0.15295213E+04</pdfrwt>
<pdfrwt beam="2">  1       -3 0.11455089E+00 0.15295213E+04</pdfrwt>
<totfact> 0.12764771E+00</totfact>
</mgrwt>
</event>
<event>
 8    1  0.1714417E-029  0.1852464E+04  0.7818608E-02  0.8678887E-01
          3   -1    0    0  501    0  0.00000000000E+00  0.00000000000E+00  0.12072010679E+04  0.12072010722E+04  0.10100000000E+00 0. -1.
         -3   -1    0    0    0  501 -0.00000000000E+00 -0.00000000000E+00 -0.71065685642E+03  0.71065686360E+03  0.10100000000E+00 0.  1.
     200001    2    1    2    0    0  0.47797011808E+03  0.15267823401E+03 -0.10489548220E+03  0.86738386084E+03  0.69970395378E+03 0.  0.
    5000001    2    3    3    0    0  0.13471226789E+03  0.74581150466E+01 -0.30091522845E+02  0.23928317862E+03  0.19531492831E+03 0.  0.
        -13    1    4    4    0    0  0.95258098346E+02  0.83232456193E+02  0.30767437656E+02  0.13018599559E+03  0.10566000000E+00 0. -1.
     200003    1    4    4    0    0  0.39454169544E+02 -0.75774341146E+02 -0.60858960501E+02  0.10909718302E+03  0.30000000000E+02 0. -1.
     200000    1    3    3    0    0  0.34325785019E+03  0.14522011897E+03 -0.74803959354E+02  0.62810068222E+03  0.50000000000E+03 0.  1.
    -200001    1    1    2    0    0 -0.47797011808E+03 -0.15267823401E+03  0.60143969373E+03  0.10504740749E+04  0.70000000000E+03 0. -1.
<mgrwt>
<rscale>  0 0.18524640E+04</rscale>
<asrwt>0</asrwt>
<pdfrwt beam="1">  1        3 0.17245729E+00 0.18524640E+04</pdfrwt>
<pdfrwt beam="2">  1       -3 0.10152241E+00 0.18524640E+04</pdfrwt>
<totfact> 0.46651211E-01</totfact>
</mgrwt>
</event>
<event>
 8    1  0.1714417E-029  0.1846109E+04  0.7818608E-02  0.8682157E-01
          3   -1    0    0  501    0  0.00000000000E+00  0.00000000000E+00  0.38913447840E+03  0.38913449151E+03  0.10100000000E+00 0.  1.
         -3   -1    0    0    0  501 -0.00000000000E+00 -0.00000000000E+00 -0.21895496424E+04  0.21895496447E+04  0.10100000000E+00 0. -1.
     200001    2    1    2    0    0  0.47103756598E+03 -0.16545016804E+03 -0.13689537174E+04  0.16167022619E+04  0.70031548355E+03 0.  0.
    5000001    2    3    3    0    0  0.15974648510E+03 -0.18923679556E+03 -0.46862946230E+03  0.54057415379E+03  0.10619481399E+03 0.  0.
        -13    1    4    4    0    0  0.32237231625E+02 -0.20264519892E+02 -0.18679996494E+02  0.42412772868E+02  0.10566000000E+00 0. -1.
     200003    1    4    4    0    0  0.12750925348E+03 -0.16897227567E+03 -0.44994946580E+03  0.49816138093E+03  0.30000000000E+02 0. -1.
     200000    1    3    3    0    0  0.31129108088E+03  0.23786627527E+02 -0.90032425509E+03  0.10761281081E+04  0.50000000000E+03 0. -1.
    -200001    1    1    2    0    0 -0.47103756598E+03  0.16545016804E+03 -0.43146144657E+03  0.96198187434E+03  0.70000000000E+03 0.  1.
<mgrwt>
<rscale>  0 0.18461086E+04</rscale>
<asrwt>0</asrwt>
<pdfrwt beam="1">  1        3 0.55590642E-01 0.18461086E+04</pdfrwt>
<pdfrwt beam="2">  1       -3 0.31279280E+00 0.18461086E+04</pdfrwt>
<totfact> 0.25483971E-01</totfact>
</mgrwt>
</event>
<event>
 8    1  0.1714417E-029  0.2224878E+04  0.7818608E-02  0.8508144E-01
          3   -1    0    0  501    0  0.00000000000E+00  0.00000000000E+00  0.28163394049E+04  0.28163394067E+04  0.10100000000E+00 0. -1.
         -3   -1    0    0    0  501 -0.00000000000E+00 -0.00000000000E+00 -0.43940759166E+03  0.43940760327E+03  0.10100000000E+00 0.  1.
     200001    2    1    2    0    0 -0.79559162616E+03  0.12418398247E+03  0.72900663570E+03  0.12925748097E+04  0.70065060244E+03 0.  0.
    5000001    2    3    3    0    0 -0.62924965786E+02 -0.30091552716E+02  0.13480312756E+03  0.21383518170E+03  0.15062718502E+03 0.  0.
        -13    1    4    4    0    0  0.17917881538E+02  0.30916306010E+02  0.94063064837E+02  0.10062176597E+03  0.10566000000E+00 0. -1.
     200003    1    4    4    0    0 -0.80842847324E+02 -0.61007858726E+02  0.40740062724E+02  0.11321341573E+03  0.30000000000E+02 0. -1.
     200000    1    3    3    0    0 -0.73266666037E+03  0.15427553518E+03  0.59420350814E+03  0.10787396280E+04  0.50000000000E+03 0. -1.
    -200001    1    1    2    0    0  0.79559162616E+03 -0.12418398247E+03  0.16479251775E+04  0.19631722002E+04  0.70000000000E+03 0. -1.
<mgrwt>
<rscale>  0 0.22248784E+04</rscale>
<asrwt>0</asrwt>
<pdfrwt beam="1">  1        3 0.40233422E+00 0.22248784E+04</pdfrwt>
<pdfrwt beam="2">  1       -3 0.62772511E-01 0.22248784E+04</pdfrwt>
<totfact> 0.64088419E-02</totfact>
</mgrwt>
</event>
<event>
 8    1  0.1714417E-029  0.1413634E+04  0.7818608E-02  0.8944008E-01
          3   -1    0    0  501    0  0.00000000000E+00  0.00000000000E+00  0.11538788218E+04  0.11538788262E+04  0.10100000000E+00 0.  1.
         -3   -1    0    0    0  501 -0.00000000000E+00 -0.00000000000E+00 -0.43296586711E+03  0.43296587889E+03  0.10100000000E+00 0. -1.
     200001    2    1    2    0    0 -0.14191590536E+02 -0.51989146756E+02  0.45462380640E+03  0.83596909414E+03  0.69946926194E+03 0.  0.
    5000001    2    3    3    0    0  0.86067302810E+02 -0.91438203671E+02 -0.45235456794E+01  0.14863775868E+03  0.79398961808E+02 0.  0.
        -13    1    4    4    0    0  0.55035535262E+02 -0.31873112725E+02  0.26376948309E+02  0.68851724906E+02  0.10566000000E+00 0. -1.
     200003    1    4    4    0    0  0.31031767547E+02 -0.59565090946E+02 -0.30900493989E+02  0.79786033773E+02  0.30000000000E+02 0. -1.
     200000    1    3    3    0    0 -0.10025889335E+03  0.39449056916E+02  0.45914735208E+03  0.68733133546E+03  0.50000000000E+03 0.  1.
    -200001    1    1    2    0    0  0.14191590536E+02  0.51989146756E+02  0.26628914827E+03  0.75087561094E+03  0.70000000000E+03 0. -1.
<mgrwt>
<rscale>  0 0.14136338E+04</rscale>
<asrwt>0</asrwt>
<pdfrwt beam="1">  1        3 0.16483983E+00 0.14136338E+04</pdfrwt>
<pdfrwt beam="2">  1       -3 0.61852269E-01 0.14136338E+04</pdfrwt>
<totfact> 0.16451863E+00</totfact>
</mgrwt>
</event>
<event>
 8    1  0.1714417E-029  0.1816871E+04  0.7818608E-02  0.8697379E-01
         -3   -1    0    0    0  501 -0.00000000000E+00  0.00000000000E+00  0.30922792508E+03  0.30922794157E+03  0.10100000000E+00 0. -1.
          3   -1    0    0  501    0  0.00000000000E+00 -0.00000000000E+00 -0.26687610525E+04  0.26687610544E+04  0.10100000000E+00 0.  1.
     200001    2    1    2    0    0  0.36363876459E+03  0.21394865508E+03 -0.52872507982E+03  0.97302882548E+03  0.69944814466E+03 0.  0.
    5000001    2    3    3    0    0  0.66282047602E+02  0.71448587140E+02 -0.34709947925E+02  0.19664088312E+03  0.16722633164E+03 0.  0.
        -13    1    4    4    0    0 -0.56060085484E+01  0.10223197996E+02  0.59075112181E+02  0.60214791807E+02  0.10566000000E+00 0. -1.
     200003    1    4    4    0    0  0.71888056151E+02  0.61225389145E+02 -0.93785060106E+02  0.13642609132E+03  0.30000000000E+02 0. -1.
     200000    1    3    3    0    0  0.29735671699E+03  0.14250006794E+03 -0.49401513189E+03  0.77638794236E+03  0.50000000000E+03 0. -1.
    -200001    1    1    2    0    0 -0.36363876459E+03 -0.21394865508E+03 -0.18308080476E+04  0.20049601705E+04  0.70000000000E+03 0.  1.
<mgrwt>
<rscale>  0 0.18168715E+04</rscale>
<asrwt>0</asrwt>
<pdfrwt beam="1">  1        3 0.38125157E+00 0.18168715E+04</pdfrwt>
<pdfrwt beam="2">  1       -3 0.44175421E-01 0.18168715E+04</pdfrwt>
<totfact> 0.17798939E-01</totfact>
</mgrwt>
</event>
<event>
 8    1  0.1714417E-029  0.1545009E+04  0.7818608E-02  0.8855062E-01
          3   -1    0    0  501    0  0.00000000000E+00  0.00000000000E+00  0.65053145790E+03  0.65053146574E+03  0.10100000000E+00 0.  1.
         -3   -1    0    0    0  501 -0.00000000000E+00 -0.00000000000E+00 -0.91734676848E+03  0.91734677404E+03  0.10100000000E+00 0. -1.
     200001    2    1    2    0    0  0.97258098610E+02 -0.29014913529E+03 -0.16644930285E+02  0.76399337388E+03  0.69983081038E+03 0.  0.
    5000001    2    3    3    0    0  0.11978889987E+03 -0.16868205920E+03 -0.37849585663E+02  0.24852123594E+03  0.13239031668E+03 0.  0.
        -13    1    4    4    0    0  0.92064779491E+02 -0.28408416343E+02  0.43566127624E+01  0.96446632812E+02  0.10566000000E+00 0. -1.
     200003    1    4    4    0    0  0.27724120381E+02 -0.14027364285E+03 -0.42206198426E+02  0.15207460312E+03  0.30000000000E+02 0. -1.
     200000    1    3    3    0    0 -0.22530801262E+02 -0.12146707610E+03  0.21204655378E+02  0.51547213794E+03  0.50000000000E+03 0. -1.
    -200001    1    1    2    0    0 -0.97258098610E+02  0.29014913529E+03 -0.25017038030E+03  0.80388486591E+03  0.70000000000E+03 0. -1.
<mgrwt>
<rscale>  0 0.15450087E+04</rscale>
<asrwt>0</asrwt>
<pdfrwt beam="1">  1        3 0.92933067E-01 0.15450087E+04</pdfrwt>
<pdfrwt beam="2">  1       -3 0.13104954E+00 0.15450087E+04</pdfrwt>
<totfact> 0.11962525E+00</totfact>
</mgrwt>
</event>
<event>
 8    1  0.1714417E-029  0.1729194E+04  0.7818608E-02  0.8744887E-01
         -3   -1    0    0    0  501 -0.00000000000E+00  0.00000000000E+00  0.14411234969E+04  0.14411235004E+04  0.10100000000E+00 0. -1.
          3   -1    0    0  501    0  0.00000000000E+00 -0.00000000000E+00 -0.51871168166E+03  0.51871169149E+03  0.10100000000E+00 0.  1.
     200001    2    1    2    0    0  0.18657667000E+03 -0.28485040313E+03  0.88794444176E+03  0.11806441975E+04  0.69966047726E+03 0.  0.
    5000001    2    3    3    0    0 -0.17861153961E+02 -0.11158132809E+03  0.36344603896E+03  0.40804108412E+03  0.14708871302E+03 0.  0.
        -13    1    4    4    0    0  0.40542698246E+02 -0.11157070934E+03  0.21195620519E+03  0.24293451309E+03  0.10566000000E+00 0. -1.
     200003    1    4    4    0    0 -0.58403852208E+02 -0.10618748914E-01  0.15148983376E+03  0.16510657103E+03  0.30000000000E+02 0. -1.
     200000    1    3    3    0    0  0.20443782396E+03 -0.17326907503E+03  0.52449840280E+03  0.77260311336E+03  0.50000000000E+03 0. -1.
    -200001    1    1    2    0    0 -0.18657667000E+03  0.28485040313E+03  0.34467373442E+02  0.77919099442E+03  0.70000000000E+03 0.  1.
<mgrwt>
<rscale>  0 0.17291936E+04</rscale>
<asrwt>0</asrwt>
<pdfrwt beam="1">  1        3 0.74101668E-01 0.17291936E+04</pdfrwt>
<pdfrwt beam="2">  1       -3 0.20587479E+00 0.17291936E+04</pdfrwt>
<totfact> 0.57948825E-01</totfact>
</mgrwt>
</event>
<event>
 8    1  0.1714417E-029  0.3019023E+04  0.7818608E-02  0.8238319E-01
         -3   -1    0    0    0  501 -0.00000000000E+00  0.00000000000E+00  0.15238494203E+04  0.15238494236E+04  0.10100000000E+00 0. -1.
          3   -1    0    0  501    0  0.00000000000E+00 -0.00000000000E+00 -0.14953087535E+04  0.14953087570E+04  0.10100000000E+00 0.  1.
     200001    2    1    2    0    0 -0.12735628991E+04 -0.22631652630E+03  0.35409216167E+03  0.15127832592E+04  0.69996450069E+03 0.  0.
    5000001    2    3    3    0    0 -0.35195815866E+03 -0.91090483558E+02  0.94585852029E+02  0.42421313971E+03  0.19707430795E+03 0.  0.
        -13    1    4    4    0    0 -0.50889576992E+02 -0.39781279965E+02 -0.53126392581E+02  0.83634466787E+02  0.10566000000E+00 0. -1.
     200003    1    4    4    0    0 -0.30106858167E+03 -0.51309203593E+02  0.14771224461E+03  0.34057867292E+03  0.30000000000E+02 0. -1.
     200000    1    3    3    0    0 -0.92160474043E+03 -0.13522604274E+03  0.25950630964E+03  0.10885701195E+04  0.50000000000E+03 0. -1.
    -200001    1    1    2    0    0  0.12735628991E+04  0.22631652630E+03 -0.32555149493E+03  0.15063749214E+04  0.70000000000E+03 0.  1.
<mgrwt>
<rscale>  0 0.30190233E+04</rscale>
<asrwt>0</asrwt>
<pdfrwt beam="1">  1        3 0.21361554E+00 0.30190233E+04</pdfrwt>
<pdfrwt beam="2">  1       -3 0.21769278E+00 0.30190233E+04</pdfrwt>
<totfact> 0.30909575E-02</totfact>
</mgrwt>
</event>
<event>
 8    1  0.1714417E-029  0.2001258E+04  0.7818608E-02  0.8606033E-01
          3   -1    0    0  501    0  0.00000000000E+00  0.00000000000E+00  0.61806463279E+03  0.61806464104E+03  0.10100000000E+00 0.  1.
         -3   -1    0    0    0  501 -0.00000000000E+00 -0.00000000000E+00 -0.16199900661E+04  0.16199900693E+04  0.10100000000E+00 0. -1.
     200001    2    1    2    0    0  0.23713038415E+03  0.52256127118E+03 -0.97944440949E+03  0.13326230466E+04  0.69804851685E+03 0.  0.
    5000001    2    3    3    0    0  0.89862709447E+02  0.21780917904E+03 -0.34953555545E+03  0.46007117420E+03  0.18432101285E+03 0.  0.
        -13    1    4    4    0    0  0.69030572799E+02  0.24258731077E+03 -0.27265265455E+03  0.37142065711E+03  0.10566000000E+00 0. -1.
     200003    1    4    4    0    0  0.20832136648E+02 -0.24778131727E+02 -0.76882900898E+02  0.88650517087E+02  0.30000000000E+02 0.  1.
     200000    1    3    3    0    0  0.14726767470E+03  0.30475209213E+03 -0.62990885404E+03  0.87255187243E+03  0.50000000000E+03 0.  1.
    -200001    1    1    2    0    0 -0.23713038415E+03 -0.52256127118E+03 -0.22481023858E+02  0.90543166372E+03  0.70000000000E+03 0. -1.
<mgrwt>
<rscale>  0 0.20012582E+04</rscale>
<asrwt>0</asrwt>
<pdfrwt beam="1">  1        3 0.88294949E-01 0.20012582E+04</pdfrwt>
<pdfrwt beam="2">  1       -3 0.23142715E+00 0.20012582E+04</pdfrwt>
<totfact> 0.26786093E-01</totfact>
</mgrwt>
</event>
<event>
 8    1  0.1714417E-029  0.1611125E+04  0.7818608E-02  0.8813742E-01
         -3   -1    0    0    0  501 -0.00000000000E+00  0.00000000000E+00  0.22404707918E+03  0.22404710195E+03  0.10100000000E+00 0. -1.
          3   -1    0    0  501    0  0.00000000000E+00 -0.00000000000E+00 -0.28964053686E+04  0.28964053703E+04  0.10100000000E+00 0.  1.
     200001    2    1    2    0    0 -0.24755715791E+03 -0.29011238771E+03 -0.11129116542E+04  0.13690748568E+04  0.70024557805E+03 0.  0.
    5000001    2    3    3    0    0  0.79356107485E+00 -0.12122582843E+03 -0.16498958107E+03  0.25608024486E+03  0.15381546973E+03 0.  0.
        -13    1    4    4    0    0  0.27585867600E+02 -0.13638763565E+02  0.21160047102E+02  0.37346415092E+02  0.10566000000E+00 0. -1.
     200003    1    4    4    0    0 -0.26792306525E+02 -0.10758706486E+03 -0.18614962817E+03  0.21873382977E+03  0.30000000000E+02 0. -1.
     200000    1    3    3    0    0 -0.24835071899E+03 -0.16888655928E+03 -0.94792207316E+03  0.11129946120E+04  0.50000000000E+03 0.  1.
    -200001    1    1    2    0    0  0.24755715791E+03  0.29011238771E+03 -0.15594466351E+04  0.17513776154E+04  0.70000000000E+03 0. -1.
<mgrwt>
<rscale>  0 0.16111253E+04</rscale>
<asrwt>0</asrwt>
<pdfrwt beam="1">  1        3 0.41377217E+00 0.16111253E+04</pdfrwt>
<pdfrwt beam="2">  1       -3 0.32006729E-01 0.16111253E+04</pdfrwt>
<totfact> 0.22951962E-01</totfact>
</mgrwt>
</event>
<event>
 8    1  0.1714417E-029  0.1502155E+04  0.7818608E-02  0.8883021E-01
         -3   -1    0    0    0  501 -0.00000000000E+00  0.00000000000E+00  0.30855156618E+03  0.30855158271E+03  0.10100000000E+00 0. -1.
          3   -1    0    0  501    0  0.00000000000E+00 -0.00000000000E+00 -0.18282754632E+04  0.18282754660E+04  0.10100000000E+00 0.  1.
     200001    2    1    2    0    0 -0.18473257919E+03 -0.89961595412E+01 -0.10436653776E+04  0.12703175158E+04  0.70018719914E+03 0.  0.
    5000001    2    3    3    0    0 -0.10103416587E+03  0.66611600673E+02 -0.30182742492E+03  0.36862715551E+03  0.17361214626E+03 0.  0.
        -13    1    4    4    0    0 -0.90319278607E+02  0.10817274660E+03 -0.27675769407E+03  0.31057003652E+03  0.10566000000E+00 0. -1.
     200003    1    4    4    0    0 -0.10714887266E+02 -0.41561145932E+02 -0.25069730853E+02  0.58057118989E+02  0.30000000000E+02 0. -1.
     200000    1    3    3    0    0 -0.83698413318E+02 -0.75607760214E+02 -0.74183795272E+03  0.90169036032E+03  0.50000000000E+03 0. -1.
    -200001    1    1    2    0    0  0.18473257919E+03  0.89961595412E+01 -0.47605851940E+03  0.86650953289E+03  0.70000000000E+03 0. -1.
<mgrwt>
<rscale>  0 0.15021548E+04</rscale>
<asrwt>0</asrwt>
<pdfrwt beam="1">  1        3 0.26118220E+00 0.15021548E+04</pdfrwt>
<pdfrwt beam="2">  1       -3 0.44078798E-01 0.15021548E+04</pdfrwt>
<totfact> 0.83295862E-01</totfact>
</mgrwt>
</event>
<event>
 8    1  0.1714417E-029  0.1730120E+04  0.7818608E-02  0.8744370E-01
          3   -1    0    0  501    0  0.00000000000E+00  0.00000000000E+00  0.86964104464E+03  0.86964105050E+03  0.10100000000E+00 0.  1.
         -3   -1    0    0    0  501 -0.00000000000E+00 -0.00000000000E+00 -0.86050312028E+03  0.86050312621E+03  0.10100000000E+00 0. -1.
     200001    2    1    2    0    0  0.46671443398E+03  0.18668318263E+03 -0.72839943837E+02  0.86446909654E+03  0.69951996962E+03 0.  0.
    5000001    2    3    3    0    0  0.20148718931E+03  0.39518189171E+02  0.23789910131E+01  0.27484132008E+03  0.18268365250E+03 0.  0.
        -13    1    4    4    0    0  0.38168719686E+02  0.19844264918E+02 -0.78180431276E+02  0.89234729849E+02  0.10566000000E+00 0. -1.
     200003    1    4    4    0    0  0.16331846963E+03  0.19673924253E+02  0.80559422289E+02  0.18560659023E+03  0.30000000000E+02 0. -1.
     200000    1    3    3    0    0  0.26522724466E+03  0.14716499345E+03 -0.75218934851E+02  0.58962777646E+03  0.50000000000E+03 0. -1.
    -200001    1    1    2    0    0 -0.46671443398E+03 -0.18668318263E+03  0.81977868197E+02  0.86567508017E+03  0.70000000000E+03 0.  1.
<mgrwt>
<rscale>  0 0.17301200E+04</rscale>
<asrwt>0</asrwt>
<pdfrwt beam="1">  1        3 0.12423444E+00 0.17301200E+04</pdfrwt>
<pdfrwt beam="2">  1       -3 0.12292902E+00 0.17301200E+04</pdfrwt>
<totfact> 0.69352043E-01</totfact>
</mgrwt>
</event>
<event>
 8    1  0.1714417E-029  0.1552168E+04  0.7818608E-02  0.8850484E-01
         -3   -1    0    0    0  501 -0.00000000000E+00  0.00000000000E+00  0.81111099251E+03  0.81111099880E+03  0.10100000000E+00 0. -1.
          3   -1    0    0  501    0  0.00000000000E+00 -0.00000000000E+00 -0.74256946375E+03  0.74256947062E+03  0.10100000000E+00 0.  1.
     200001    2    1    2    0    0 -0.15433080880E+03 -0.23960492263E+03  0.21264870072E+03  0.78426809981E+03  0.69901964563E+03 0.  0.
    5000001    2    3    3    0    0 -0.26548643979E+02 -0.71865277232E+02  0.12336594079E+03  0.23432602877E+03  0.18390237585E+03 0.  0.
        -13    1    4    4    0    0 -0.42936730677E+02 -0.33942639904E+01  0.14783337552E+03  0.15397987515E+03  0.10566000000E+00 0. -1.
     200003    1    4    4    0    0  0.16388086698E+02 -0.68471013241E+02 -0.24467434723E+02  0.80346153622E+02  0.30000000000E+02 0. -1.
     200000    1    3    3    0    0 -0.12778216482E+03 -0.16773964540E+03  0.89282759923E+02  0.54994207104E+03  0.50000000000E+03 0.  1.
    -200001    1    1    2    0    0  0.15433080880E+03  0.23960492263E+03 -0.14410717195E+03  0.76941236961E+03  0.70000000000E+03 0.  1.
<mgrwt>
<rscale>  0 0.15521679E+04</rscale>
<asrwt>0</asrwt>
<pdfrwt beam="1">  1        3 0.10608135E+00 0.15521679E+04</pdfrwt>
<pdfrwt beam="2">  1       -3 0.11587300E+00 0.15521679E+04</pdfrwt>
<totfact> 0.11881188E+00</totfact>
</mgrwt>
</event>
<event>
 8    1  0.1714417E-029  0.1549215E+04  0.7818608E-02  0.8852370E-01
          3   -1    0    0  501    0  0.00000000000E+00  0.00000000000E+00  0.61236699748E+03  0.61236700581E+03  0.10100000000E+00 0. -1.
         -3   -1    0    0    0  501 -0.00000000000E+00 -0.00000000000E+00 -0.97983157326E+03  0.97983157846E+03  0.10100000000E+00 0.  1.
     200001    2    1    2    0    0 -0.16309785659E+02  0.76116689691E+02  0.14777700797E+03  0.71953963074E+03  0.69988533101E+03 0.  0.
    5000001    2    3    3    0    0  0.27589498419E+02  0.52864952483E+01  0.77550395158E+01  0.19365921159E+03  0.19145396873E+03 0.  0.
        -13    1    4    4    0    0  0.36088616204E+00  0.39301076576E+02 -0.81172519298E+02  0.90186994140E+02  0.10566000000E+00 0. -1.
     200003    1    4    4    0    0  0.27228612257E+02 -0.34014581328E+02  0.88927558814E+02  0.10347221745E+03  0.30000000000E+02 0. -1.
     200000    1    3    3    0    0 -0.43899284078E+02  0.70830194442E+02  0.14002196846E+03  0.52588041914E+03  0.50000000000E+03 0. -1.
    -200001    1    1    2    0    0  0.16309785659E+02 -0.76116689691E+02 -0.51524158375E+03  0.87265895353E+03  0.70000000000E+03 0.  1.
<mgrwt>
<rscale>  0 0.15492147E+04</rscale>
<asrwt>0</asrwt>
<pdfrwt beam="1">  1        3 0.87481002E-01 0.15492147E+04</pdfrwt>
<pdfrwt beam="2">  1       -3 0.13997594E+00 0.15492147E+04</pdfrwt>
<totfact> 0.11628640E+00</totfact>
</mgrwt>
</event>
<event>
 8    1  0.1714417E-029  0.1774186E+04  0.7818608E-02  0.8720149E-01
          3   -1    0    0  501    0  0.00000000000E+00  0.00000000000E+00  0.20307829307E+04  0.20307829332E+04  0.10100000000E+00 0.  1.
         -3   -1    0    0    0  501 -0.00000000000E+00 -0.00000000000E+00 -0.38750259453E+03  0.38750260769E+03  0.10100000000E+00 0. -1.
     200001    2    1    2    0    0 -0.24371621367E+03 -0.46877849054E+03  0.10036211424E+04  0.13327834681E+04  0.69993250332E+03 0.  0.
    5000001    2    3    3    0    0 -0.57462398833E+02 -0.35113076275E+02  0.18862871688E+03  0.26649606366E+03  0.17579676821E+03 0.  0.
        -13    1    4    4    0    0  0.36334854349E+02 -0.70294584950E+02  0.53024811682E+02  0.95253305096E+02  0.10566000000E+00 0. -1.
     200003    1    4    4    0    0 -0.93797253182E+02  0.35181508674E+02  0.13560390520E+03  0.17124275857E+03  0.30000000000E+02 0. -1.
     200000    1    3    3    0    0 -0.18625381483E+03 -0.43366541426E+03  0.81499242557E+03  0.10662874044E+04  0.50000000000E+03 0.  1.
    -200001    1    1    2    0    0  0.24371621367E+03  0.46877849054E+03  0.63965919370E+03  0.10855020728E+04  0.70000000000E+03 0. -1.
<mgrwt>
<rscale>  0 0.17741856E+04</rscale>
<asrwt>0</asrwt>
<pdfrwt beam="1">  1        3 0.29011185E+00 0.17741856E+04</pdfrwt>
<pdfrwt beam="2">  1       -3 0.55357514E-01 0.17741856E+04</pdfrwt>
<totfact> 0.35199052E-01</totfact>
</mgrwt>
</event>
<event>
 8    1  0.1714417E-029  0.1710651E+04  0.7818608E-02  0.8755313E-01
         -3   -1    0    0    0  501 -0.00000000000E+00  0.00000000000E+00  0.14690872337E+04  0.14690872372E+04  0.10100000000E+00 0. -1.
          3   -1    0    0  501    0  0.00000000000E+00 -0.00000000000E+00 -0.49798384519E+03  0.49798385544E+03  0.10100000000E+00 0.  1.
     200001    2    1    2    0    0  0.47639978168E+03 -0.10085172944E+03  0.55995781400E+03  0.10204093226E+04  0.70039603719E+03 0.  0.
    5000001    2    3    3    0    0  0.15897178201E+03  0.69604573800E+01  0.24583462551E+03  0.34139726076E+03  0.17549060122E+03 0.  0.
        -13    1    4    4    0    0  0.15260730492E+03  0.67171289377E+02  0.19664446966E+03  0.25781782375E+03  0.10566000000E+00 0. -1.
     200003    1    4    4    0    0  0.63644770828E+01 -0.60210831997E+02  0.49190155847E+02  0.83579437008E+02  0.30000000000E+02 0. -1.
     200000    1    3    3    0    0  0.31742799967E+03 -0.10781218682E+03  0.31412318850E+03  0.67901206186E+03  0.50000000000E+03 0.  1.
    -200001    1    1    2    0    0 -0.47639978168E+03  0.10085172944E+03  0.41114557450E+03  0.94666176998E+03  0.70000000000E+03 0. -1.
<mgrwt>
<rscale>  0 0.17106510E+04</rscale>
<asrwt>0</asrwt>
<pdfrwt beam="1">  1        3 0.71140550E-01 0.17106510E+04</pdfrwt>
<pdfrwt beam="2">  1       -3 0.20986961E+00 0.17106510E+04</pdfrwt>
<totfact> 0.59924787E-01</totfact>
</mgrwt>
</event>
<event>
 8    1  0.1714417E-029  0.1554374E+04  0.7818608E-02  0.8849079E-01
         -3   -1    0    0    0  501 -0.00000000000E+00  0.00000000000E+00  0.13004288084E+03  0.13004292006E+03  0.10100000000E+00 0. -1.
          3   -1    0    0  501    0  0.00000000000E+00 -0.00000000000E+00 -0.46447708499E+04  0.46447708510E+04  0.10100000000E+00 0.  1.
     200001    2    1    2    0    0 -0.10432856177E+03  0.73071157818E+02 -0.32179715877E+04  0.32956920873E+04  0.70001525112E+03 0.  0.
    5000001    2    3    3    0    0 -0.93680643858E+02 -0.56764209286E+02 -0.58141588505E+03  0.60898470201E+03  0.14429032333E+03 0.  0.
        -13    1    4    4    0    0 -0.46884755971E+02  0.13491946175E+02 -0.49224474155E+02  0.69305648932E+02  0.10566000000E+00 0. -1.
     200003    1    4    4    0    0 -0.46795887887E+02 -0.70256155462E+02 -0.53219141089E+03  0.53967905308E+03  0.30000000000E+02 0.  1.
     200000    1    3    3    0    0 -0.10647917912E+02  0.12983536710E+03 -0.26365557027E+04  0.26867073853E+04  0.50000000000E+03 0.  1.
    -200001    1    1    2    0    0  0.10432856177E+03 -0.73071157818E+02 -0.12967563813E+04  0.14791216838E+04  0.70000000000E+03 0. -1.
<mgrwt>
<rscale>  0 0.15543738E+04</rscale>
<asrwt>0</asrwt>
<pdfrwt beam="1">  1        3 0.66353859E+00 0.15543738E+04</pdfrwt>
<pdfrwt beam="2">  1       -3 0.18577560E-01 0.15543738E+04</pdfrwt>
<totfact> 0.36426360E-02</totfact>
</mgrwt>
</event>
<event>
 8    1  0.1714417E-029  0.1406166E+04  0.7818608E-02  0.8949367E-01
         -3   -1    0    0    0  501 -0.00000000000E+00  0.00000000000E+00  0.16255502273E+04  0.16255502304E+04  0.10100000000E+00 0. -1.
          3   -1    0    0  501    0  0.00000000000E+00 -0.00000000000E+00 -0.30409751574E+03  0.30409753251E+03  0.10100000000E+00 0.  1.
     200001    2    1    2    0    0  0.49641463423E+02  0.41763865717E+02  0.66185851389E+03  0.96565969197E+03  0.70016673223E+03 0.  0.
    5000001    2    3    3    0    0 -0.32407687183E+01  0.66302622721E+02  0.20379852851E+03  0.28505875803E+03  0.18793114416E+03 0.  0.
        -13    1    4    4    0    0 -0.34414751178E+02 -0.43868669916E+01 -0.24308646243E+02  0.42362024819E+02  0.10566000000E+00 0. -1.
     200003    1    4    4    0    0  0.31173982459E+02  0.70689489712E+02  0.22810717475E+03  0.24269673321E+03  0.30000000000E+02 0. -1.
     200000    1    3    3    0    0  0.52882232142E+02 -0.24538757003E+02  0.45805998538E+03  0.68060093394E+03  0.50000000000E+03 0. -1.
    -200001    1    1    2    0    0 -0.49641463423E+02 -0.41763865717E+02  0.65959419764E+03  0.96398807095E+03  0.70000000000E+03 0.  1.
<mgrwt>
<rscale>  0 0.14061661E+04</rscale>
<asrwt>0</asrwt>
<pdfrwt beam="1">  1        3 0.43442503E-01 0.14061661E+04</pdfrwt>
<pdfrwt beam="2">  1       -3 0.23222146E+00 0.14061661E+04</pdfrwt>
<totfact> 0.12578003E+00</totfact>
</mgrwt>
</event>
<event>
 8    1  0.1714417E-029  0.2101220E+04  0.7818608E-02  0.8560706E-01
          3   -1    0    0  501    0  0.00000000000E+00  0.00000000000E+00  0.53423232028E+03  0.53423232983E+03  0.10100000000E+00 0.  1.
         -3   -1    0    0    0  501 -0.00000000000E+00 -0.00000000000E+00 -0.20661071899E+04  0.20661071923E+04  0.10100000000E+00 0. -1.
     200001    2    1    2    0    0 -0.44900929041E+03 -0.47187630203E+03 -0.13046470846E+04  0.16175327998E+04  0.70002268226E+03 0.  0.
    5000001    2    3    3    0    0 -0.16847905415E+03 -0.64088424017E+02 -0.27173099493E+03  0.36777129643E+03  0.17007491025E+03 0.  0.
        -13    1    4    4    0    0 -0.14829235667E+03 -0.11328656513E+03 -0.21028587067E+03  0.28114876392E+03  0.10566000000E+00 0. -1.
     200003    1    4    4    0    0 -0.20186697475E+02  0.49198141113E+02 -0.61445124253E+02  0.86622532509E+02  0.30000000000E+02 0. -1.
     200000    1    3    3    0    0 -0.28053023627E+03 -0.40778787801E+03 -0.10329160897E+04  0.12497615033E+04  0.50000000000E+03 0. -1.
    -200001    1    1    2    0    0  0.44900929041E+03  0.47187630203E+03 -0.22722778497E+03  0.98280672238E+03  0.70000000000E+03 0.  1.
<mgrwt>
<rscale>  0 0.21012199E+04</rscale>
<asrwt>0</asrwt>
<pdfrwt beam="1">  1        3 0.76318905E-01 0.21012199E+04</pdfrwt>
<pdfrwt beam="2">  1       -3 0.29515817E+00 0.21012199E+04</pdfrwt>
<totfact> 0.15850671E-01</totfact>
</mgrwt>
</event>
<event>
 8    1  0.1714417E-029  0.1613207E+04  0.7818608E-02  0.8812475E-01
         -3   -1    0    0    0  501 -0.00000000000E+00  0.00000000000E+00  0.30084537142E+03  0.30084538837E+03  0.10100000000E+00 0. -1.
          3   -1    0    0  501    0  0.00000000000E+00 -0.00000000000E+00 -0.21626040079E+04  0.21626040103E+04  0.10100000000E+00 0.  1.
     200001    2    1    2    0    0 -0.24271491505E+03  0.11804198865E+03 -0.47972382353E+03  0.89091492675E+03  0.70053552284E+03 0.  0.
    5000001    2    3    3    0    0 -0.14276650737E+03  0.15412163057E+02 -0.11228118829E+03  0.25409732689E+03  0.17702704847E+03 0.  0.
        -13    1    4    4    0    0 -0.10303309431E+03  0.25719122630E+02  0.23799495138E+02  0.10882885153E+03  0.10566000000E+00 0. -1.
     200003    1    4    4    0    0 -0.39733413059E+02 -0.10306959573E+02 -0.13608068343E+03  0.14526847535E+03  0.30000000000E+02 0. -1.
     200000    1    3    3    0    0 -0.99948407673E+02  0.10262982560E+03 -0.36744263524E+03  0.63681759986E+03  0.50000000000E+03 0. -1.
    -200001    1    1    2    0    0  0.24271491505E+03 -0.11804198865E+03 -0.13820348130E+04  0.15725344719E+04  0.70000000000E+03 0.  1.
<mgrwt>
<rscale>  0 0.16132073E+04</rscale>
<asrwt>0</asrwt>
<pdfrwt beam="1">  1        3 0.30894342E+00 0.16132073E+04</pdfrwt>
<pdfrwt beam="2">  1       -3 0.42977913E-01 0.16132073E+04</pdfrwt>
<totfact> 0.47118097E-01</totfact>
</mgrwt>
</event>
<event>
 8    1  0.1714417E-029  0.1465789E+04  0.7818608E-02  0.8907527E-01
         -3   -1    0    0    0  501 -0.00000000000E+00  0.00000000000E+00  0.85524623818E+03  0.85524624414E+03  0.10100000000E+00 0. -1.
          3   -1    0    0  501    0  0.00000000000E+00 -0.00000000000E+00 -0.62804672461E+03  0.62804673273E+03  0.10100000000E+00 0.  1.
     200001    2    1    2    0    0  0.92879398081E+01 -0.20241688129E+03  0.19163398510E+03  0.75368776412E+03  0.70018769047E+03 0.  0.
    5000001    2    3    3    0    0  0.53519105360E+02 -0.52199137580E+02 -0.44670028599E+02  0.17891706774E+03  0.15629095006E+03 0.  0.
        -13    1    4    4    0    0  0.14167886230E+02 -0.10198639125E+03 -0.23718655279E+02  0.10566238107E+03  0.10566000000E+00 0. -1.
     200003    1    4    4    0    0  0.39351219130E+02  0.49787253670E+02 -0.20951373320E+02  0.73254686669E+02  0.30000000000E+02 0. -1.
     200000    1    3    3    0    0 -0.44231165552E+02 -0.15021774371E+03  0.23630401370E+03  0.57477069639E+03  0.50000000000E+03 0. -1.
    -200001    1    1    2    0    0 -0.92879398081E+01  0.20241688129E+03  0.35565528467E+02  0.72960521275E+03  0.70000000000E+03 0.  1.
<mgrwt>
<rscale>  0 0.14657894E+04</rscale>
<asrwt>0</asrwt>
<pdfrwt beam="1">  1        3 0.89720961E-01 0.14657894E+04</pdfrwt>
<pdfrwt beam="2">  1       -3 0.12217804E+00 0.14657894E+04</pdfrwt>
<totfact> 0.15512307E+00</totfact>
</mgrwt>
</event>
<event>
 8    1  0.1714417E-029  0.2120016E+04  0.7818608E-02  0.8552477E-01
         -3   -1    0    0    0  501 -0.00000000000E+00  0.00000000000E+00  0.11064516741E+04  0.11064516788E+04  0.10100000000E+00 0. -1.
          3   -1    0    0  501    0  0.00000000000E+00 -0.00000000000E+00 -0.10155141640E+04  0.10155141691E+04  0.10100000000E+00 0.  1.
     200001    2    1    2    0    0  0.61098034388E+03 -0.50871666846E+03 -0.31884989019E+00  0.10587549785E+04  0.69919408856E+03 0.  0.
    5000001    2    3    3    0    0  0.90082539219E+02 -0.16731886703E+03 -0.41012823468E+02  0.25904066627E+03  0.17120031529E+03 0.  0.
        -13    1    4    4    0    0  0.22673110029E+02  0.24203128402E+02  0.27060038210E+02  0.42803249582E+02  0.10566000000E+00 0. -1.
     200003    1    4    4    0    0  0.67409429191E+02 -0.19152199543E+03 -0.68072861678E+02  0.21623741668E+03  0.30000000000E+02 0. -1.
     200000    1    3    3    0    0  0.52089780466E+03 -0.34139780144E+03  0.40693973578E+02  0.79971431225E+03  0.50000000000E+03 0. -1.
    -200001    1    1    2    0    0 -0.61098034388E+03  0.50871666846E+03  0.91256359998E+02  0.10632108693E+04  0.70000000000E+03 0.  1.
<mgrwt>
<rscale>  0 0.21200164E+04</rscale>
<asrwt>0</asrwt>
<pdfrwt beam="1">  1        3 0.14507345E+00 0.21200164E+04</pdfrwt>
<pdfrwt beam="2">  1       -3 0.15806453E+00 0.21200164E+04</pdfrwt>
<totfact> 0.24015855E-01</totfact>
</mgrwt>
</event>
<event>
 8    1  0.1714417E-029  0.1666852E+04  0.7818608E-02  0.8780499E-01
         -3   -1    0    0    0  501 -0.00000000000E+00  0.00000000000E+00  0.13485952189E+04  0.13485952227E+04  0.10100000000E+00 0. -1.
          3   -1    0    0  501    0  0.00000000000E+00 -0.00000000000E+00 -0.51505346552E+03  0.51505347542E+03  0.10100000000E+00 0.  1.
     200001    2    1    2    0    0 -0.44570937387E+03  0.35675853382E+02  0.49182180474E+03  0.96548271358E+03  0.70024179405E+03 0.  0.
    5000001    2    3    3    0    0 -0.86614009436E+02  0.69955121963E+02  0.25295110508E+03  0.30428398387E+03  0.12731368960E+03 0.  0.
        -13    1    4    4    0    0 -0.10381970218E+03  0.81603288882E+02  0.18726318161E+03  0.22913999579E+03  0.10566000000E+00 0. -1.
     200003    1    4    4    0    0  0.17205692749E+02 -0.11648166919E+02  0.65687923474E+02  0.75143988088E+02  0.30000000000E+02 0. -1.
     200000    1    3    3    0    0 -0.35909536443E+03 -0.34279268582E+02  0.23887069965E+03  0.66119872970E+03  0.50000000000E+03 0.  1.
    -200001    1    1    2    0    0  0.44570937387E+03 -0.35675853382E+02  0.34171994865E+03  0.89816598453E+03  0.70000000000E+03 0.  1.
<mgrwt>
<rscale>  0 0.16668517E+04</rscale>
<asrwt>0</asrwt>
<pdfrwt beam="1">  1        3 0.73579068E-01 0.16668517E+04</pdfrwt>
<pdfrwt beam="2">  1       -3 0.19265646E+00 0.16668517E+04</pdfrwt>
<totfact> 0.71761866E-01</totfact>
</mgrwt>
</event>
<event>
 8    1  0.1714417E-029  0.2392053E+04  0.7818608E-02  0.8442485E-01
          3   -1    0    0  501    0  0.00000000000E+00  0.00000000000E+00  0.75328612248E+03  0.75328612925E+03  0.10100000000E+00 0. -1.
         -3   -1    0    0    0  501 -0.00000000000E+00 -0.00000000000E+00 -0.18989848378E+04  0.18989848405E+04  0.10100000000E+00 0.  1.
     200001    2    1    2    0    0 -0.53653972345E+03 -0.65386283792E+03 -0.10994731426E+04  0.15533859488E+04  0.69911031253E+03 0.  0.
    5000001    2    3    3    0    0 -0.11688669735E+03 -0.78187954661E+02 -0.25239530553E+03  0.33886913315E+03  0.17706790470E+03 0.  0.
        -13    1    4    4    0    0 -0.50567144563E+02 -0.12764003599E+03 -0.13948301065E+03  0.19571544732E+03  0.10566000000E+00 0. -1.
     200003    1    4    4    0    0 -0.66319552783E+02  0.49452081331E+02 -0.11291229488E+03  0.14315368582E+03  0.30000000000E+02 0. -1.
     200000    1    3    3    0    0 -0.41965302610E+03 -0.57567488326E+03 -0.84707783706E+03  0.12145168157E+04  0.50000000000E+03 0.  1.
    -200001    1    1    2    0    0  0.53653972345E+03  0.65386283792E+03 -0.46225572752E+02  0.10988850209E+04  0.70000000000E+03 0. -1.
<mgrwt>
<rscale>  0 0.23920526E+04</rscale>
<asrwt>0</asrwt>
<pdfrwt beam="1">  1        3 0.10761230E+00 0.23920526E+04</pdfrwt>
<pdfrwt beam="2">  1       -3 0.27128355E+00 0.23920526E+04</pdfrwt>
<totfact> 0.96057766E-02</totfact>
</mgrwt>
</event>
<event>
 8    1  0.1714417E-029  0.1607199E+04  0.7818608E-02  0.8816137E-01
          3   -1    0    0  501    0  0.00000000000E+00  0.00000000000E+00  0.67854448599E+03  0.67854449350E+03  0.10100000000E+00 0.  1.
         -3   -1    0    0    0  501 -0.00000000000E+00 -0.00000000000E+00 -0.95170249084E+03  0.95170249620E+03  0.10100000000E+00 0. -1.
     200001    2    1    2    0    0 -0.79547821824E+02  0.10870940050E+03  0.23934360394E+03  0.75229284014E+03  0.70036673741E+03 0.  0.
    5000001    2    3    3    0    0 -0.21252070708E+02 -0.32938378686E+02  0.75886649906E+02  0.20440538476E+03  0.18570457825E+03 0.  0.
        -13    1    4    4    0    0 -0.55195925032E+02 -0.27220777093E+02 -0.44305472645E+02  0.75832360612E+02  0.10566000000E+00 0. -1.
     200003    1    4    4    0    0  0.33943854325E+02 -0.57176015927E+01  0.12019212255E+03  0.12857302414E+03  0.30000000000E+02 0. -1.
     200000    1    3    3    0    0 -0.58295751116E+02  0.14164777918E+03  0.16345695404E+03  0.54788745539E+03  0.50000000000E+03 0.  1.
    -200001    1    1    2    0    0  0.79547821824E+02 -0.10870940050E+03 -0.51250160880E+03  0.87795414956E+03  0.70000000000E+03 0. -1.
<mgrwt>
<rscale>  0 0.16071994E+04</rscale>
<asrwt>0</asrwt>
<pdfrwt beam="1">  1        3 0.96934928E-01 0.16071994E+04</pdfrwt>
<pdfrwt beam="2">  1       -3 0.13595750E+00 0.16071994E+04</pdfrwt>
<totfact> 0.98526053E-01</totfact>
</mgrwt>
</event>
<event>
 8    1  0.1714417E-029  0.1487844E+04  0.7818608E-02  0.8892577E-01
          3   -1    0    0  501    0  0.00000000000E+00  0.00000000000E+00  0.22426122531E+04  0.22426122554E+04  0.10100000000E+00 0.  1.
         -3   -1    0    0    0  501 -0.00000000000E+00 -0.00000000000E+00 -0.24677463146E+03  0.24677465213E+03  0.10100000000E+00 0. -1.
     200001    2    1    2    0    0  0.93041661446E+02  0.14821359385E+03  0.69479602843E+03  0.10016593627E+04  0.69996852621E+03 0.  0.
    5000001    2    3    3    0    0  0.16567726902E+03  0.54523668919E+02  0.17642021058E+03  0.27175031221E+03  0.11091597515E+03 0.  0.
        -13    1    4    4    0    0  0.55383556835E+02  0.72118076328E+02  0.82273282068E+02  0.12262650369E+03  0.10566000000E+00 0. -1.
     200003    1    4    4    0    0  0.11029371218E+03 -0.17594407409E+02  0.94146928515E+02  0.14912380852E+03  0.30000000000E+02 0. -1.
     200000    1    3    3    0    0 -0.72635607573E+02  0.93689924930E+02  0.51837581784E+03  0.72990905053E+03  0.50000000000E+03 0. -1.
    -200001    1    1    2    0    0 -0.93041661446E+02 -0.14821359385E+03  0.13010415932E+04  0.14877275448E+04  0.70000000000E+03 0.  1.
<mgrwt>
<rscale>  0 0.14878439E+04</rscale>
<asrwt>0</asrwt>
<pdfrwt beam="1">  1        3 0.32037319E+00 0.14878439E+04</pdfrwt>
<pdfrwt beam="2">  1       -3 0.35253519E-01 0.14878439E+04</pdfrwt>
<totfact> 0.60954559E-01</totfact>
</mgrwt>
</event>
<event>
 8    1  0.1714417E-029  0.1486740E+04  0.7818608E-02  0.8893319E-01
         -3   -1    0    0    0  501 -0.00000000000E+00  0.00000000000E+00  0.18203303106E+04  0.18203303134E+04  0.10100000000E+00 0.  1.
          3   -1    0    0  501    0  0.00000000000E+00 -0.00000000000E+00 -0.30357080552E+03  0.30357082232E+03  0.10100000000E+00 0. -1.
     200001    2    1    2    0    0 -0.88835415063E+02  0.12018732642E+03  0.47115098771E+03  0.85676503570E+03  0.69980450754E+03 0.  0.
    5000001    2    3    3    0    0 -0.74692939330E+01  0.53407351115E+02  0.21292578025E+03  0.28426152607E+03  0.18044138052E+03 0.  0.
        -13    1    4    4    0    0  0.23879589016E+02  0.51736081106E+02  0.23048398996E+03  0.23742311946E+03  0.10566000000E+00 0. -1.
     200003    1    4    4    0    0 -0.31348882949E+02  0.16712700089E+01 -0.17558209713E+02  0.46838406612E+02  0.30000000000E+02 0. -1.
     200000    1    3    3    0    0 -0.81366121130E+02  0.66779975307E+02  0.25822520746E+03  0.57250350963E+03  0.50000000000E+03 0. -1.
    -200001    1    1    2    0    0  0.88835415063E+02 -0.12018732642E+03  0.10456085174E+04  0.12671361000E+04  0.70000000000E+03 0. -1.
<mgrwt>
<rscale>  0 0.14867403E+04</rscale>
<asrwt>0</asrwt>
<pdfrwt beam="1">  1        3 0.43367257E-01 0.14867403E+04</pdfrwt>
<pdfrwt beam="2">  1       -3 0.26004720E+00 0.14867403E+04</pdfrwt>
<totfact> 0.86413560E-01</totfact>
</mgrwt>
</event>
<event>
 8    1  0.1714417E-029  0.1523697E+04  0.7818608E-02  0.8868846E-01
         -3   -1    0    0    0  501 -0.00000000000E+00  0.00000000000E+00  0.19424031728E+04  0.19424031754E+04  0.10100000000E+00 0. -1.
          3   -1    0    0  501    0  0.00000000000E+00 -0.00000000000E+00 -0.29881198419E+03  0.29881200126E+03  0.10100000000E+00 0.  1.
     200001    2    1    2    0    0  0.27184625835E+03  0.12872419541E+03  0.82737324335E+03  0.11246660104E+04  0.69989773851E+03 0.  0.
    5000001    2    3    3    0    0  0.30029601811E+02 -0.91453702379E+01  0.19240700919E+03  0.26987631047E+03  0.18662087500E+03 0.  0.
        -13    1    4    4    0    0 -0.45030806754E+02  0.12371025650E+02  0.17920858670E+03  0.18519326269E+03  0.10566000000E+00 0. -1.
     200003    1    4    4    0    0  0.75060408564E+02 -0.21516395888E+02  0.13198422492E+02  0.84683047785E+02  0.30000000000E+02 0. -1.
     200000    1    3    3    0    0  0.24181665654E+03  0.13786956565E+03  0.63496623415E+03  0.85478969988E+03  0.50000000000E+03 0. -1.
    -200001    1    1    2    0    0 -0.27184625835E+03 -0.12872419541E+03  0.81621794529E+03  0.11165491663E+04  0.70000000000E+03 0. -1.
<mgrwt>
<rscale>  0 0.15236973E+04</rscale>
<asrwt>0</asrwt>
<pdfrwt beam="1">  1        3 0.42687428E-01 0.15236973E+04</pdfrwt>
<pdfrwt beam="2">  1       -3 0.27748617E+00 0.15236973E+04</pdfrwt>
<totfact> 0.70780011E-01</totfact>
</mgrwt>
</event>
<event>
 8    1  0.1714417E-029  0.1859940E+04  0.7818608E-02  0.8675058E-01
          3   -1    0    0  501    0  0.00000000000E+00  0.00000000000E+00  0.17568888260E+04  0.17568888289E+04  0.10100000000E+00 0.  1.
         -3   -1    0    0    0  501 -0.00000000000E+00 -0.00000000000E+00 -0.49225898112E+03  0.49225899148E+03  0.10100000000E+00 0. -1.
     200001    2    1    2    0    0  0.37727351490E+03  0.41436809582E+03  0.93005528366E+03  0.12920812810E+04  0.70031063256E+03 0.  0.
    5000001    2    3    3    0    0  0.71747916267E+02  0.25554650774E+02  0.24063608626E+03  0.30728657331E+03  0.17526696341E+03 0.  0.
        -13    1    4    4    0    0  0.98143526189E+02  0.76998679497E+02  0.14115931758E+03  0.18837970294E+03  0.10566000000E+00 0. -1.
     200003    1    4    4    0    0 -0.26395609923E+02 -0.51444028724E+02  0.99476768678E+02  0.11890687037E+03  0.30000000000E+02 0. -1.
     200000    1    3    3    0    0  0.30552559863E+03  0.38881344505E+03  0.68941919741E+03  0.98479470765E+03  0.50000000000E+03 0.  1.
    -200001    1    1    2    0    0 -0.37727351490E+03 -0.41436809582E+03  0.33457456124E+03  0.95706653944E+03  0.70000000000E+03 0.  1.
<mgrwt>
<rscale>  0 0.18599401E+04</rscale>
<asrwt>0</asrwt>
<pdfrwt beam="1">  1        3 0.25098412E+00 0.18599401E+04</pdfrwt>
<pdfrwt beam="2">  1       -3 0.70322713E-01 0.18599401E+04</pdfrwt>
<totfact> 0.34867256E-01</totfact>
</mgrwt>
</event>
<event>
 8    1  0.1714417E-029  0.1629296E+04  0.7818608E-02  0.8802750E-01
          3   -1    0    0  501    0  0.00000000000E+00  0.00000000000E+00  0.41050058127E+03  0.41050059369E+03  0.10100000000E+00 0.  1.
         -3   -1    0    0    0  501 -0.00000000000E+00 -0.00000000000E+00 -0.16166887652E+04  0.16166887684E+04  0.10100000000E+00 0. -1.
     200001    2    1    2    0    0 -0.62621532352E+02  0.15630495390E+03 -0.10775875637E+04  0.12958270617E+04  0.69972860547E+03 0.  0.
    5000001    2    3    3    0    0  0.10054781803E+02  0.43989929857E+01 -0.34420665146E+03  0.39238651017E+03  0.18806516073E+03 0.  0.
        -13    1    4    4    0    0 -0.30382946518E+02  0.86324937098E+02 -0.18485966490E+03  0.20627221110E+03  0.10566000000E+00 0. -1.
     200003    1    4    4    0    0  0.40437728321E+02 -0.81925944113E+02 -0.15934698657E+03  0.18611429907E+03  0.30000000000E+02 0. -1.
     200000    1    3    3    0    0 -0.72676314154E+02  0.15190596091E+03 -0.73338091225E+03  0.90344055148E+03  0.50000000000E+03 0. -1.
    -200001    1    1    2    0    0  0.62621532352E+02 -0.15630495390E+03 -0.12860062022E+03  0.73136230040E+03  0.70000000000E+03 0.  1.
<mgrwt>
<rscale>  0 0.16292964E+04</rscale>
<asrwt>0</asrwt>
<pdfrwt beam="1">  1        3 0.58642942E-01 0.16292964E+04</pdfrwt>
<pdfrwt beam="2">  1       -3 0.23095554E+00 0.16292964E+04</pdfrwt>
<totfact> 0.67958539E-01</totfact>
</mgrwt>
</event>
<event>
 8    1  0.1714417E-029  0.1436510E+04  0.7818608E-02  0.8927807E-01
         -3   -1    0    0    0  501 -0.00000000000E+00  0.00000000000E+00  0.60233867026E+03  0.60233867873E+03  0.10100000000E+00 0. -1.
          3   -1    0    0  501    0  0.00000000000E+00 -0.00000000000E+00 -0.85647891056E+03  0.85647891651E+03  0.10100000000E+00 0.  1.
     200001    2    1    2    0    0 -0.94683616349E+02  0.24255692939E+02 -0.25849286621E+03  0.75201332870E+03  0.69939413696E+03 0.  0.
    5000001    2    3    3    0    0 -0.10422126885E+03  0.48069456653E+02 -0.39518280241E+02  0.20556302771E+03  0.16589670986E+03 0.  0.
        -13    1    4    4    0    0 -0.13902904426E+03  0.37188494919E+02 -0.57574479655E+02  0.15500610044E+03  0.10566000000E+00 0. -1.
     200003    1    4    4    0    0  0.34807775409E+02  0.10880961733E+02  0.18056199414E+02  0.50556927265E+02  0.30000000000E+02 0. -1.
     200000    1    3    3    0    0  0.95376525017E+01 -0.23813763714E+02 -0.21897458597E+03  0.54645030100E+03  0.50000000000E+03 0.  1.
    -200001    1    1    2    0    0  0.94683616349E+02 -0.24255692939E+02  0.43526259181E+01  0.70680426654E+03  0.70000000000E+03 0. -1.
<mgrwt>
<rscale>  0 0.14365102E+04</rscale>
<asrwt>0</asrwt>
<pdfrwt beam="1">  1        3 0.12235413E+00 0.14365102E+04</pdfrwt>
<pdfrwt beam="2">  1       -3 0.86048383E-01 0.14365102E+04</pdfrwt>
<totfact> 0.17054195E+00</totfact>
</mgrwt>
</event>
<event>
 8    1  0.1714417E-029  0.2096837E+04  0.7818608E-02  0.8562638E-01
         -3   -1    0    0    0  501 -0.00000000000E+00  0.00000000000E+00  0.12501777001E+04  0.12501777042E+04  0.10100000000E+00 0. -1.
          3   -1    0    0  501    0  0.00000000000E+00 -0.00000000000E+00 -0.87921979446E+03  0.87921980026E+03  0.10100000000E+00 0.  1.
     200001    2    1    2    0    0  0.57786267716E+03 -0.50437070361E+03  0.39165535834E+02  0.10392593220E+04  0.70015064005E+03 0.  0.
    5000001    2    3    3    0    0  0.12344715587E+03 -0.16790964403E+03 -0.91639548152E+02  0.27322441375E+03  0.15106596119E+03 0.  0.
        -13    1    4    4    0    0  0.61840917380E+02 -0.65748861794E+02  0.34874466071E+02  0.96764928757E+02  0.10566000000E+00 0. -1.
     200003    1    4    4    0    0  0.61606238490E+02 -0.10216078224E+03 -0.12651401422E+03  0.17645948499E+03  0.30000000000E+02 0. -1.
     200000    1    3    3    0    0  0.45441552129E+03 -0.33646105958E+03  0.13080508399E+03  0.76603490821E+03  0.50000000000E+03 0.  1.
    -200001    1    1    2    0    0 -0.57786267716E+03  0.50437070361E+03  0.33179236984E+03  0.10901381825E+04  0.70000000000E+03 0. -1.
<mgrwt>
<rscale>  0 0.20968367E+04</rscale>
<asrwt>0</asrwt>
<pdfrwt beam="1">  1        3 0.12560283E+00 0.20968367E+04</pdfrwt>
<pdfrwt beam="2">  1       -3 0.17859682E+00 0.20968367E+04</pdfrwt>
<totfact> 0.24827389E-01</totfact>
</mgrwt>
</event>
<event>
 8    1  0.1714417E-029  0.2650873E+04  0.7818608E-02  0.8351123E-01
          3   -1    0    0  501    0  0.00000000000E+00  0.00000000000E+00  0.17772640674E+04  0.17772640703E+04  0.10100000000E+00 0.  1.
         -3   -1    0    0    0  501 -0.00000000000E+00 -0.00000000000E+00 -0.98847545788E+03  0.98847546304E+03  0.10100000000E+00 0. -1.
     200001    2    1    2    0    0 -0.22948471853E+03  0.84661956555E+03  0.11299437065E+04  0.15927882449E+04  0.70055241668E+03 0.  0.
    5000001    2    3    3    0    0  0.42014271850E+02  0.13895590526E+03  0.13784362495E+03  0.24788596979E+03  0.14619386592E+03 0.  0.
        -13    1    4    4    0    0 -0.34696009622E+02 -0.21675719342E+01  0.54015817738E+02  0.64235746915E+02  0.10566000000E+00 0. -1.
     200003    1    4    4    0    0  0.76710281472E+02  0.14112347719E+03  0.83827807211E+02  0.18365022287E+03  0.30000000000E+02 0. -1.
     200000    1    3    3    0    0 -0.27149899038E+03  0.70766366029E+03  0.99210008154E+03  0.13449022751E+04  0.50000000000E+03 0.  1.
    -200001    1    1    2    0    0  0.22948471853E+03 -0.84661956555E+03 -0.34115509695E+03  0.11729512884E+04  0.70000000000E+03 0. -1.
<mgrwt>
<rscale>  0 0.26508730E+04</rscale>
<asrwt>0</asrwt>
<pdfrwt beam="1">  1        3 0.25389486E+00 0.26508730E+04</pdfrwt>
<pdfrwt beam="2">  1       -3 0.14121078E+00 0.26508730E+04</pdfrwt>
<totfact> 0.61191618E-02</totfact>
</mgrwt>
</event>
<event>
 8    1  0.1714417E-029  0.1549886E+04  0.7818608E-02  0.8851941E-01
         -3   -1    0    0    0  501 -0.00000000000E+00  0.00000000000E+00  0.54996602007E+03  0.54996602934E+03  0.10100000000E+00 0. -1.
          3   -1    0    0  501    0  0.00000000000E+00 -0.00000000000E+00 -0.10919523639E+04  0.10919523685E+04  0.10100000000E+00 0.  1.
     200001    2    1    2    0    0 -0.19418187022E+03 -0.26910654529E+03 -0.26949420413E+03  0.82071385720E+03  0.70058488272E+03 0.  0.
    5000001    2    3    3    0    0 -0.76496955846E+01 -0.79925874180E+02 -0.20787583036E+03  0.25116982687E+03  0.11587604532E+03 0.  0.
        -13    1    4    4    0    0 -0.18603309633E+01 -0.10277439542E+03 -0.14921950196E+03  0.18119742855E+03  0.10566000000E+00 0. -1.
     200003    1    4    4    0    0 -0.57893646213E+01  0.22848521239E+02 -0.58656328396E+02  0.69972398319E+02  0.30000000000E+02 0. -1.
     200000    1    3    3    0    0 -0.18653217463E+03 -0.18918067111E+03 -0.61618373771E+02  0.56954403033E+03  0.50000000000E+03 0. -1.
    -200001    1    1    2    0    0  0.19418187022E+03  0.26910654529E+03 -0.27249213966E+03  0.82120454067E+03  0.70000000000E+03 0. -1.
<mgrwt>
<rscale>  0 0.15498861E+04</rscale>
<asrwt>0</asrwt>
<pdfrwt beam="1">  1        3 0.15599320E+00 0.15498861E+04</pdfrwt>
<pdfrwt beam="2">  1       -3 0.78566575E-01 0.15498861E+04</pdfrwt>
<totfact> 0.11214628E+00</totfact>
</mgrwt>
</event>
<event>
 8    1  0.1714417E-029  0.2727296E+04  0.7818608E-02  0.8326202E-01
          3   -1    0    0  501    0  0.00000000000E+00  0.00000000000E+00  0.17503303641E+04  0.17503303671E+04  0.10100000000E+00 0. -1.
         -3   -1    0    0    0  501 -0.00000000000E+00 -0.00000000000E+00 -0.10623911166E+04  0.10623911214E+04  0.10100000000E+00 0.  1.
     200001    2    1    2    0    0 -0.11295632459E+04 -0.19908248264E+03  0.10493960985E+03  0.13479909539E+04  0.70037156483E+03 0.  0.
    5000001    2    3    3    0    0 -0.37982582143E+03  0.91383003122E+01  0.52369520510E+02  0.42158622900E+03  0.17504633286E+03 0.  0.
        -13    1    4    4    0    0 -0.13079449506E+02 -0.29113950151E+02  0.40335983742E+02  0.51436337751E+02  0.10566000000E+00 0. -1.
     200003    1    4    4    0    0 -0.36674637192E+03  0.38252250463E+02  0.12033536769E+02  0.37014989125E+03  0.30000000000E+02 0. -1.
     200000    1    3    3    0    0 -0.74973742443E+03 -0.20822078295E+03  0.52570089341E+02  0.92640472491E+03  0.50000000000E+03 0.  1.
    -200001    1    1    2    0    0  0.11295632459E+04  0.19908248264E+03  0.58299963770E+03  0.14647305346E+04  0.70000000000E+03 0. -1.
<mgrwt>
<rscale>  0 0.27272957E+04</rscale>
<asrwt>0</asrwt>
<pdfrwt beam="1">  1        3 0.25004719E+00 0.27272957E+04</pdfrwt>
<pdfrwt beam="2">  1       -3 0.15177016E+00 0.27272957E+04</pdfrwt>
<totfact> 0.53107215E-02</totfact>
</mgrwt>
</event>
<event>
 8    1  0.1714417E-029  0.1948330E+04  0.7818608E-02  0.8631167E-01
          3   -1    0    0  501    0  0.00000000000E+00  0.00000000000E+00  0.94571864179E+03  0.94571864719E+03  0.10100000000E+00 0.  1.
         -3   -1    0    0    0  501 -0.00000000000E+00 -0.00000000000E+00 -0.10034664981E+04  0.10034665032E+04  0.10100000000E+00 0. -1.
     200001    2    1    2    0    0 -0.11874700437E+03 -0.50700481899E+03  0.41234683633E+03  0.95815348711E+03  0.69056024639E+03 0.  0.
    5000001    2    3    3    0    0 -0.68151790447E+02 -0.19570197227E+03  0.14879126425E+03  0.31090478868E+03  0.17770486434E+03 0.  0.
        -13    1    4    4    0    0 -0.37232622136E+02 -0.62832982147E+02  0.15472848481E+03  0.17109987427E+03  0.10566000000E+00 0. -1.
     200003    1    4    4    0    0 -0.30919168311E+02 -0.13286899012E+03 -0.59372205603E+01  0.13980491441E+03  0.30000000000E+02 0. -1.
     200000    1    3    3    0    0 -0.50595213924E+02 -0.31130284672E+03  0.26355557207E+03  0.64724869843E+03  0.50000000000E+03 0. -1.
    -200001    1    1    2    0    0  0.11874700437E+03  0.50700481899E+03 -0.47009469261E+03  0.99103166324E+03  0.70000000000E+03 0. -1.
<mgrwt>
<rscale>  0 0.19483295E+04</rscale>
<asrwt>0</asrwt>
<pdfrwt beam="1">  1        3 0.13510267E+00 0.19483295E+04</pdfrwt>
<pdfrwt beam="2">  1       -3 0.14335236E+00 0.19483295E+04</pdfrwt>
<totfact> 0.37642148E-01</totfact>
</mgrwt>
</event>
<event>
 8    1  0.1714417E-029  0.2158781E+04  0.7818608E-02  0.8535783E-01
         -3   -1    0    0    0  501 -0.00000000000E+00  0.00000000000E+00  0.11283049514E+04  0.11283049559E+04  0.10100000000E+00 0. -1.
          3   -1    0    0  501    0  0.00000000000E+00 -0.00000000000E+00 -0.10325962967E+04  0.10325963016E+04  0.10100000000E+00 0.  1.
     200001    2    1    2    0    0  0.30332481150E+03  0.27635591589E+03 -0.66072970309E+03  0.10515872701E+04  0.70773830799E+03 0.  0.
    5000001    2    3    3    0    0  0.90489557065E+02  0.11952009989E+03 -0.20543254457E+03  0.32550750778E+03  0.20317281570E+03 0.  0.
        -13    1    4    4    0    0  0.10526756715E+03  0.14521988094E+03 -0.21723457287E+03  0.28171074763E+03  0.10566000000E+00 0. -1.
     200003    1    4    4    0    0 -0.14778010083E+02 -0.25699781057E+02  0.11802028295E+02  0.43796760158E+02  0.30000000000E+02 0. -1.
     200000    1    3    3    0    0  0.21283525444E+03  0.15683581600E+03 -0.45529715852E+03  0.72607976233E+03  0.50000000000E+03 0.  1.
    -200001    1    1    2    0    0 -0.30332481150E+03 -0.27635591589E+03  0.75643835781E+03  0.11093139874E+04  0.70000000000E+03 0. -1.
<mgrwt>
<rscale>  0 0.21587807E+04</rscale>
<asrwt>0</asrwt>
<pdfrwt beam="1">  1        3 0.14751376E+00 0.21587807E+04</pdfrwt>
<pdfrwt beam="2">  1       -3 0.16118642E+00 0.21587807E+04</pdfrwt>
<totfact> 0.21770215E-01</totfact>
</mgrwt>
</event>
<event>
 8    1  0.1714417E-029  0.1571981E+04  0.7818608E-02  0.8837948E-01
          3   -1    0    0  501    0  0.00000000000E+00  0.00000000000E+00  0.13013987692E+04  0.13013987731E+04  0.10100000000E+00 0.  1.
         -3   -1    0    0    0  501 -0.00000000000E+00 -0.00000000000E+00 -0.47470551957E+03  0.47470553031E+03  0.10100000000E+00 0. -1.
     200001    2    1    2    0    0 -0.67252643125E+02  0.17455699649E+03  0.69217628521E+02  0.72788563368E+03  0.70002382287E+03 0.  0.
    5000001    2    3    3    0    0 -0.46219919129E+02  0.46492229595E+02  0.77734275418E+02  0.21124698504E+03  0.18516172060E+03 0.  0.
        -13    1    4    4    0    0 -0.40907883072E+02 -0.55327761553E+01 -0.53059703822E+02  0.67226556085E+02  0.10566000000E+00 0. -1.
     200003    1    4    4    0    0 -0.53120360575E+01  0.52025005750E+02  0.13079397924E+03  0.14402042895E+03  0.30000000000E+02 0. -1.
     200000    1    3    3    0    0 -0.21032723996E+02  0.12806476689E+03 -0.85166468975E+01  0.51663864864E+03  0.50000000000E+03 0. -1.
    -200001    1    1    2    0    0  0.67252643125E+02 -0.17455699649E+03  0.75747562109E+03  0.10482186697E+04  0.70000000000E+03 0.  1.
<mgrwt>
<rscale>  0 0.15719812E+04</rscale>
<asrwt>0</asrwt>
<pdfrwt beam="1">  1        3 0.18591411E+00 0.15719812E+04</pdfrwt>
<pdfrwt beam="2">  1       -3 0.67815074E-01 0.15719812E+04</pdfrwt>
<totfact> 0.96001228E-01</totfact>
</mgrwt>
</event>
<event>
 8    1  0.1714417E-029  0.1485171E+04  0.7818608E-02  0.8894374E-01
          3   -1    0    0  501    0  0.00000000000E+00  0.00000000000E+00  0.56013739127E+03  0.56013740038E+03  0.10100000000E+00 0. -1.
         -3   -1    0    0    0  501 -0.00000000000E+00 -0.00000000000E+00 -0.98446115522E+03  0.98446116041E+03  0.10100000000E+00 0.  1.
     200001    2    1    2    0    0  0.19320100975E+03 -0.31944895044E+01 -0.47803216229E+02  0.72661044486E+03  0.69881382082E+03 0.  0.
    5000001    2    3    3    0    0  0.36247725874E+02  0.19427516483E+02 -0.12701554684E+02  0.20089358655E+03  0.19622838122E+03 0.  0.
        -13    1    4    4    0    0 -0.59140850159E+02  0.57342454512E+02 -0.38431928626E+02  0.90900063526E+02  0.10566000000E+00 0. -1.
     200003    1    4    4    0    0  0.95388576033E+02 -0.37914938029E+02  0.25730373942E+02  0.10999352302E+03  0.30000000000E+02 0. -1.
     200000    1    3    3    0    0  0.15695328388E+03 -0.22622005988E+02 -0.35101661546E+02  0.52571685832E+03  0.50000000000E+03 0.  1.
    -200001    1    1    2    0    0 -0.19320100975E+03  0.31944895044E+01 -0.37652054772E+03  0.81798811592E+03  0.70000000000E+03 0.  1.
<mgrwt>
<rscale>  0 0.14851714E+04</rscale>
<asrwt>0</asrwt>
<pdfrwt beam="1">  1        3 0.80019629E-01 0.14851714E+04</pdfrwt>
<pdfrwt beam="2">  1       -3 0.14063731E+00 0.14851714E+04</pdfrwt>
<totfact> 0.14105396E+00</totfact>
</mgrwt>
</event>
<event>
 8    1  0.1714417E-029  0.1510477E+04  0.7818608E-02  0.8877516E-01
         -3   -1    0    0    0  501 -0.00000000000E+00  0.00000000000E+00  0.62886887243E+03  0.62886888054E+03  0.10100000000E+00 0.  1.
          3   -1    0    0  501    0  0.00000000000E+00 -0.00000000000E+00 -0.90700131317E+03  0.90700131880E+03  0.10100000000E+00 0. -1.
     200001    2    1    2    0    0  0.95759922653E+02 -0.12087014287E+03 -0.38305614705E+03  0.81144729912E+03  0.69852355238E+03 0.  0.
    5000001    2    3    3    0    0 -0.39499556986E+01 -0.58110717961E+02 -0.13979045999E+03  0.24306450579E+03  0.19012239105E+03 0.  0.
        -13    1    4    4    0    0 -0.91004878390E+01 -0.88321126900E+02 -0.16918759352E+03  0.19107038834E+03  0.10566000000E+00 0. -1.
     200003    1    4    4    0    0  0.51505321404E+01  0.30210408938E+02  0.29397133527E+02  0.51994117448E+02  0.30000000000E+02 0. -1.
     200000    1    3    3    0    0  0.99709878352E+02 -0.62759424909E+02 -0.24326568705E+03  0.56838279333E+03  0.50000000000E+03 0.  1.
    -200001    1    1    2    0    0 -0.95759922653E+02  0.12087014287E+03  0.10492370631E+03  0.72442290022E+03  0.70000000000E+03 0.  1.
<mgrwt>
<rscale>  0 0.15104766E+04</rscale>
<asrwt>0</asrwt>
<pdfrwt beam="1">  1        3 0.12957162E+00 0.15104766E+04</pdfrwt>
<pdfrwt beam="2">  1       -3 0.89838412E-01 0.15104766E+04</pdfrwt>
<totfact> 0.13351133E+00</totfact>
</mgrwt>
</event>
<event>
 8    1  0.1714417E-029  0.1507099E+04  0.7818608E-02  0.8879746E-01
         -3   -1    0    0    0  501 -0.00000000000E+00  0.00000000000E+00  0.20935736271E+04  0.20935736296E+04  0.10100000000E+00 0. -1.
          3   -1    0    0  501    0  0.00000000000E+00 -0.00000000000E+00 -0.27122852893E+03  0.27122854773E+03  0.10100000000E+00 0.  1.
     200001    2    1    2    0    0 -0.12295880218E+03 -0.23831865977E+03  0.10467473316E+04  0.12861611127E+04  0.69757851246E+03 0.  0.
    5000001    2    3    3    0    0 -0.47671378707E+02 -0.11794705829E+03  0.42072138898E+03  0.47248673104E+03  0.17335845799E+03 0.  0.
        -13    1    4    4    0    0 -0.94596641202E+02 -0.12635916799E+03  0.29071711307E+03  0.33080449643E+03  0.10566000000E+00 0. -1.
     200003    1    4    4    0    0  0.46925262495E+02  0.84121097000E+01  0.13000427591E+03  0.14168223461E+03  0.30000000000E+02 0. -1.
     200000    1    3    3    0    0 -0.75287423470E+02 -0.12037160148E+03  0.62602594257E+03  0.81367438165E+03  0.50000000000E+03 0. -1.
    -200001    1    1    2    0    0  0.12295880218E+03  0.23831865977E+03  0.77559776663E+03  0.10786410646E+04  0.70000000000E+03 0.  1.
<mgrwt>
<rscale>  0 0.15070991E+04</rscale>
<asrwt>0</asrwt>
<pdfrwt beam="1">  1        3 0.38746935E-01 0.15070991E+04</pdfrwt>
<pdfrwt beam="2">  1       -3 0.29908194E+00 0.15070991E+04</pdfrwt>
<totfact> 0.64977505E-01</totfact>
</mgrwt>
</event>
<event>
 8    1  0.1714417E-029  0.1874298E+04  0.7818608E-02  0.8667757E-01
         -3   -1    0    0    0  501 -0.00000000000E+00  0.00000000000E+00  0.14616806395E+04  0.14616806430E+04  0.10100000000E+00 0. -1.
          3   -1    0    0  501    0  0.00000000000E+00 -0.00000000000E+00 -0.60084844961E+03  0.60084845810E+03  0.10100000000E+00 0.  1.
     200001    2    1    2    0    0  0.34695283642E+03 -0.42957732596E+03  0.74893417225E+03  0.11639557229E+04  0.69926931920E+03 0.  0.
    5000001    2    3    3    0    0 -0.11758764916E+02 -0.14717078532E+03  0.28933533631E+03  0.34562904170E+03  0.11809737095E+03 0.  0.
        -13    1    4    4    0    0  0.33101577266E+02 -0.83863207078E+01  0.93987400559E+02  0.99998437090E+02  0.10566000000E+00 0. -1.
     200003    1    4    4    0    0 -0.44860342182E+02 -0.13878446461E+03  0.19534793575E+03  0.24563060461E+03  0.30000000000E+02 0. -1.
     200000    1    3    3    0    0  0.35871160133E+03 -0.28240654064E+03  0.45959883594E+03  0.81832668118E+03  0.50000000000E+03 0.  1.
    -200001    1    1    2    0    0 -0.34695283642E+03  0.42957732596E+03  0.11189801763E+03  0.89857337821E+03  0.70000000000E+03 0.  1.
<mgrwt>
<rscale>  0 0.18742983E+04</rscale>
<asrwt>0</asrwt>
<pdfrwt beam="1">  1        3 0.85835494E-01 0.18742983E+04</pdfrwt>
<pdfrwt beam="2">  1       -3 0.20881152E+00 0.18742983E+04</pdfrwt>
<totfact> 0.39584005E-01</totfact>
</mgrwt>
</event>
<event>
 8    1  0.1714417E-029  0.2338512E+04  0.7818608E-02  0.8462889E-01
          3   -1    0    0  501    0  0.00000000000E+00  0.00000000000E+00  0.20833009566E+04  0.20833009591E+04  0.10100000000E+00 0.  1.
         -3   -1    0    0    0  501 -0.00000000000E+00 -0.00000000000E+00 -0.65624678758E+03  0.65624679536E+03  0.10100000000E+00 0. -1.
     200001    2    1    2    0    0  0.35349799439E+03 -0.22045566366E+03  0.16958846901E+04  0.18817416104E+04  0.70097437506E+03 0.  0.
    5000001    2    3    3    0    0  0.97213098824E+02 -0.62798828008E+02  0.53237581644E+03  0.58009245466E+03  0.19922140107E+03 0.  0.
        -13    1    4    4    0    0  0.13486064125E+03 -0.97642990173E+02  0.33712358913E+03  0.37599716967E+03  0.10566000000E+00 0. -1.
     200003    1    4    4    0    0 -0.37647542422E+02  0.34844162164E+02  0.19525222731E+03  0.20409528499E+03  0.30000000000E+02 0. -1.
     200000    1    3    3    0    0  0.25628489556E+03 -0.15765683565E+03  0.11635088737E+04  0.13016491557E+04  0.50000000000E+03 0.  1.
    -200001    1    1    2    0    0 -0.35349799439E+03  0.22045566366E+03 -0.26883052107E+03  0.85780614403E+03  0.70000000000E+03 0. -1.
<mgrwt>
<rscale>  0 0.23385120E+04</rscale>
<asrwt>0</asrwt>
<pdfrwt beam="1">  1        3 0.29761442E+00 0.23385120E+04</pdfrwt>
<pdfrwt beam="2">  1       -3 0.93749543E-01 0.23385120E+04</pdfrwt>
<totfact> 0.96213419E-02</totfact>
</mgrwt>
</event>
<event>
 8    1  0.1714417E-029  0.1713388E+04  0.7818608E-02  0.8753765E-01
         -3   -1    0    0    0  501 -0.00000000000E+00  0.00000000000E+00  0.10677649640E+04  0.10677649688E+04  0.10100000000E+00 0.  1.
          3   -1    0    0  501    0  0.00000000000E+00 -0.00000000000E+00 -0.68734666419E+03  0.68734667161E+03  0.10100000000E+00 0. -1.
     200001    2    1    2    0    0 -0.16927996710E+02 -0.49108198147E+03  0.23392499196E+03  0.88740871953E+03  0.70094597797E+03 0.  0.
    5000001    2    3    3    0    0  0.54867081685E+02 -0.19752841518E+03  0.58254236723E+02  0.27733622891E+03  0.17746536652E+03 0.  0.
        -13    1    4    4    0    0  0.37840861006E+02  0.25261365740E+02  0.57635699375E+01  0.45861718930E+02  0.10566000000E+00 0. -1.
     200003    1    4    4    0    0  0.17026220679E+02 -0.22278978092E+03  0.52490666785E+02  0.23147450998E+03  0.30000000000E+02 0. -1.
     200000    1    3    3    0    0 -0.71795078395E+02 -0.29355356629E+03  0.17567075524E+03  0.61007249062E+03  0.50000000000E+03 0.  1.
    -200001    1    1    2    0    0  0.16927996710E+02  0.49108198147E+03  0.14649330784E+03  0.86770292084E+03  0.70000000000E+03 0.  1.
<mgrwt>
<rscale>  0 0.17133881E+04</rscale>
<asrwt>0</asrwt>
<pdfrwt beam="1">  1        3 0.98192382E-01 0.17133881E+04</pdfrwt>
<pdfrwt beam="2">  1       -3 0.15253785E+00 0.17133881E+04</pdfrwt>
<totfact> 0.70569172E-01</totfact>
</mgrwt>
</event>
<event>
 8    1  0.1714417E-029  0.1571602E+04  0.7818608E-02  0.8838186E-01
          3   -1    0    0  501    0  0.00000000000E+00  0.00000000000E+00  0.11500090520E+04  0.11500090565E+04  0.10100000000E+00 0.  1.
         -3   -1    0    0    0  501 -0.00000000000E+00 -0.00000000000E+00 -0.53693787757E+03  0.53693788707E+03  0.10100000000E+00 0. -1.
     200001    2    1    2    0    0  0.34901603783E+03  0.34186317094E+02  0.23112084319E+03  0.81581724339E+03  0.69939976516E+03 0.  0.
    5000001    2    3    3    0    0  0.74484526704E+02  0.27794926364E+02  0.90411645077E+01  0.20366711134E+03  0.18729134240E+03 0.  0.
        -13    1    4    4    0    0 -0.43148689606E+02  0.52176837441E+02 -0.29686689252E+02  0.73929307198E+02  0.10566000000E+00 0. -1.
     200003    1    4    4    0    0  0.11763321631E+03 -0.24381911077E+02  0.38727853760E+02  0.12973780414E+03  0.30000000000E+02 0. -1.
     200000    1    3    3    0    0  0.27453151113E+03  0.63913907304E+01  0.22207967868E+03  0.61215013204E+03  0.50000000000E+03 0.  1.
    -200001    1    1    2    0    0 -0.34901603783E+03 -0.34186317094E+02  0.38195033127E+03  0.87112970016E+03  0.70000000000E+03 0.  1.
<mgrwt>
<rscale>  0 0.15716023E+04</rscale>
<asrwt>0</asrwt>
<pdfrwt beam="1">  1        3 0.16428701E+00 0.15716023E+04</pdfrwt>
<pdfrwt beam="2">  1       -3 0.76705413E-01 0.15716023E+04</pdfrwt>
<totfact> 0.10290784E+00</totfact>
</mgrwt>
</event>
<event>
 8    1  0.1714417E-029  0.1815189E+04  0.7818608E-02  0.8698263E-01
          3   -1    0    0  501    0  0.00000000000E+00  0.00000000000E+00  0.12663287568E+04  0.12663287608E+04  0.10100000000E+00 0.  1.
         -3   -1    0    0    0  501 -0.00000000000E+00 -0.00000000000E+00 -0.65048509401E+03  0.65048510185E+03  0.10100000000E+00 0. -1.
     200001    2    1    2    0    0 -0.54671718864E+03  0.17512088450E+03  0.23604803895E+03  0.93507473010E+03  0.69934188037E+03 0.  0.
    5000001    2    3    3    0    0 -0.19087131424E+03  0.30758917306E+02  0.12623385629E+03  0.29513268694E+03  0.18382150807E+03 0.  0.
        -13    1    4    4    0    0 -0.17115829425E+03 -0.17059950035E+02  0.15245270886E+03  0.22984351891E+03  0.10566000000E+00 0. -1.
     200003    1    4    4    0    0 -0.19713019994E+02  0.47818867341E+02 -0.26218852567E+02  0.65289168022E+02  0.30000000000E+02 0. -1.
     200000    1    3    3    0    0 -0.35584587440E+03  0.14436196719E+03  0.10981418266E+03  0.63994204316E+03  0.50000000000E+03 0. -1.
    -200001    1    1    2    0    0  0.54671718864E+03 -0.17512088450E+03  0.37979562382E+03  0.98173913257E+03  0.70000000000E+03 0.  1.
<mgrwt>
<rscale>  0 0.18151892E+04</rscale>
<asrwt>0</asrwt>
<pdfrwt beam="1">  1        3 0.18090411E+00 0.18151892E+04</pdfrwt>
<pdfrwt beam="2">  1       -3 0.92926444E-01 0.18151892E+04</pdfrwt>
<totfact> 0.50382459E-01</totfact>
</mgrwt>
</event>
<event>
 8    1  0.1714417E-029  0.1526502E+04  0.7818608E-02  0.8867019E-01
         -3   -1    0    0    0  501 -0.00000000000E+00  0.00000000000E+00  0.17176389541E+04  0.17176389571E+04  0.10100000000E+00 0. -1.
          3   -1    0    0  501    0  0.00000000000E+00 -0.00000000000E+00 -0.33915841249E+03  0.33915842753E+03  0.10100000000E+00 0.  1.
     200001    2    1    2    0    0 -0.12602117620E+03  0.15747396336E+02  0.10616673169E+04  0.12780163263E+04  0.70004208537E+03 0.  0.
    5000001    2    3    3    0    0 -0.11738802832E+03  0.78924022523E+02  0.26491457905E+03  0.33521160499E+03  0.14892325340E+03 0.  0.
        -13    1    4    4    0    0  0.61937565912E+01  0.77158771243E+02  0.11486264573E+03  0.13851092790E+03  0.10566000000E+00 0. -1.
     200003    1    4    4    0    0 -0.12358178491E+03  0.17652512794E+01  0.15005193333E+03  0.19670067709E+03  0.30000000000E+02 0. -1.
     200000    1    3    3    0    0 -0.86331478777E+01 -0.63176626187E+02  0.79675273784E+03  0.94280472135E+03  0.50000000000E+03 0. -1.
    -200001    1    1    2    0    0  0.12602117620E+03 -0.15747396336E+02  0.31681322472E+03  0.77878105826E+03  0.70000000000E+03 0.  1.
<mgrwt>
<rscale>  0 0.15265015E+04</rscale>
<asrwt>0</asrwt>
<pdfrwt beam="1">  1        3 0.48451202E-01 0.15265015E+04</pdfrwt>
<pdfrwt beam="2">  1       -3 0.24537700E+00 0.15265015E+04</pdfrwt>
<totfact> 0.83681263E-01</totfact>
</mgrwt>
</event>
<event>
 8    1  0.1714417E-029  0.1519180E+04  0.7818608E-02  0.8871797E-01
          3   -1    0    0  501    0  0.00000000000E+00  0.00000000000E+00  0.11969711650E+04  0.11969711692E+04  0.10100000000E+00 0. -1.
         -3   -1    0    0    0  501 -0.00000000000E+00 -0.00000000000E+00 -0.48203099597E+03  0.48203100655E+03  0.10100000000E+00 0.  1.
     200001    2    1    2    0    0  0.22538940353E+03  0.20212904615E+02  0.56713848596E+03  0.92863274529E+03  0.69964545923E+03 0.  0.
    5000001    2    3    3    0    0  0.78528817983E+02 -0.19689634356E+01  0.18335326842E+03  0.28105945981E+03  0.19800340108E+03 0.  0.
        -13    1    4    4    0    0  0.12275098806E+03  0.46889467296E+02  0.15524083542E+03  0.20338671383E+03  0.10566000000E+00 0. -1.
     200003    1    4    4    0    0 -0.44222170079E+02 -0.48858430732E+02  0.28112432994E+02  0.77672745985E+02  0.30000000000E+02 0. -1.
     200000    1    3    3    0    0  0.14686058554E+03  0.22181868051E+02  0.38378521755E+03  0.64757328548E+03  0.50000000000E+03 0. -1.
    -200001    1    1    2    0    0 -0.22538940353E+03 -0.20212904615E+02  0.14780168305E+03  0.75036943051E+03  0.70000000000E+03 0. -1.
<mgrwt>
<rscale>  0 0.15191803E+04</rscale>
<asrwt>0</asrwt>
<pdfrwt beam="1">  1        3 0.17099588E+00 0.15191803E+04</pdfrwt>
<pdfrwt beam="2">  1       -3 0.68861571E-01 0.15191803E+04</pdfrwt>
<totfact> 0.11747117E+00</totfact>
</mgrwt>
</event>
<event>
 8    1  0.1714417E-029  0.1503274E+04  0.7818608E-02  0.8882279E-01
         -3   -1    0    0    0  501 -0.00000000000E+00  0.00000000000E+00  0.46166434184E+03  0.46166435289E+03  0.10100000000E+00 0. -1.
          3   -1    0    0  501    0  0.00000000000E+00 -0.00000000000E+00 -0.12237424454E+04  0.12237424496E+04  0.10100000000E+00 0.  1.
     200001    2    1    2    0    0 -0.26036443726E+03  0.32066822602E+02 -0.29172059493E+03  0.80220008419E+03  0.69971862078E+03 0.  0.
    5000001    2    3    3    0    0 -0.79032219497E+02  0.14550810589E+02 -0.59668132728E+02  0.22165161155E+03  0.19776585406E+03 0.  0.
        -13    1    4    4    0    0 -0.36950053104E+02 -0.67349474673E+02  0.36606833096E+02  0.85096002001E+02  0.10566000000E+00 0. -1.
     200003    1    4    4    0    0 -0.42082166393E+02  0.81900285262E+02 -0.96274965824E+02  0.13655560955E+03  0.30000000000E+02 0. -1.
     200000    1    3    3    0    0 -0.18133221776E+03  0.17516012012E+02 -0.23205246221E+03  0.58054847264E+03  0.50000000000E+03 0.  1.
    -200001    1    1    2    0    0  0.26036443726E+03 -0.32066822602E+02 -0.47035750865E+03  0.88320671829E+03  0.70000000000E+03 0.  1.
<mgrwt>
<rscale>  0 0.15032741E+04</rscale>
<asrwt>0</asrwt>
<pdfrwt beam="1">  1        3 0.17482035E+00 0.15032741E+04</pdfrwt>
<pdfrwt beam="2">  1       -3 0.65952050E-01 0.15032741E+04</pdfrwt>
<totfact> 0.12154517E+00</totfact>
</mgrwt>
</event>
<event>
 8    1  0.1714417E-029  0.1835213E+04  0.7818608E-02  0.8687795E-01
          3   -1    0    0  501    0  0.00000000000E+00  0.00000000000E+00  0.45513185008E+03  0.45513186129E+03  0.10100000000E+00 0.  1.
         -3   -1    0    0    0  501 -0.00000000000E+00 -0.00000000000E+00 -0.18500161291E+04  0.18500161319E+04  0.10100000000E+00 0. -1.
     200001    2    1    2    0    0  0.32563212998E+03 -0.36480348919E+03 -0.27411767910E+03  0.89616408930E+03  0.69917930688E+03 0.  0.
    5000001    2    3    3    0    0  0.10070317622E+03 -0.23102350135E+03 -0.13562184895E+03  0.31506924820E+03  0.13176629833E+03 0.  0.
        -13    1    4    4    0    0  0.73796429639E+02 -0.20025363089E+03 -0.15174323553E+03  0.26186532876E+03  0.10566000000E+00 0. -1.
     200003    1    4    4    0    0  0.26906746579E+02 -0.30769870450E+02  0.16121386578E+02  0.53203919444E+02  0.30000000000E+02 0. -1.
     200000    1    3    3    0    0  0.22492895376E+03 -0.13377998784E+03 -0.13849583015E+03  0.58109484110E+03  0.50000000000E+03 0.  1.
    -200001    1    1    2    0    0 -0.32563212998E+03  0.36480348919E+03 -0.11207666000E+04  0.14089839039E+04  0.70000000000E+03 0.  1.
<mgrwt>
<rscale>  0 0.18352126E+04</rscale>
<asrwt>0</asrwt>
<pdfrwt beam="1">  1        3 0.65018838E-01 0.18352126E+04</pdfrwt>
<pdfrwt beam="2">  1       -3 0.26428802E+00 0.18352126E+04</pdfrwt>
<totfact> 0.34343611E-01</totfact>
</mgrwt>
</event>
<event>
 8    1  0.1714417E-029  0.1928940E+04  0.7818608E-02  0.8640584E-01
          3   -1    0    0  501    0  0.00000000000E+00  0.00000000000E+00  0.60453304368E+03  0.60453305211E+03  0.10100000000E+00 0.  1.
         -3   -1    0    0    0  501 -0.00000000000E+00 -0.00000000000E+00 -0.15387114324E+04  0.15387114357E+04  0.10100000000E+00 0. -1.
     200001    2    1    2    0    0  0.52249660548E+03  0.19117305714E+03 -0.58224220157E+02  0.89150747635E+03  0.69415104988E+03 0.  0.
    5000001    2    3    3    0    0  0.19811791297E+03  0.18566368504E+03 -0.43788607154E+02  0.29530258182E+03  0.10753818544E+03 0.  0.
        -13    1    4    4    0    0  0.80495533715E+02  0.21159666667E+02  0.10197428357E+02  0.83852615646E+02  0.10566000000E+00 0. -1.
     200003    1    4    4    0    0  0.11762237925E+03  0.16450401838E+03 -0.53986035512E+02  0.21144996617E+03  0.30000000000E+02 0. -1.
     200000    1    3    3    0    0  0.32437869252E+03  0.55093720922E+01 -0.14435613003E+02  0.59620489453E+03  0.50000000000E+03 0.  1.
    -200001    1    1    2    0    0 -0.52249660548E+03 -0.19117305714E+03 -0.87595416859E+03  0.12517370115E+04  0.70000000000E+03 0. -1.
<mgrwt>
<rscale>  0 0.19289395E+04</rscale>
<asrwt>0</asrwt>
<pdfrwt beam="1">  1        3 0.86361865E-01 0.19289395E+04</pdfrwt>
<pdfrwt beam="2">  1       -3 0.21981592E+00 0.19289395E+04</pdfrwt>
<totfact> 0.33268174E-01</totfact>
</mgrwt>
</event>
<event>
 8    1  0.1714417E-029  0.1909609E+04  0.7818608E-02  0.8650088E-01
          3   -1    0    0  501    0  0.00000000000E+00  0.00000000000E+00  0.68922685918E+03  0.68922686658E+03  0.10100000000E+00 0.  1.
         -3   -1    0    0    0  501 -0.00000000000E+00 -0.00000000000E+00 -0.13227163594E+04  0.13227163632E+04  0.10100000000E+00 0. -1.
     200001    2    1    2    0    0  0.12338393113E+03 -0.44628815523E+03 -0.79702418678E+03  0.11568758023E+04  0.69908322508E+03 0.  0.
    5000001    2    3    3    0    0  0.90637228824E+02 -0.18026523181E+03 -0.84587804335E+02  0.24615842496E+03  0.11281937992E+03 0.  0.
        -13    1    4    4    0    0  0.10100320336E+03 -0.10585576789E+03 -0.75814934059E+02  0.16478776069E+03  0.10566000000E+00 0. -1.
     200003    1    4    4    0    0 -0.10365974537E+02 -0.74409463924E+02 -0.87728702756E+01  0.81370664262E+02  0.30000000000E+02 0. -1.
     200000    1    3    3    0    0  0.32746702303E+02 -0.26602292342E+03 -0.71243638245E+03  0.91071737731E+03  0.50000000000E+03 0. -1.
    -200001    1    1    2    0    0 -0.12338393113E+03  0.44628815523E+03  0.16353468658E+03  0.85506742756E+03  0.70000000000E+03 0.  1.
<mgrwt>
<rscale>  0 0.19096090E+04</rscale>
<asrwt>0</asrwt>
<pdfrwt beam="1">  1        3 0.98460981E-01 0.19096090E+04</pdfrwt>
<pdfrwt beam="2">  1       -3 0.18895948E+00 0.19096090E+04</pdfrwt>
<totfact> 0.38544685E-01</totfact>
</mgrwt>
</event>
<event>
 8    1  0.1714417E-029  0.1410519E+04  0.7818608E-02  0.8946239E-01
         -3   -1    0    0    0  501 -0.00000000000E+00  0.00000000000E+00  0.25764260507E+04  0.25764260527E+04  0.10100000000E+00 0. -1.
          3   -1    0    0  501    0  0.00000000000E+00 -0.00000000000E+00 -0.19305469568E+03  0.19305472210E+03  0.10100000000E+00 0.  1.
     200001    2    1    2    0    0 -0.39160789299E+02 -0.70915954035E+01  0.13674345035E+04  0.15350936619E+04  0.69645643893E+03 0.  0.
    5000001    2    3    3    0    0 -0.32333160270E+02  0.51705088172E+02  0.33115136719E+03  0.38297109676E+03  0.18244665952E+03 0.  0.
        -13    1    4    4    0    0  0.23653157204E+02  0.99428230309E+02  0.24665063016E+03  0.26698687112E+03  0.10566000000E+00 0. -1.
     200003    1    4    4    0    0 -0.55986317474E+02 -0.47723142137E+02  0.84500737027E+02  0.11598422564E+03  0.30000000000E+02 0. -1.
     200000    1    3    3    0    0 -0.68276290294E+01 -0.58796683576E+02  0.10362831363E+04  0.11521225651E+04  0.50000000000E+03 0. -1.
    -200001    1    1    2    0    0  0.39160789299E+02  0.70915954035E+01  0.10159368515E+04  0.12343871129E+04  0.70000000000E+03 0.  1.
<mgrwt>
<rscale>  0 0.14105193E+04</rscale>
<asrwt>0</asrwt>
<pdfrwt beam="1">  1        3 0.27579245E-01 0.14105193E+04</pdfrwt>
<pdfrwt beam="2">  1       -3 0.36806086E+00 0.14105193E+04</pdfrwt>
<totfact> 0.52275010E-01</totfact>
</mgrwt>
</event>
<event>
 8    1  0.1714417E-029  0.1421106E+04  0.7818608E-02  0.8938681E-01
          3   -1    0    0  501    0  0.00000000000E+00  0.00000000000E+00  0.56760088027E+03  0.56760088926E+03  0.10100000000E+00 0.  1.
         -3   -1    0    0    0  501 -0.00000000000E+00 -0.00000000000E+00 -0.88950796840E+03  0.88950797413E+03  0.10100000000E+00 0. -1.
     200001    2    1    2    0    0  0.11196409346E+03  0.33118156332E+02 -0.21561010533E+03  0.73952136416E+03  0.69769001715E+03 0.  0.
    5000001    2    3    3    0    0  0.34290226570E+02  0.66808628767E+02 -0.64204694032E+02  0.21028429432E+03  0.18562874019E+03 0.  0.
        -13    1    4    4    0    0 -0.36915377259E+02  0.64245691315E+02  0.37087766927E+02  0.82859927289E+02  0.10566000000E+00 0. -1.
     200003    1    4    4    0    0  0.71205603829E+02  0.25629374522E+01 -0.10129246096E+03  0.12742436703E+03  0.30000000000E+02 0. -1.
     200000    1    3    3    0    0  0.77673866887E+02 -0.33690472435E+02 -0.15140541130E+03  0.52923706985E+03  0.50000000000E+03 0.  1.
    -200001    1    1    2    0    0 -0.11196409346E+03 -0.33118156332E+02 -0.10629698279E+03  0.71758749923E+03  0.70000000000E+03 0.  1.
<mgrwt>
<rscale>  0 0.14211059E+04</rscale>
<asrwt>0</asrwt>
<pdfrwt beam="1">  1        3 0.81085842E-01 0.14211059E+04</pdfrwt>
<pdfrwt beam="2">  1       -3 0.12707257E+00 0.14211059E+04</pdfrwt>
<totfact> 0.17747154E+00</totfact>
</mgrwt>
</event>
<event>
 8    1  0.1714417E-029  0.1760978E+04  0.7818608E-02  0.8727331E-01
         -3   -1    0    0    0  501 -0.00000000000E+00  0.00000000000E+00  0.12128565442E+04  0.12128565484E+04  0.10100000000E+00 0. -1.
          3   -1    0    0  501    0  0.00000000000E+00 -0.00000000000E+00 -0.63920248302E+03  0.63920249100E+03  0.10100000000E+00 0.  1.
     200001    2    1    2    0    0 -0.47796198382E+03 -0.23773284171E+03  0.27445323137E+03  0.92228180878E+03  0.70022467580E+03 0.  0.
    5000001    2    3    3    0    0 -0.14851486491E+03 -0.12726914865E+03 -0.71184968382E+01  0.25144630751E+03  0.15786219074E+03 0.  0.
        -13    1    4    4    0    0 -0.70821824492E+02  0.26633396935E+02  0.63904989925E+01  0.75933644046E+02  0.10566000000E+00 0. -1.
     200003    1    4    4    0    0 -0.77693040416E+02 -0.15390254559E+03 -0.13508995831E+02  0.17551266346E+03  0.30000000000E+02 0. -1.
     200000    1    3    3    0    0 -0.32944711891E+03 -0.11046369306E+03  0.28157172820E+03  0.67083550127E+03  0.50000000000E+03 0. -1.
    -200001    1    1    2    0    0  0.47796198382E+03  0.23773284171E+03  0.29920082980E+03  0.92977723061E+03  0.70000000000E+03 0. -1.
<mgrwt>
<rscale>  0 0.17609781E+04</rscale>
<asrwt>0</asrwt>
<pdfrwt beam="1">  1        3 0.91314642E-01 0.17609781E+04</pdfrwt>
<pdfrwt beam="2">  1       -3 0.17326522E+00 0.17609781E+04</pdfrwt>
<totfact> 0.59117504E-01</totfact>
</mgrwt>
</event>
<event>
 8    1  0.1714417E-029  0.1918985E+04  0.7818608E-02  0.8645464E-01
          3   -1    0    0  501    0  0.00000000000E+00  0.00000000000E+00  0.51154159964E+03  0.51154160961E+03  0.10100000000E+00 0. -1.
         -3   -1    0    0    0  501 -0.00000000000E+00 -0.00000000000E+00 -0.17997080210E+04  0.17997080238E+04  0.10100000000E+00 0.  1.
     200001    2    1    2    0    0 -0.13070612578E+03 -0.50587612231E+03 -0.11228086925E+04  0.14222401167E+04  0.69933743429E+03 0.  0.
    5000001    2    3    3    0    0 -0.63722966165E+02 -0.59736940662E+02 -0.29196210138E+03  0.35273884453E+03  0.17763362661E+03 0.  0.
        -13    1    4    4    0    0 -0.87218707662E+02 -0.10633176041E+03 -0.19516560081E+03  0.23875336467E+03  0.10566000000E+00 0. -1.
     200003    1    4    4    0    0  0.23495741497E+02  0.46594819751E+02 -0.96796500573E+02  0.11398547986E+03  0.30000000000E+02 0. -1.
     200000    1    3    3    0    0 -0.66983159610E+02 -0.44613918165E+03 -0.83084659113E+03  0.10695012721E+04  0.50000000000E+03 0. -1.
    -200001    1    1    2    0    0  0.13070612578E+03  0.50587612231E+03 -0.16535772883E+03  0.88900951678E+03  0.70000000000E+03 0. -1.
<mgrwt>
<rscale>  0 0.19189847E+04</rscale>
<asrwt>0</asrwt>
<pdfrwt beam="1">  1        3 0.73077373E-01 0.19189847E+04</pdfrwt>
<pdfrwt beam="2">  1       -3 0.25710114E+00 0.19189847E+04</pdfrwt>
<totfact> 0.29111947E-01</totfact>
</mgrwt>
</event>
<event>
 8    1  0.1714417E-029  0.1642427E+04  0.7818608E-02  0.8794899E-01
         -3   -1    0    0    0  501 -0.00000000000E+00  0.00000000000E+00  0.87495576267E+03  0.87495576850E+03  0.10100000000E+00 0.  1.
          3   -1    0    0  501    0  0.00000000000E+00 -0.00000000000E+00 -0.77077180370E+03  0.77077181031E+03  0.10100000000E+00 0. -1.
     200001    2    1    2    0    0  0.17401501365E+03 -0.37627615728E+03 -0.61443925190E+02  0.81548811485E+03  0.69955738721E+03 0.  0.
    5000001    2    3    3    0    0 -0.11879919216E+00  0.73973609533E+02 -0.49572878143E+01  0.11818030799E+03  0.92032067643E+02 0.  0.
        -13    1    4    4    0    0 -0.37858679616E+02  0.52810574321E+02  0.23667981353E+01  0.65021913843E+02  0.10566000000E+00 0. -1.
     200003    1    4    4    0    0  0.37739880423E+02  0.21163035212E+02 -0.73240859496E+01  0.53158394151E+02  0.30000000000E+02 0. -1.
     200000    1    3    3    0    0  0.17413381284E+03 -0.45024976682E+03 -0.56486637375E+02  0.69730780685E+03  0.50000000000E+03 0. -1.
    -200001    1    1    2    0    0 -0.17401501365E+03  0.37627615728E+03  0.16562788416E+03  0.83023946397E+03  0.70000000000E+03 0.  1.
<mgrwt>
<rscale>  0 0.16424265E+04</rscale>
<asrwt>0</asrwt>
<pdfrwt beam="1">  1        3 0.11011026E+00 0.16424265E+04</pdfrwt>
<pdfrwt beam="2">  1       -3 0.12499368E+00 0.16424265E+04</pdfrwt>
<totfact> 0.89736576E-01</totfact>
</mgrwt>
</event>
<event>
 8    1  0.1714417E-029  0.1962010E+04  0.7818608E-02  0.8624591E-01
          3   -1    0    0  501    0  0.00000000000E+00  0.00000000000E+00  0.51695425015E+03  0.51695426002E+03  0.10100000000E+00 0. -1.
         -3   -1    0    0    0  501 -0.00000000000E+00 -0.00000000000E+00 -0.18616177237E+04  0.18616177265E+04  0.10100000000E+00 0.  1.
     200001    2    1    2    0    0 -0.12817036903E+03 -0.67381146383E+03 -0.67221819945E+03  0.11900299473E+04  0.70274066016E+03 0.  0.
    5000001    2    3    3    0    0 -0.45174641178E+02 -0.16323718987E+03 -0.18532496266E+03  0.32133011182E+03  0.20055066846E+03 0.  0.
        -13    1    4    4    0    0 -0.11939891606E+03 -0.11937681054E+03 -0.14040332851E+03  0.21959059605E+03  0.10566000000E+00 0. -1.
     200003    1    4    4    0    0  0.74224274880E+02 -0.43860379326E+02 -0.44921634148E+02  0.10173951578E+03  0.30000000000E+02 0. -1.
     200000    1    3    3    0    0 -0.82995727853E+02 -0.51057427397E+03 -0.48689323679E+03  0.86869983545E+03  0.50000000000E+03 0.  1.
    -200001    1    1    2    0    0  0.12817036903E+03  0.67381146383E+03 -0.67244527412E+03  0.11885420392E+04  0.70000000000E+03 0. -1.
<mgrwt>
<rscale>  0 0.19620104E+04</rscale>
<asrwt>0</asrwt>
<pdfrwt beam="1">  1        3 0.73850609E-01 0.19620104E+04</pdfrwt>
<pdfrwt beam="2">  1       -3 0.26594539E+00 0.19620104E+04</pdfrwt>
<totfact> 0.25223324E-01</totfact>
</mgrwt>
</event>
<event>
 8    1  0.1714417E-029  0.1432070E+04  0.7818608E-02  0.8930927E-01
         -3   -1    0    0    0  501 -0.00000000000E+00  0.00000000000E+00  0.27400287100E+03  0.27400288961E+03  0.10100000000E+00 0.  1.
          3   -1    0    0  501    0  0.00000000000E+00 -0.00000000000E+00 -0.18711697346E+04  0.18711697373E+04  0.10100000000E+00 0. -1.
     200001    2    1    2    0    0 -0.91977603629E+02  0.54986648859E+02 -0.63459375899E+03  0.95017037052E+03  0.69902151822E+03 0.  0.
    5000001    2    3    3    0    0  0.75569238672E+02  0.12511260164E+03 -0.14052813944E+03  0.22416043254E+03  0.95581737899E+02 0.  0.
        -13    1    4    4    0    0  0.44966755430E+02  0.51046606337E+01 -0.22812710986E+02  0.50680347282E+02  0.10566000000E+00 0. -1.
     200003    1    4    4    0    0  0.30602483242E+02  0.12000794100E+03 -0.11771542846E+03  0.17348008526E+03  0.30000000000E+02 0. -1.
     200000    1    3    3    0    0 -0.16754684230E+03 -0.70125952780E+02 -0.49406561955E+03  0.72600993797E+03  0.50000000000E+03 0.  1.
    -200001    1    1    2    0    0  0.91977603629E+02 -0.54986648859E+02 -0.96257310458E+03  0.11950022564E+04  0.70000000000E+03 0. -1.
<mgrwt>
<rscale>  0 0.14320697E+04</rscale>
<asrwt>0</asrwt>
<pdfrwt beam="1">  1        3 0.26730996E+00 0.14320697E+04</pdfrwt>
<pdfrwt beam="2">  1       -3 0.39143270E-01 0.14320697E+04</pdfrwt>
<totfact> 0.97970780E-01</totfact>
</mgrwt>
</event>
<event>
 8    1  0.1714417E-029  0.1688563E+04  0.7818608E-02  0.8767914E-01
         -3   -1    0    0    0  501 -0.00000000000E+00  0.00000000000E+00  0.41604360857E+03  0.41604362083E+03  0.10100000000E+00 0.  1.
          3   -1    0    0  501    0  0.00000000000E+00 -0.00000000000E+00 -0.17133088575E+04  0.17133088605E+04  0.10100000000E+00 0. -1.
     200001    2    1    2    0    0 -0.12963172971E+03  0.15451482835E+03 -0.11048028701E+03  0.73682321289E+03  0.70001666817E+03 0.  0.
    5000001    2    3    3    0    0 -0.18420241852E+02  0.53976279689E+02 -0.52422018753E+02  0.21161205792E+03  0.19692346464E+03 0.  0.
        -13    1    4    4    0    0 -0.36345434895E+02  0.73801381631E+02 -0.11247996544E+03  0.13935346554E+03  0.10566000000E+00 0. -1.
     200003    1    4    4    0    0  0.17925193043E+02 -0.19825101942E+02  0.60057946685E+02  0.72258592380E+02  0.30000000000E+02 0. -1.
     200000    1    3    3    0    0 -0.11121148786E+03  0.10053854866E+03 -0.58058268255E+02  0.52521115498E+03  0.50000000000E+03 0.  1.
    -200001    1    1    2    0    0  0.12963172971E+03 -0.15451482835E+03 -0.11867849619E+04  0.13925292684E+04  0.70000000000E+03 0. -1.
<mgrwt>
<rscale>  0 0.16885630E+04</rscale>
<asrwt>0</asrwt>
<pdfrwt beam="1">  1        3 0.24475841E+00 0.16885630E+04</pdfrwt>
<pdfrwt beam="2">  1       -3 0.59434803E-01 0.16885630E+04</pdfrwt>
<totfact> 0.55076106E-01</totfact>
</mgrwt>
</event>
<event>
 8    1  0.1714417E-029  0.1927643E+04  0.7818608E-02  0.8641218E-01
          3   -1    0    0  501    0  0.00000000000E+00  0.00000000000E+00  0.49738416346E+03  0.49738417371E+03  0.10100000000E+00 0.  1.
         -3   -1    0    0    0  501 -0.00000000000E+00 -0.00000000000E+00 -0.18676740013E+04  0.18676740041E+04  0.10100000000E+00 0. -1.
     200001    2    1    2    0    0 -0.59415008024E+02 -0.65469655533E+03 -0.78541985945E+03  0.12406780755E+04  0.70017141378E+03 0.  0.
    5000001    2    3    3    0    0 -0.41231338755E+02 -0.61979586286E+02 -0.24252750983E+03  0.29390663820E+03  0.14839146384E+03 0.  0.
        -13    1    4    4    0    0  0.10178047850E+02 -0.91217548902E+02 -0.94670241655E+02  0.13185863531E+03  0.10566000000E+00 0. -1.
     200003    1    4    4    0    0 -0.51409386604E+02  0.29237962615E+02 -0.14785726818E+03  0.16204800289E+03  0.30000000000E+02 0. -1.
     200000    1    3    3    0    0 -0.18183669269E+02 -0.59271696904E+03 -0.54289234962E+03  0.94677143730E+03  0.50000000000E+03 0. -1.
    -200001    1    1    2    0    0  0.59415008024E+02  0.65469655533E+03 -0.58486997843E+03  0.11243801023E+04  0.70000000000E+03 0.  1.
<mgrwt>
<rscale>  0 0.19276426E+04</rscale>
<asrwt>0</asrwt>
<pdfrwt beam="1">  1        3 0.71054882E-01 0.19276426E+04</pdfrwt>
<pdfrwt beam="2">  1       -3 0.26681057E+00 0.19276426E+04</pdfrwt>
<totfact> 0.27212347E-01</totfact>
</mgrwt>
</event>
<event>
 8    1  0.1714417E-029  0.2117948E+04  0.7818608E-02  0.8553378E-01
          3   -1    0    0  501    0  0.00000000000E+00  0.00000000000E+00  0.15895523467E+04  0.15895523499E+04  0.10100000000E+00 0.  1.
         -3   -1    0    0    0  501 -0.00000000000E+00 -0.00000000000E+00 -0.70549767420E+03  0.70549768143E+03  0.10100000000E+00 0. -1.
     200001    2    1    2    0    0 -0.79633076207E+03  0.28140301433E+02  0.42350584342E+03  0.11387456669E+04  0.69458616117E+03 0.  0.
    5000001    2    3    3    0    0 -0.22201468122E+03  0.29924440223E+02  0.96165191637E+02  0.30989462710E+03  0.19131373454E+03 0.  0.
        -13    1    4    4    0    0 -0.43140279925E+01  0.42228324680E+02  0.78303346175E+02  0.89068891478E+02  0.10566000000E+00 0. -1.
     200003    1    4    4    0    0 -0.21770065323E+03 -0.12303884458E+02  0.17861845461E+02  0.22082573562E+03  0.30000000000E+02 0. -1.
     200000    1    3    3    0    0 -0.57431608085E+03 -0.17841387892E+01  0.32734065178E+03  0.82885103980E+03  0.50000000000E+03 0.  1.
    -200001    1    1    2    0    0  0.79633076207E+03 -0.28140301433E+02  0.46054882906E+03  0.11563043644E+04  0.70000000000E+03 0. -1.
<mgrwt>
<rscale>  0 0.21179476E+04</rscale>
<asrwt>0</asrwt>
<pdfrwt beam="1">  1        3 0.22707890E+00 0.21179476E+04</pdfrwt>
<pdfrwt beam="2">  1       -3 0.10078539E+00 0.21179476E+04</pdfrwt>
<totfact> 0.20902789E-01</totfact>
</mgrwt>
</event>
<event>
 8    1  0.1714417E-029  0.1452101E+04  0.7818608E-02  0.8916945E-01
          3   -1    0    0  501    0  0.00000000000E+00  0.00000000000E+00  0.92094081553E+03  0.92094082107E+03  0.10100000000E+00 0. -1.
         -3   -1    0    0    0  501 -0.00000000000E+00 -0.00000000000E+00 -0.57240326616E+03  0.57240327507E+03  0.10100000000E+00 0.  1.
     200001    2    1    2    0    0 -0.17690645124E+02  0.10899385693E+03  0.50605279318E+02  0.72460730287E+03  0.71435441436E+03 0.  0.
    5000001    2    3    3    0    0  0.98383577728E+02 -0.46192677872E+01  0.76790550542E+01  0.19713803548E+03  0.17059827415E+03 0.  0.
        -13    1    4    4    0    0  0.23181182902E+02  0.59228580652E+02  0.54626552180E+02  0.83841895100E+02  0.10566000000E+00 0. -1.
     200003    1    4    4    0    0  0.75202394826E+02 -0.63847848440E+02 -0.46947497125E+02  0.11329614038E+03  0.30000000000E+02 0. -1.
     200000    1    3    3    0    0 -0.11607422285E+03  0.11361312472E+03  0.42926224264E+02  0.52746926740E+03  0.50000000000E+03 0.  1.
    -200001    1    1    2    0    0  0.17690645124E+02 -0.10899385693E+03  0.29793227006E+03  0.76873679326E+03  0.70000000000E+03 0. -1.
<mgrwt>
<rscale>  0 0.14521013E+04</rscale>
<asrwt>0</asrwt>
<pdfrwt beam="1">  1        3 0.13156297E+00 0.14521013E+04</pdfrwt>
<pdfrwt beam="2">  1       -3 0.81771897E-01 0.14521013E+04</pdfrwt>
<totfact> 0.15969242E+00</totfact>
</mgrwt>
</event>
<event>
 8    1  0.1714417E-029  0.1552901E+04  0.7818608E-02  0.8850017E-01
         -3   -1    0    0    0  501 -0.00000000000E+00  0.00000000000E+00  0.19803037792E+04  0.19803037818E+04  0.10100000000E+00 0. -1.
          3   -1    0    0  501    0  0.00000000000E+00 -0.00000000000E+00 -0.30443568668E+03  0.30443570343E+03  0.10100000000E+00 0.  1.
     200001    2    1    2    0    0  0.31643269077E+03 -0.97403532114E+02  0.76541466182E+03  0.10895229587E+04  0.70113021405E+03 0.  0.
    5000001    2    3    3    0    0  0.75909574482E+02  0.80694578531E+02  0.18376998471E+03  0.26618776756E+03  0.15751394166E+03 0.  0.
        -13    1    4    4    0    0  0.42549002700E+01  0.58283413146E+02 -0.71308896956E+01  0.58872074672E+02  0.10566000000E+00 0. -1.
     200003    1    4    4    0    0  0.71654674212E+02  0.22411165385E+02  0.19090087441E+03  0.20731569289E+03  0.30000000000E+02 0. -1.
     200000    1    3    3    0    0  0.24052311629E+03 -0.17809811065E+03  0.58164467711E+03  0.82333519110E+03  0.50000000000E+03 0.  1.
    -200001    1    1    2    0    0 -0.31643269077E+03  0.97403532114E+02  0.91045343069E+03  0.11952165265E+04  0.70000000000E+03 0. -1.
<mgrwt>
<rscale>  0 0.15529007E+04</rscale>
<asrwt>0</asrwt>
<pdfrwt beam="1">  1        3 0.43490813E-01 0.15529007E+04</pdfrwt>
<pdfrwt beam="2">  1       -3 0.28290055E+00 0.15529007E+04</pdfrwt>
<totfact> 0.63409951E-01</totfact>
</mgrwt>
</event>
<event>
 8    1  0.1714417E-029  0.1440292E+04  0.7818608E-02  0.8925159E-01
          3   -1    0    0  501    0  0.00000000000E+00  0.00000000000E+00  0.13804216605E+04  0.13804216642E+04  0.10100000000E+00 0.  1.
         -3   -1    0    0    0  501 -0.00000000000E+00 -0.00000000000E+00 -0.37568982783E+03  0.37568984140E+03  0.10100000000E+00 0. -1.
     200001    2    1    2    0    0 -0.42313362267E+02 -0.12516740589E+02  0.30340304965E+03  0.76423996587E+03  0.70004444535E+03 0.  0.
    5000001    2    3    3    0    0 -0.37274538005E+02 -0.26361261700E+02  0.19546444991E+03  0.25250976173E+03  0.15320091803E+03 0.  0.
        -13    1    4    4    0    0  0.31364697631E+02 -0.48358218997E+02  0.20950911689E+02  0.61328732799E+02  0.10566000000E+00 0. -1.
     200003    1    4    4    0    0 -0.68639235636E+02  0.21996957298E+02  0.17451353822E+03  0.19118102893E+03  0.30000000000E+02 0. -1.
     200000    1    3    3    0    0 -0.50388242620E+01  0.13844521111E+02  0.10793859974E+03  0.51173020414E+03  0.50000000000E+03 0. -1.
    -200001    1    1    2    0    0  0.42313362267E+02  0.12516740589E+02  0.70132878298E+03  0.99187153970E+03  0.70000000000E+03 0.  1.
<mgrwt>
<rscale>  0 0.14402922E+04</rscale>
<asrwt>0</asrwt>
<pdfrwt beam="1">  1        3 0.19720309E+00 0.14402922E+04</pdfrwt>
<pdfrwt beam="2">  1       -3 0.53669977E-01 0.14402922E+04</pdfrwt>
<totfact> 0.13450271E+00</totfact>
</mgrwt>
</event>
<event>
 8    1  0.1714417E-029  0.2645935E+04  0.7818608E-02  0.8352763E-01
          3   -1    0    0  501    0  0.00000000000E+00  0.00000000000E+00  0.71823134133E+03  0.71823134843E+03  0.10100000000E+00 0.  1.
         -3   -1    0    0    0  501 -0.00000000000E+00 -0.00000000000E+00 -0.24368790585E+04  0.24368790606E+04  0.10100000000E+00 0. -1.
     200001    2    1    2    0    0  0.64229107527E+02  0.10901440529E+04 -0.11688220823E+04  0.17462641920E+04  0.70053845995E+03 0.  0.
    5000001    2    3    3    0    0 -0.35269070655E+02  0.38940122411E+03 -0.37138332236E+03  0.56861867003E+03  0.18034522200E+03 0.  0.
        -13    1    4    4    0    0  0.41291026089E+02  0.26133629412E+02 -0.87827978868E+02  0.10050711645E+03  0.10566000000E+00 0. -1.
     200003    1    4    4    0    0 -0.76560096744E+02  0.36326759470E+03 -0.28355534350E+03  0.46811155358E+03  0.30000000000E+02 0. -1.
     200000    1    3    3    0    0  0.99498178182E+02  0.70074282884E+03 -0.79743875990E+03  0.11776455220E+04  0.50000000000E+03 0. -1.
    -200001    1    1    2    0    0 -0.64229107527E+02 -0.10901440529E+04 -0.54982563491E+03  0.14088462170E+04  0.70000000000E+03 0.  1.
<mgrwt>
<rscale>  0 0.26459349E+04</rscale>
<asrwt>0</asrwt>
<pdfrwt beam="1">  1        3 0.10260448E+00 0.26459349E+04</pdfrwt>
<pdfrwt beam="2">  1       -3 0.34812558E+00 0.26459349E+04</pdfrwt>
<totfact> 0.39063595E-02</totfact>
</mgrwt>
</event>
<event>
 8    1  0.1714417E-029  0.1520113E+04  0.7818608E-02  0.8871187E-01
         -3   -1    0    0    0  501 -0.00000000000E+00  0.00000000000E+00  0.15379647121E+04  0.15379647154E+04  0.10100000000E+00 0. -1.
          3   -1    0    0  501    0  0.00000000000E+00 -0.00000000000E+00 -0.37561724325E+03  0.37561725683E+03  0.10100000000E+00 0.  1.
     200001    2    1    2    0    0 -0.23339562546E+03  0.51601029407E+02  0.36131450259E+03  0.82326550569E+03  0.70005838246E+03 0.  0.
    5000001    2    3    3    0    0  0.19993481411E+02 -0.58171079072E+02  0.15956341293E+03  0.21749371907E+03  0.13438534649E+03 0.  0.
        -13    1    4    4    0    0  0.35686745063E+02 -0.91202947253E+02  0.12556315477E+03  0.15924081876E+03  0.10566000000E+00 0. -1.
     200003    1    4    4    0    0 -0.15693263652E+02  0.33031868181E+02  0.34000258162E+02  0.58252900311E+02  0.30000000000E+02 0. -1.
     200000    1    3    3    0    0 -0.25338910687E+03  0.10977210848E+03  0.20175108966E+03  0.60577178662E+03  0.50000000000E+03 0.  1.
    -200001    1    1    2    0    0  0.23339562546E+03 -0.51601029407E+02  0.80103296624E+03  0.10903164665E+04  0.70000000000E+03 0. -1.
<mgrwt>
<rscale>  0 0.15201133E+04</rscale>
<asrwt>0</asrwt>
<pdfrwt beam="1">  1        3 0.53659607E-01 0.15201133E+04</pdfrwt>
<pdfrwt beam="2">  1       -3 0.21970925E+00 0.15201133E+04</pdfrwt>
<totfact> 0.96370700E-01</totfact>
</mgrwt>
</event>
<event>
 8    1  0.1714417E-029  0.2084599E+04  0.7818608E-02  0.8568058E-01
          3   -1    0    0  501    0  0.00000000000E+00  0.00000000000E+00  0.75945618424E+03  0.75945619096E+03  0.10100000000E+00 0. -1.
         -3   -1    0    0    0  501 -0.00000000000E+00 -0.00000000000E+00 -0.14304823154E+04  0.14304823189E+04  0.10100000000E+00 0.  1.
     200001    2    1    2    0    0  0.63729685076E+03 -0.41526253045E+02 -0.79333383551E+03  0.12345166762E+04  0.69769702857E+03 0.  0.
    5000001    2    3    3    0    0  0.12565297078E+03 -0.90500140279E+02 -0.15037558629E+03  0.27141065311E+03  0.16453565332E+03 0.  0.
        -13    1    4    4    0    0  0.77798401716E+02 -0.70504746604E+02  0.47662690615E+01  0.10510108985E+03  0.10566000000E+00 0. -1.
     200003    1    4    4    0    0  0.47854569061E+02 -0.19995393675E+02 -0.15514185536E+03  0.16630956326E+03  0.30000000000E+02 0. -1.
     200000    1    3    3    0    0  0.51164387999E+03  0.48973887235E+02 -0.64295824922E+03  0.96310602313E+03  0.50000000000E+03 0. -1.
    -200001    1    1    2    0    0 -0.63729685076E+03  0.41526253045E+02  0.12230770437E+03  0.95542183366E+03  0.70000000000E+03 0.  1.
<mgrwt>
<rscale>  0 0.20845994E+04</rscale>
<asrwt>0</asrwt>
<pdfrwt beam="1">  1        3 0.10849374E+00 0.20845994E+04</pdfrwt>
<pdfrwt beam="2">  1       -3 0.20435462E+00 0.20845994E+04</pdfrwt>
<totfact> 0.24091779E-01</totfact>
</mgrwt>
</event>
<event>
 8    1  0.1714417E-029  0.1532404E+04  0.7818608E-02  0.8863186E-01
          3   -1    0    0  501    0  0.00000000000E+00  0.00000000000E+00  0.59363998367E+03  0.59363999226E+03  0.10100000000E+00 0.  1.
         -3   -1    0    0    0  501 -0.00000000000E+00 -0.00000000000E+00 -0.98892541355E+03  0.98892541871E+03  0.10100000000E+00 0. -1.
     200001    2    1    2    0    0 -0.18689899445E+03 -0.17810570124E+03 -0.37764334172E+03  0.83626512408E+03  0.70005141901E+03 0.  0.
    5000001    2    3    3    0    0 -0.14199152031E+02  0.30180455815E+01 -0.77698273635E+02  0.20175894514E+03  0.18563115499E+03 0.  0.
        -13    1    4    4    0    0  0.29438199001E+02 -0.61412079760E+02 -0.94698811160E+02  0.11664444736E+03  0.10566000000E+00 0. -1.
     200003    1    4    4    0    0 -0.43637351032E+02  0.64430125341E+02  0.17000537524E+02  0.85114497782E+02  0.30000000000E+02 0. -1.
     200000    1    3    3    0    0 -0.17269984242E+03 -0.18112374682E+03 -0.29994506809E+03  0.63450617893E+03  0.50000000000E+03 0.  1.
    -200001    1    1    2    0    0  0.18689899445E+03  0.17810570124E+03 -0.17642088159E+02  0.74630028689E+03  0.70000000000E+03 0.  1.
<mgrwt>
<rscale>  0 0.15324042E+04</rscale>
<asrwt>0</asrwt>
<pdfrwt beam="1">  1        3 0.84805713E-01 0.15324042E+04</pdfrwt>
<pdfrwt beam="2">  1       -3 0.14127506E+00 0.15324042E+04</pdfrwt>
<totfact> 0.12199016E+00</totfact>
</mgrwt>
</event>
<event>
 8    1  0.1714417E-029  0.1646348E+04  0.7818608E-02  0.8792570E-01
          3   -1    0    0  501    0  0.00000000000E+00  0.00000000000E+00  0.13020114428E+04  0.13020114467E+04  0.10100000000E+00 0.  1.
         -3   -1    0    0    0  501 -0.00000000000E+00 -0.00000000000E+00 -0.52043727875E+03  0.52043728855E+03  0.10100000000E+00 0. -1.
     200001    2    1    2    0    0 -0.55942018743E+01  0.36558495900E+03  0.64818294490E+03  0.10215262205E+04  0.69977927355E+03 0.  0.
    5000001    2    3    3    0    0  0.48043350898E+00  0.67576756042E+02  0.21524921292E+03  0.29607642447E+03  0.19173465177E+03 0.  0.
        -13    1    4    4    0    0 -0.26413698587E+02 -0.50451943238E+02  0.12916315469E+02  0.58394558127E+02  0.10566000000E+00 0. -1.
     200003    1    4    4    0    0  0.26894132096E+02  0.11802869928E+03  0.20233289745E+03  0.23768186634E+03  0.30000000000E+02 0. -1.
     200000    1    3    3    0    0 -0.60746353833E+01  0.29800820296E+03  0.43293373198E+03  0.72544979600E+03  0.50000000000E+03 0.  1.
    -200001    1    1    2    0    0  0.55942018743E+01 -0.36558495900E+03  0.13339121913E+03  0.80092251478E+03  0.70000000000E+03 0. -1.
<mgrwt>
<rscale>  0 0.16463478E+04</rscale>
<asrwt>0</asrwt>
<pdfrwt beam="1">  1        3 0.18600164E+00 0.16463478E+04</pdfrwt>
<pdfrwt beam="2">  1       -3 0.74348183E-01 0.16463478E+04</pdfrwt>
<totfact> 0.78006653E-01</totfact>
</mgrwt>
</event>
<event>
 8    1  0.1714417E-029  0.1449218E+04  0.7818608E-02  0.8918943E-01
          3   -1    0    0  501    0  0.00000000000E+00  0.00000000000E+00  0.67889019271E+03  0.67889020023E+03  0.10100000000E+00 0.  1.
         -3   -1    0    0    0  501 -0.00000000000E+00 -0.00000000000E+00 -0.77340682643E+03  0.77340683302E+03  0.10100000000E+00 0. -1.
     200001    2    1    2    0    0  0.17302821731E+03  0.76805455024E+02 -0.71037578282E+02  0.72677025362E+03  0.69807651595E+03 0.  0.
    5000001    2    3    3    0    0  0.12250178663E+03 -0.14983812246E+02 -0.14656743683E+03  0.21035670876E+03  0.86814336520E+02 0.  0.
        -13    1    4    4    0    0  0.33983318985E+02 -0.41536075390E+02 -0.55036552816E+02  0.76870962254E+02  0.10566000000E+00 0. -1.
     200003    1    4    4    0    0  0.88518467649E+02  0.26552263144E+02 -0.91530884011E+02  0.13348574651E+03  0.30000000000E+02 0. -1.
     200000    1    3    3    0    0  0.50526430680E+02  0.91789267270E+02  0.75529858545E+02  0.51641354486E+03  0.50000000000E+03 0.  1.
    -200001    1    1    2    0    0 -0.17302821731E+03 -0.76805455024E+02 -0.23479055433E+02  0.72552677962E+03  0.70000000000E+03 0. -1.
<mgrwt>
<rscale>  0 0.14492182E+04</rscale>
<asrwt>0</asrwt>
<pdfrwt beam="1">  1        3 0.96984314E-01 0.14492182E+04</pdfrwt>
<pdfrwt beam="2">  1       -3 0.11048669E+00 0.14492182E+04</pdfrwt>
<totfact> 0.16562484E+00</totfact>
</mgrwt>
</event>
<event>
 8    1  0.1714417E-029  0.1484755E+04  0.7818608E-02  0.8894654E-01
          3   -1    0    0  501    0  0.00000000000E+00  0.00000000000E+00  0.24512945816E+03  0.24512947897E+03  0.10100000000E+00 0.  1.
         -3   -1    0    0    0  501 -0.00000000000E+00 -0.00000000000E+00 -0.22482992040E+04  0.22482992063E+04  0.10100000000E+00 0. -1.
     200001    2    1    2    0    0  0.10338043563E+02  0.15539314753E+01 -0.14155632003E+04  0.15794315615E+04  0.70048240065E+03 0.  0.
    5000001    2    3    3    0    0 -0.69160620498E+02 -0.36278045628E+02 -0.15313931483E+03  0.21874593924E+03  0.13527323521E+03 0.  0.
        -13    1    4    4    0    0 -0.17281374264E+02 -0.79908399443E+02 -0.73371739693E+02  0.10985181631E+03  0.10566000000E+00 0. -1.
     200003    1    4    4    0    0 -0.51879246234E+02  0.43630353814E+02 -0.79767575141E+02  0.10889412293E+03  0.30000000000E+02 0. -1.
     200000    1    3    3    0    0  0.79498664061E+02  0.37831977103E+02 -0.12624238854E+04  0.13606856223E+04  0.50000000000E+03 0. -1.
    -200001    1    1    2    0    0 -0.10338043563E+02 -0.15539314753E+01 -0.58760654560E+03  0.91399712378E+03  0.70000000000E+03 0.  1.
<mgrwt>
<rscale>  0 0.14847551E+04</rscale>
<asrwt>0</asrwt>
<pdfrwt beam="1">  1        3 0.35018497E-01 0.14847551E+04</pdfrwt>
<pdfrwt beam="2">  1       -3 0.32118559E+00 0.14847551E+04</pdfrwt>
<totfact> 0.59776866E-01</totfact>
</mgrwt>
</event>
<event>
 8    1  0.1714417E-029  0.1668194E+04  0.7818608E-02  0.8779715E-01
          3   -1    0    0  501    0  0.00000000000E+00  0.00000000000E+00  0.69463770545E+03  0.69463771279E+03  0.10100000000E+00 0.  1.
         -3   -1    0    0    0  501 -0.00000000000E+00 -0.00000000000E+00 -0.10015548057E+04  0.10015548108E+04  0.10100000000E+00 0. -1.
     200001    2    1    2    0    0  0.21573919952E+03  0.18864904491E+03  0.20374387807E+03  0.78355541108E+03  0.70022542801E+03 0.  0.
    5000001    2    3    3    0    0  0.18265333474E+02 -0.34446619467E+01 -0.43241675663E+02  0.16154433101E+03  0.15453556310E+03 0.  0.
        -13    1    4    4    0    0 -0.32551873315E+02  0.60459324723E+02 -0.19256317690E+02  0.71314594140E+02  0.10566000000E+00 0. -1.
     200003    1    4    4    0    0  0.50817206789E+02 -0.63903986669E+02 -0.23985357973E+02  0.90229736868E+02  0.30000000000E+02 0. -1.
     200000    1    3    3    0    0  0.19747386604E+03  0.19209370686E+03  0.24698555374E+03  0.62201108008E+03  0.50000000000E+03 0.  1.
    -200001    1    1    2    0    0 -0.21573919952E+03 -0.18864904491E+03 -0.51066097836E+03  0.91263711253E+03  0.70000000000E+03 0. -1.
<mgrwt>
<rscale>  0 0.16681939E+04</rscale>
<asrwt>0</asrwt>
<pdfrwt beam="1">  1        3 0.99233959E-01 0.16681939E+04</pdfrwt>
<pdfrwt beam="2">  1       -3 0.14307926E+00 0.16681939E+04</pdfrwt>
<totfact> 0.81545636E-01</totfact>
</mgrwt>
</event>
<event>
 8    1  0.1714417E-029  0.1498839E+04  0.7818608E-02  0.8885225E-01
         -3   -1    0    0    0  501 -0.00000000000E+00  0.00000000000E+00  0.42805783934E+03  0.42805785125E+03  0.10100000000E+00 0. -1.
          3   -1    0    0  501    0  0.00000000000E+00 -0.00000000000E+00 -0.13120417798E+04  0.13120417837E+04  0.10100000000E+00 0.  1.
     200001    2    1    2    0    0 -0.18883262273E+03  0.15099172483E+03 -0.57636788335E+03  0.93817451437E+03  0.69965364437E+03 0.  0.
    5000001    2    3    3    0    0 -0.59349832258E+01  0.13492080202E+03 -0.17616765816E+03  0.27193878931E+03  0.15708855626E+03 0.  0.
        -13    1    4    4    0    0 -0.13204157578E+02 -0.10620986182E+02  0.19691541652E+02  0.25979282159E+02  0.10566000000E+00 0. -1.
     200003    1    4    4    0    0  0.72691743521E+01  0.14554178821E+03 -0.19585919981E+03  0.24595950716E+03  0.30000000000E+02 0. -1.
     200000    1    3    3    0    0 -0.18289763951E+03  0.16070922805E+02 -0.40020022519E+03  0.66623572506E+03  0.50000000000E+03 0.  1.
    -200001    1    1    2    0    0  0.18883262273E+03 -0.15099172483E+03 -0.30761605708E+03  0.80192512054E+03  0.70000000000E+03 0. -1.
<mgrwt>
<rscale>  0 0.14988393E+04</rscale>
<asrwt>0</asrwt>
<pdfrwt beam="1">  1        3 0.18743454E+00 0.14988393E+04</pdfrwt>
<pdfrwt beam="2">  1       -3 0.61151122E-01 0.14988393E+04</pdfrwt>
<totfact> 0.11773453E+00</totfact>
</mgrwt>
</event>
<event>
 8    1  0.1714417E-029  0.1858817E+04  0.7818608E-02  0.8675632E-01
          3   -1    0    0  501    0  0.00000000000E+00  0.00000000000E+00  0.71834828862E+03  0.71834829572E+03  0.10100000000E+00 0.  1.
         -3   -1    0    0    0  501 -0.00000000000E+00 -0.00000000000E+00 -0.12024809246E+04  0.12024809288E+04  0.10100000000E+00 0. -1.
     200001    2    1    2    0    0 -0.37841008283E+03  0.19734535579E+03  0.21052518710E+03  0.84626472142E+03  0.69978835664E+03 0.  0.
    5000001    2    3    3    0    0 -0.14134262998E+03  0.11409412529E+03  0.95832429353E+02  0.27505007415E+03  0.18295759153E+03 0.  0.
        -13    1    4    4    0    0 -0.13391587408E+03  0.15428864332E+02  0.10781059982E+01  0.13480610024E+03  0.10566000000E+00 0. -1.
     200003    1    4    4    0    0 -0.74267559019E+01  0.98665260963E+02  0.94754323355E+02  0.14024397391E+03  0.30000000000E+02 0. -1.
     200000    1    3    3    0    0 -0.23706745285E+03  0.83251230493E+02  0.11469275774E+03  0.57121464727E+03  0.50000000000E+03 0.  1.
    -200001    1    1    2    0    0  0.37841008283E+03 -0.19734535579E+03 -0.69465782307E+03  0.10745645031E+04  0.70000000000E+03 0. -1.
<mgrwt>
<rscale>  0 0.18588170E+04</rscale>
<asrwt>0</asrwt>
<pdfrwt beam="1">  1        3 0.10262119E+00 0.18588170E+04</pdfrwt>
<pdfrwt beam="2">  1       -3 0.17178299E+00 0.18588170E+04</pdfrwt>
<totfact> 0.45806002E-01</totfact>
</mgrwt>
</event>
<event>
 8    1  0.1714417E-029  0.1978447E+04  0.7818608E-02  0.8616764E-01
          3   -1    0    0  501    0  0.00000000000E+00  0.00000000000E+00  0.14150984743E+04  0.14150984779E+04  0.10100000000E+00 0.  1.
         -3   -1    0    0    0  501 -0.00000000000E+00 -0.00000000000E+00 -0.69151565536E+03  0.69151566274E+03  0.10100000000E+00 0. -1.
     200001    2    1    2    0    0  0.58242099923E+03 -0.21748959591E+02 -0.48123073633E+02  0.91278952110E+03  0.70084352178E+03 0.  0.
    5000001    2    3    3    0    0  0.88880559915E+02 -0.67140013214E+02 -0.83844867352E+02  0.20786501483E+03  0.15417641618E+03 0.  0.
        -13    1    4    4    0    0 -0.30290724132E+02 -0.28512518340E+02 -0.65719461816E+02  0.77778856355E+02  0.10566000000E+00 0. -1.
     200003    1    4    4    0    0  0.11917128405E+03 -0.38627494873E+02 -0.18125405536E+02  0.13008615848E+03  0.30000000000E+02 0. -1.
     200000    1    3    3    0    0  0.49354043932E+03  0.45391053623E+02  0.35721793719E+02  0.70492450627E+03  0.50000000000E+03 0. -1.
    -200001    1    1    2    0    0 -0.58242099923E+03  0.21748959591E+02  0.77170589259E+03  0.11938246196E+04  0.70000000000E+03 0.  1.
<mgrwt>
<rscale>  0 0.19784466E+04</rscale>
<asrwt>0</asrwt>
<pdfrwt beam="1">  1        3 0.20215692E+00 0.19784466E+04</pdfrwt>
<pdfrwt beam="2">  1       -3 0.98787953E-01 0.19784466E+04</pdfrwt>
<totfact> 0.31453704E-01</totfact>
</mgrwt>
</event>
<event>
 8    1  0.1714417E-029  0.1527701E+04  0.7818608E-02  0.8866238E-01
         -3   -1    0    0    0  501 -0.00000000000E+00  0.00000000000E+00  0.27655008065E+04  0.27655008083E+04  0.10100000000E+00 0. -1.
          3   -1    0    0  501    0  0.00000000000E+00 -0.00000000000E+00 -0.21098087619E+03  0.21098090037E+03  0.10100000000E+00 0.  1.
     200001    2    1    2    0    0  0.23959734474E+03 -0.18879966579E+03  0.13392420344E+04  0.15412282239E+04  0.69911587738E+03 0.  0.
    5000001    2    3    3    0    0  0.16466171038E+01 -0.96352531897E+02  0.29012334591E+03  0.35134711895E+03  0.17316674162E+03 0.  0.
        -13    1    4    4    0    0  0.67740114130E+02 -0.51593401840E+02  0.23463679629E+03  0.24960977447E+03  0.10566000000E+00 0. -1.
     200003    1    4    4    0    0 -0.66093497026E+02 -0.44759130057E+02  0.55486549622E+02  0.10173734448E+03  0.30000000000E+02 0. -1.
     200000    1    3    3    0    0  0.23795072764E+03 -0.92447133890E+02  0.10491186885E+04  0.11898811050E+04  0.50000000000E+03 0.  1.
    -200001    1    1    2    0    0 -0.23959734474E+03  0.18879966579E+03  0.12152778958E+04  0.14352534848E+04  0.70000000000E+03 0.  1.
<mgrwt>
<rscale>  0 0.15277013E+04</rscale>
<asrwt>0</asrwt>
<pdfrwt beam="1">  1        3 0.30140129E-01 0.15277013E+04</pdfrwt>
<pdfrwt beam="2">  1       -3 0.39507152E+00 0.15277013E+04</pdfrwt>
<totfact> 0.31033856E-01</totfact>
</mgrwt>
</event>
<event>
 8    1  0.1714417E-029  0.1424978E+04  0.7818608E-02  0.8935934E-01
          3   -1    0    0  501    0  0.00000000000E+00  0.00000000000E+00  0.34426442747E+03  0.34426444229E+03  0.10100000000E+00 0.  1.
         -3   -1    0    0    0  501 -0.00000000000E+00 -0.00000000000E+00 -0.14745663689E+04  0.14745663723E+04  0.10100000000E+00 0. -1.
     200001    2    1    2    0    0 -0.10835731048E+03  0.21675715462E+02 -0.47716648120E+03  0.85508962905E+03  0.70091317548E+03 0.  0.
    5000001    2    3    3    0    0 -0.75055557634E+02 -0.27866844131E+02 -0.81243636629E+01  0.16692977846E+03  0.14625200141E+03 0.  0.
        -13    1    4    4    0    0 -0.78915248950E+02  0.35904090517E+02 -0.32006202320E+02  0.92418225387E+02  0.10566000000E+00 0. -1.
     200003    1    4    4    0    0  0.38596913164E+01 -0.63770934648E+02  0.23881838657E+02  0.74511553068E+02  0.30000000000E+02 0. -1.
     200000    1    3    3    0    0 -0.33301752842E+02  0.49542559593E+02 -0.46904211753E+03  0.68815985060E+03  0.50000000000E+03 0. -1.
    -200001    1    1    2    0    0  0.10835731048E+03 -0.21675715462E+02 -0.65313546020E+03  0.96374118556E+03  0.70000000000E+03 0.  1.
<mgrwt>
<rscale>  0 0.14249783E+04</rscale>
<asrwt>0</asrwt>
<pdfrwt beam="1">  1        3 0.49180635E-01 0.14249783E+04</pdfrwt>
<pdfrwt beam="2">  1       -3 0.21065234E+00 0.14249783E+04</pdfrwt>
<totfact> 0.13192422E+00</totfact>
</mgrwt>
</event>
<event>
 8    1  0.1714417E-029  0.1493329E+04  0.7818608E-02  0.8888901E-01
          3   -1    0    0  501    0  0.00000000000E+00  0.00000000000E+00  0.25565104874E+03  0.25565106869E+03  0.10100000000E+00 0.  1.
         -3   -1    0    0    0  501 -0.00000000000E+00 -0.00000000000E+00 -0.21807373866E+04  0.21807373889E+04  0.10100000000E+00 0. -1.
     200001    2    1    2    0    0 -0.14850933008E+03  0.20690789973E+03 -0.10492098604E+04  0.12865947788E+04  0.69972772820E+03 0.  0.
    5000001    2    3    3    0    0 -0.79945349893E+02  0.34900395064E+02 -0.38978538261E+03  0.43858048474E+03  0.18113779438E+03 0.  0.
        -13    1    4    4    0    0 -0.61374102525E+02 -0.64106907635E+02 -0.12166849376E+03  0.15059784064E+03  0.10566000000E+00 0. -1.
     200003    1    4    4    0    0 -0.18571247368E+02  0.99007302699E+02 -0.26811688885E+03  0.28798264410E+03  0.30000000000E+02 0. -1.
     200000    1    3    3    0    0 -0.68563980190E+02  0.17200750467E+03 -0.65942447780E+03  0.84801429408E+03  0.50000000000E+03 0. -1.
    -200001    1    1    2    0    0  0.14850933008E+03 -0.20690789973E+03 -0.87587647746E+03  0.11497936788E+04  0.70000000000E+03 0.  1.
<mgrwt>
<rscale>  0 0.14933289E+04</rscale>
<asrwt>0</asrwt>
<pdfrwt beam="1">  1        3 0.36521581E-01 0.14933289E+04</pdfrwt>
<pdfrwt beam="2">  1       -3 0.31153390E+00 0.14933289E+04</pdfrwt>
<totfact> 0.62268206E-01</totfact>
</mgrwt>
</event>
<event>
 8    1  0.1714417E-029  0.1894696E+04  0.7818608E-02  0.8657501E-01
         -3   -1    0    0    0  501 -0.00000000000E+00  0.00000000000E+00  0.31347229162E+04  0.31347229178E+04  0.10100000000E+00 0.  1.
          3   -1    0    0  501    0  0.00000000000E+00 -0.00000000000E+00 -0.28629897943E+03  0.28629899724E+03  0.10100000000E+00 0. -1.
     200001    2    1    2    0    0  0.52313106434E+03  0.20020785611E+03  0.19749544764E+04  0.21693437638E+04  0.70132580564E+03 0.  0.
    5000001    2    3    3    0    0  0.83027656625E+02  0.45851505139E+02  0.37046989957E+03  0.42524294970E+03  0.18597759942E+03 0.  0.
        -13    1    4    4    0    0  0.12808490957E+03 -0.67563106900E+01  0.27578229176E+03  0.30415008697E+03  0.10566000000E+00 0. -1.
     200003    1    4    4    0    0 -0.45057252941E+02  0.52607815829E+02  0.94687607814E+02  0.12109286272E+03  0.30000000000E+02 0. -1.
     200000    1    3    3    0    0  0.44010340771E+03  0.15435635097E+03  0.16044845768E+04  0.17441008141E+04  0.50000000000E+03 0. -1.
    -200001    1    1    2    0    0 -0.52313106434E+03 -0.20020785611E+03  0.87346946039E+03  0.12516781513E+04  0.70000000000E+03 0. -1.
<mgrwt>
<rscale>  0 0.18946958E+04</rscale>
<asrwt>0</asrwt>
<pdfrwt beam="1">  1        3 0.40899853E-01 0.18946958E+04</pdfrwt>
<pdfrwt beam="2">  1       -3 0.44781758E+00 0.18946958E+04</pdfrwt>
<totfact> 0.85265428E-02</totfact>
</mgrwt>
</event>
<event>
 8    1  0.1714417E-029  0.2020585E+04  0.7818608E-02  0.8597056E-01
         -3   -1    0    0    0  501 -0.00000000000E+00  0.00000000000E+00  0.79224814438E+03  0.79224815082E+03  0.10100000000E+00 0.  1.
          3   -1    0    0  501    0  0.00000000000E+00 -0.00000000000E+00 -0.12883479287E+04  0.12883479327E+04  0.10100000000E+00 0. -1.
     200001    2    1    2    0    0  0.54867798793E+03 -0.14162299175E+03  0.22283795403E+03  0.92821763963E+03  0.70059019871E+03 0.  0.
    5000001    2    3    3    0    0  0.34472727931E+02  0.10611836826E+03 -0.14408629670E+01  0.13696305441E+03  0.79418669935E+02 0.  0.
        -13    1    4    4    0    0  0.29900508349E+02  0.10204613538E+03 -0.12696126907E+01  0.10634414524E+03  0.10566000000E+00 0. -1.
     200003    1    4    4    0    0  0.45722195823E+01  0.40722328833E+01 -0.17125027636E+00  0.30618909178E+02  0.30000000000E+02 0.  1.
     200000    1    3    3    0    0  0.51420526000E+03 -0.24774136001E+03  0.22427881699E+03  0.79125458522E+03  0.50000000000E+03 0.  1.
    -200001    1    1    2    0    0 -0.54867798793E+03  0.14162299175E+03 -0.71893773836E+03  0.11523784439E+04  0.70000000000E+03 0. -1.
<mgrwt>
<rscale>  0 0.20205853E+04</rscale>
<asrwt>0</asrwt>
<pdfrwt beam="1">  1        3 0.18404970E+00 0.20205853E+04</pdfrwt>
<pdfrwt beam="2">  1       -3 0.11317831E+00 0.20205853E+04</pdfrwt>
<totfact> 0.29689981E-01</totfact>
</mgrwt>
</event>
<event>
 8    1  0.1714417E-029  0.1519377E+04  0.7818608E-02  0.8871669E-01
          3   -1    0    0  501    0  0.00000000000E+00  0.00000000000E+00  0.65883724167E+03  0.65883724941E+03  0.10100000000E+00 0.  1.
         -3   -1    0    0    0  501 -0.00000000000E+00 -0.00000000000E+00 -0.87597760139E+03  0.87597760721E+03  0.10100000000E+00 0. -1.
     200001    2    1    2    0    0  0.16165563770E+03 -0.19645651932E+03 -0.25979533780E+03  0.78879397465E+03  0.69998186242E+03 0.  0.
    5000001    2    3    3    0    0  0.12970982066E+02 -0.63694012118E+02  0.65040616851E+01  0.18825390080E+03  0.17655609531E+03 0.  0.
        -13    1    4    4    0    0 -0.41416701696E+02  0.11419509806E+02 -0.57405163421E+02  0.71701550437E+02  0.10566000000E+00 0. -1.
     200003    1    4    4    0    0  0.54387683762E+02 -0.75113521924E+02  0.63909225107E+02  0.11655235036E+03  0.30000000000E+02 0. -1.
     200000    1    3    3    0    0  0.14868465563E+03 -0.13276250720E+03 -0.26629939948E+03  0.60054007385E+03  0.50000000000E+03 0. -1.
    -200001    1    1    2    0    0 -0.16165563770E+03  0.19645651932E+03  0.42654978077E+02  0.74602088197E+03  0.70000000000E+03 0. -1.
<mgrwt>
<rscale>  0 0.15193771E+04</rscale>
<asrwt>0</asrwt>
<pdfrwt beam="1">  1        3 0.94119607E-01 0.15193771E+04</pdfrwt>
<pdfrwt beam="2">  1       -3 0.12513966E+00 0.15193771E+04</pdfrwt>
<totfact> 0.13053362E+00</totfact>
</mgrwt>
</event>
<event>
 8    1  0.1714417E-029  0.1522721E+04  0.7818608E-02  0.8869483E-01
         -3   -1    0    0    0  501 -0.00000000000E+00  0.00000000000E+00  0.75134130364E+03  0.75134131043E+03  0.10100000000E+00 0. -1.
          3   -1    0    0  501    0  0.00000000000E+00 -0.00000000000E+00 -0.77151350047E+03  0.77151350708E+03  0.10100000000E+00 0.  1.
     200001    2    1    2    0    0 -0.13673068497E+03  0.14574293673E+03  0.21267845985E+03  0.75855401800E+03  0.70016839912E+03 0.  0.
    5000001    2    3    3    0    0 -0.10929615735E+02 -0.76373077365E+01 -0.14563517044E+01  0.17958499817E+03  0.17908340413E+03 0.  0.
        -13    1    4    4    0    0  0.22036178903E+02 -0.70033082433E+02  0.48568530385E+02  0.88029194722E+02  0.10566000000E+00 0. -1.
     200003    1    4    4    0    0 -0.32965794638E+02  0.62395774697E+02 -0.50024882089E+02  0.91555803443E+02  0.30000000000E+02 0. -1.
     200000    1    3    3    0    0 -0.12580106923E+03  0.15338024447E+03  0.21413481155E+03  0.57896901984E+03  0.50000000000E+03 0. -1.
    -200001    1    1    2    0    0  0.13673068497E+03 -0.14574293673E+03 -0.23285065668E+03  0.76430079951E+03  0.70000000000E+03 0.  1.
<mgrwt>
<rscale>  0 0.15227212E+04</rscale>
<asrwt>0</asrwt>
<pdfrwt beam="1">  1        3 0.11021622E+00 0.15227212E+04</pdfrwt>
<pdfrwt beam="2">  1       -3 0.10733447E+00 0.15227212E+04</pdfrwt>
<totfact> 0.13059140E+00</totfact>
</mgrwt>
</event>
<event>
 8    1  0.1714417E-029  0.1449360E+04  0.7818608E-02  0.8918845E-01
         -3   -1    0    0    0  501 -0.00000000000E+00  0.00000000000E+00  0.98963358922E+03  0.98963359437E+03  0.10100000000E+00 0. -1.
          3   -1    0    0  501    0  0.00000000000E+00 -0.00000000000E+00 -0.53066185807E+03  0.53066186768E+03  0.10100000000E+00 0.  1.
     200001    2    1    2    0    0  0.88521051177E+02  0.11555849998E+02  0.58103754866E+02  0.70871388971E+03  0.70066384020E+03 0.  0.
    5000001    2    3    3    0    0  0.62505100722E+02  0.57021311080E+02 -0.75489639832E+01  0.20170874444E+03  0.18295112242E+03 0.  0.
        -13    1    4    4    0    0  0.18303185304E+02  0.10597717618E+03  0.40329504131E+02  0.11485925531E+03  0.10566000000E+00 0. -1.
     200003    1    4    4    0    0  0.44201915418E+02 -0.48955865098E+02 -0.47878468114E+02  0.86849489135E+02  0.30000000000E+02 0. -1.
     200000    1    3    3    0    0  0.26015950455E+02 -0.45465461081E+02  0.65652718850E+02  0.50700514526E+03  0.50000000000E+03 0.  1.
    -200001    1    1    2    0    0 -0.88521051177E+02 -0.11555849998E+02  0.40086797628E+03  0.81158157235E+03  0.70000000000E+03 0. -1.
<mgrwt>
<rscale>  0 0.14493596E+04</rscale>
<asrwt>0</asrwt>
<pdfrwt beam="1">  1        3 0.75808837E-01 0.14493596E+04</pdfrwt>
<pdfrwt beam="2">  1       -3 0.14137623E+00 0.14493596E+04</pdfrwt>
<totfact> 0.15730016E+00</totfact>
</mgrwt>
</event>
<event>
 8    1  0.1714417E-029  0.1697225E+04  0.7818608E-02  0.8762948E-01
          3   -1    0    0  501    0  0.00000000000E+00  0.00000000000E+00  0.10937586815E+04  0.10937586861E+04  0.10100000000E+00 0. -1.
         -3   -1    0    0    0  501 -0.00000000000E+00 -0.00000000000E+00 -0.65841175002E+03  0.65841175777E+03  0.10100000000E+00 0.  1.
     200001    2    1    2    0    0  0.62088403629E+02 -0.30311735500E+03 -0.16300292586E+03  0.78069854389E+03  0.69798650548E+03 0.  0.
    5000001    2    3    3    0    0 -0.12111927421E+02 -0.33605487729E+02 -0.91702279564E+02  0.20344113347E+03  0.17805324799E+03 0.  0.
        -13    1    4    4    0    0 -0.25484520070E+02  0.46812877510E+01  0.48199406727E+02  0.54722657018E+02  0.10566000000E+00 0. -1.
     200003    1    4    4    0    0  0.13372592649E+02 -0.38286775480E+02 -0.13990168629E+03  0.14871847645E+03  0.30000000000E+02 0. -1.
     200000    1    3    3    0    0  0.74200331050E+02 -0.26951186727E+03 -0.71300646295E+02  0.57725741042E+03  0.50000000000E+03 0.  1.
    -200001    1    1    2    0    0 -0.62088403629E+02  0.30311735500E+03  0.59834985731E+03  0.97147190001E+03  0.70000000000E+03 0. -1.
<mgrwt>
<rscale>  0 0.16972255E+04</rscale>
<asrwt>0</asrwt>
<pdfrwt beam="1">  1        3 0.15625124E+00 0.16972255E+04</pdfrwt>
<pdfrwt beam="2">  1       -3 0.94058823E-01 0.16972255E+04</pdfrwt>
<totfact> 0.73465311E-01</totfact>
</mgrwt>
</event>
<event>
 8    1  0.1714417E-029  0.1821150E+04  0.7818608E-02  0.8695132E-01
          3   -1    0    0  501    0  0.00000000000E+00  0.00000000000E+00  0.94164525380E+03  0.94164525922E+03  0.10100000000E+00 0.  1.
         -3   -1    0    0    0  501 -0.00000000000E+00 -0.00000000000E+00 -0.88053038381E+03  0.88053038961E+03  0.10100000000E+00 0. -1.
     200001    2    1    2    0    0 -0.94971603318E+02  0.56685505419E+02  0.60273552809E+03  0.93021949002E+03  0.69984664808E+03 0.  0.
    5000001    2    3    3    0    0 -0.11395999862E+03 -0.38006669805E+01  0.12330393474E+03  0.23460911854E+03  0.16381773965E+03 0.  0.
        -13    1    4    4    0    0 -0.14300736933E+03  0.10227695551E+01  0.12848987528E+03  0.19225455250E+03  0.10566000000E+00 0. -1.
     200003    1    4    4    0    0  0.29047370711E+02 -0.48234365356E+01 -0.51859405436E+01  0.42354566042E+02  0.30000000000E+02 0. -1.
     200000    1    3    3    0    0  0.18988395304E+02  0.60486172400E+02  0.47943159335E+03  0.69561037148E+03  0.50000000000E+03 0.  1.
    -200001    1    1    2    0    0  0.94971603318E+02 -0.56685505419E+02 -0.54162065810E+03  0.89195615881E+03  0.70000000000E+03 0. -1.
<mgrwt>
<rscale>  0 0.18211505E+04</rscale>
<asrwt>0</asrwt>
<pdfrwt beam="1">  1        3 0.13452075E+00 0.18211505E+04</pdfrwt>
<pdfrwt beam="2">  1       -3 0.12579005E+00 0.18211505E+04</pdfrwt>
<totfact> 0.53402170E-01</totfact>
</mgrwt>
</event>
<event>
 8    1  0.1714417E-029  0.1505629E+04  0.7818608E-02  0.8880718E-01
          3   -1    0    0  501    0  0.00000000000E+00  0.00000000000E+00  0.14716077544E+04  0.14716077579E+04  0.10100000000E+00 0.  1.
         -3   -1    0    0    0  501 -0.00000000000E+00 -0.00000000000E+00 -0.38510917379E+03  0.38510918704E+03  0.10100000000E+00 0. -1.
     200001    2    1    2    0    0  0.25013166682E+03  0.11089581627E+03  0.49948547601E+03  0.90306705224E+03  0.70084279784E+03 0.  0.
    5000001    2    3    3    0    0  0.25524773163E+02 -0.91998983153E+00  0.82539569625E+02  0.20536015101E+03  0.18629989437E+03 0.  0.
        -13    1    4    4    0    0  0.51724879260E+02 -0.82412893959E+02  0.40696748723E+02  0.10546840639E+03  0.10566000000E+00 0. -1.
     200003    1    4    4    0    0 -0.26200106097E+02  0.81492904128E+02  0.41842820902E+02  0.99891744622E+02  0.30000000000E+02 0. -1.
     200000    1    3    3    0    0  0.22460689365E+03  0.11181580610E+03  0.41694590638E+03  0.69770690123E+03  0.50000000000E+03 0.  1.
    -200001    1    1    2    0    0 -0.25013166682E+03 -0.11089581627E+03  0.58701310460E+03  0.95364989266E+03  0.70000000000E+03 0.  1.
<mgrwt>
<rscale>  0 0.15056290E+04</rscale>
<asrwt>0</asrwt>
<pdfrwt beam="1">  1        3 0.21022968E+00 0.15056290E+04</pdfrwt>
<pdfrwt beam="2">  1       -3 0.55015597E-01 0.15056290E+04</pdfrwt>
<totfact> 0.10542902E+00</totfact>
</mgrwt>
</event>
<event>
 8    1  0.1714417E-029  0.2296399E+04  0.7818608E-02  0.8479342E-01
         -3   -1    0    0    0  501 -0.00000000000E+00  0.00000000000E+00  0.48460004977E+03  0.48460006029E+03  0.10100000000E+00 0. -1.
          3   -1    0    0  501    0  0.00000000000E+00 -0.00000000000E+00 -0.27205161428E+04  0.27205161447E+04  0.10100000000E+00 0.  1.
     200001    2    1    2    0    0 -0.63401134047E+03 -0.44774605267E+03 -0.45474690511E+03  0.11399259998E+04  0.70013543674E+03 0.  0.
    5000001    2    3    3    0    0 -0.15405943505E+03 -0.20419567437E+03 -0.23704092782E+03  0.37372334329E+03  0.13435234610E+03 0.  0.
        -13    1    4    4    0    0 -0.10230798789E+03 -0.17581977381E+03 -0.23014431416E+03  0.30715783199E+03  0.10566000000E+00 0. -1.
     200003    1    4    4    0    0 -0.51751447156E+02 -0.28375900557E+02 -0.68966136644E+01  0.66565511304E+02  0.30000000000E+02 0. -1.
     200000    1    3    3    0    0 -0.47995190542E+03 -0.24355037831E+03 -0.21770597729E+03  0.76620265651E+03  0.50000000000E+03 0. -1.
    -200001    1    1    2    0    0  0.63401134047E+03  0.44774605267E+03 -0.17811691879E+04  0.20651902052E+04  0.70000000000E+03 0.  1.
<mgrwt>
<rscale>  0 0.22963992E+04</rscale>
<asrwt>0</asrwt>
<pdfrwt beam="1">  1        3 0.38864516E+00 0.22963992E+04</pdfrwt>
<pdfrwt beam="2">  1       -3 0.69228581E-01 0.22963992E+04</pdfrwt>
<totfact> 0.60999546E-02</totfact>
</mgrwt>
</event>
<event>
 8    1  0.1714417E-029  0.1508682E+04  0.7818608E-02  0.8878700E-01
          3   -1    0    0  501    0  0.00000000000E+00  0.00000000000E+00  0.11636931453E+04  0.11636931497E+04  0.10100000000E+00 0.  1.
         -3   -1    0    0    0  501 -0.00000000000E+00 -0.00000000000E+00 -0.48898650147E+03  0.48898651190E+03  0.10100000000E+00 0. -1.
     200001    2    1    2    0    0  0.49325540477E+02 -0.54421169691E+02  0.38800060051E+02  0.70411661364E+03  0.69919960547E+03 0.  0.
    5000001    2    3    3    0    0  0.17678331543E+02 -0.50478037770E+02 -0.44938926689E+02  0.19615075650E+03  0.18328954264E+03 0.  0.
        -13    1    4    4    0    0  0.24618860008E+02  0.13730547898E+02  0.61749899344E+02  0.67879875123E+02  0.10566000000E+00 0. -1.
     200003    1    4    4    0    0 -0.69405284651E+01 -0.64208585668E+02 -0.10668882603E+03  0.12827088138E+03  0.30000000000E+02 0. -1.
     200000    1    3    3    0    0  0.31647208934E+02 -0.39431319218E+01  0.83738986740E+02  0.50796585714E+03  0.50000000000E+03 0. -1.
    -200001    1    1    2    0    0 -0.49325540477E+02  0.54421169691E+02  0.63590658380E+03  0.94856304797E+03  0.70000000000E+03 0.  1.
<mgrwt>
<rscale>  0 0.15086819E+04</rscale>
<asrwt>0</asrwt>
<pdfrwt beam="1">  1        3 0.16624188E+00 0.15086819E+04</pdfrwt>
<pdfrwt beam="2">  1       -3 0.69855215E-01 0.15086819E+04</pdfrwt>
<totfact> 0.12297193E+00</totfact>
</mgrwt>
</event>
<event>
 8    1  0.1714417E-029  0.1719212E+04  0.7818608E-02  0.8750482E-01
          3   -1    0    0  501    0  0.00000000000E+00  0.00000000000E+00  0.23339812576E+03  0.23339814761E+03  0.10100000000E+00 0.  1.
         -3   -1    0    0    0  501 -0.00000000000E+00 -0.00000000000E+00 -0.31659305983E+04  0.31659305999E+04  0.10100000000E+00 0. -1.
     200001    2    1    2    0    0  0.17828483007E+03  0.46256078866E+03 -0.15812968690E+04  0.17988333180E+04  0.69968103735E+03 0.  0.
    5000001    2    3    3    0    0  0.15909119879E+03  0.22118294994E+03 -0.55321448317E+03  0.63025082255E+03  0.13014579538E+03 0.  0.
        -13    1    4    4    0    0  0.17190389007E+02  0.10091097264E+03 -0.28205507367E+03  0.30005601080E+03  0.10566000000E+00 0. -1.
     200003    1    4    4    0    0  0.14190080979E+03  0.12027197731E+03 -0.27115940950E+03  0.33019481174E+03  0.30000000000E+02 0. -1.
     200000    1    3    3    0    0  0.19193631275E+02  0.24137783872E+03 -0.10280823858E+04  0.11685824954E+04  0.50000000000E+03 0. -1.
    -200001    1    1    2    0    0 -0.17828483007E+03 -0.46256078866E+03 -0.13512356036E+04  0.16004954296E+04  0.70000000000E+03 0. -1.
<mgrwt>
<rscale>  0 0.17192118E+04</rscale>
<asrwt>0</asrwt>
<pdfrwt beam="1">  1        3 0.33342593E-01 0.17192118E+04</pdfrwt>
<pdfrwt beam="2">  1       -3 0.45227577E+00 0.17192118E+04</pdfrwt>
<totfact> 0.12227356E-01</totfact>
</mgrwt>
</event>
<event>
 8    1  0.1714417E-029  0.1428175E+04  0.7818608E-02  0.8933672E-01
         -3   -1    0    0    0  501 -0.00000000000E+00  0.00000000000E+00  0.12327647565E+04  0.12327647606E+04  0.10100000000E+00 0. -1.
          3   -1    0    0  501    0  0.00000000000E+00 -0.00000000000E+00 -0.41364038316E+03  0.41364039549E+03  0.10100000000E+00 0.  1.
     200001    2    1    2    0    0  0.75200949480E+02 -0.93881357424E+02  0.32340145998E+03  0.78025846017E+03  0.69981845380E+03 0.  0.
    5000001    2    3    3    0    0 -0.71589242314E+02 -0.26784865154E+02 -0.34453282796E+02  0.14456252923E+03  0.11776607129E+03 0.  0.
        -13    1    4    4    0    0  0.92322138607E+01 -0.85637531923E+01  0.31876040526E+02  0.34273382750E+02  0.10566000000E+00 0. -1.
     200003    1    4    4    0    0 -0.80821456174E+02 -0.18221111962E+02 -0.66329323322E+02  0.11028914648E+03  0.30000000000E+02 0. -1.
     200000    1    3    3    0    0  0.14679019179E+03 -0.67096492270E+02  0.35785474278E+03  0.63569593094E+03  0.50000000000E+03 0. -1.
    -200001    1    1    2    0    0 -0.75200949480E+02  0.93881357424E+02  0.49572291334E+03  0.86614669594E+03  0.70000000000E+03 0.  1.
<mgrwt>
<rscale>  0 0.14281755E+04</rscale>
<asrwt>0</asrwt>
<pdfrwt beam="1">  1        3 0.59091483E-01 0.14281755E+04</pdfrwt>
<pdfrwt beam="2">  1       -3 0.17610926E+00 0.14281755E+04</pdfrwt>
<totfact> 0.15062310E+00</totfact>
</mgrwt>
</event>
<event>
 8    1  0.1714417E-029  0.1630272E+04  0.7818608E-02  0.8802164E-01
          3   -1    0    0  501    0  0.00000000000E+00  0.00000000000E+00  0.94452573962E+03  0.94452574502E+03  0.10100000000E+00 0.  1.
         -3   -1    0    0    0  501 -0.00000000000E+00 -0.00000000000E+00 -0.70347135824E+03  0.70347136549E+03  0.10100000000E+00 0. -1.
     200001    2    1    2    0    0 -0.16367627026E+03 -0.38245121954E+03  0.90011824957E+02  0.81982278670E+03  0.70067711265E+03 0.  0.
    5000001    2    3    3    0    0 -0.18342264965E+02 -0.99507423870E+02  0.12791326098E+02  0.22220905690E+03  0.19742107501E+03 0.  0.
        -13    1    4    4    0    0 -0.44718086295E+02 -0.90641573431E+02  0.89672190759E+02  0.13511741204E+03  0.10566000000E+00 0. -1.
     200003    1    4    4    0    0  0.26375821329E+02 -0.88658504393E+01 -0.76880864661E+02  0.87091644868E+02  0.30000000000E+02 0. -1.
     200000    1    3    3    0    0 -0.14533400529E+03 -0.28294379567E+03  0.77220498860E+02  0.59761372980E+03  0.50000000000E+03 0. -1.
    -200001    1    1    2    0    0  0.16367627026E+03  0.38245121954E+03  0.15104255643E+03  0.82817432381E+03  0.70000000000E+03 0.  1.
<mgrwt>
<rscale>  0 0.16302721E+04</rscale>
<asrwt>0</asrwt>
<pdfrwt beam="1">  1        3 0.13493225E+00 0.16302721E+04</pdfrwt>
<pdfrwt beam="2">  1       -3 0.10049591E+00 0.16302721E+04</pdfrwt>
<totfact> 0.92288859E-01</totfact>
</mgrwt>
</event>
<event>
 8    1  0.1714417E-029  0.1470579E+04  0.7818608E-02  0.8904257E-01
          3   -1    0    0  501    0  0.00000000000E+00  0.00000000000E+00  0.62048329945E+03  0.62048330767E+03  0.10100000000E+00 0.  1.
         -3   -1    0    0    0  501 -0.00000000000E+00 -0.00000000000E+00 -0.87133750141E+03  0.87133750726E+03  0.10100000000E+00 0. -1.
     200001    2    1    2    0    0 -0.21271952452E+03  0.84310115067E+01 -0.17255714162E+03  0.75598720078E+03  0.70457079314E+03 0.  0.
    5000001    2    3    3    0    0 -0.99730171365E+02  0.36010352005E+02  0.12915875924E+02  0.21015988909E+03  0.18099034946E+03 0.  0.
        -13    1    4    4    0    0 -0.65267700624E+02  0.66022302771E+02 -0.66179915514E+02  0.11401144499E+03  0.10566000000E+00 0. -1.
     200003    1    4    4    0    0 -0.34462470742E+02 -0.30011950767E+02  0.79095791438E+02  0.96148444094E+02  0.30000000000E+02 0. -1.
     200000    1    3    3    0    0 -0.11298935316E+03 -0.27579340498E+02 -0.18547301754E+03  0.54582731169E+03  0.50000000000E+03 0.  1.
    -200001    1    1    2    0    0  0.21271952452E+03 -0.84310115067E+01 -0.78297060341E+02  0.73583361416E+03  0.70000000000E+03 0. -1.
<mgrwt>
<rscale>  0 0.14705786E+04</rscale>
<asrwt>0</asrwt>
<pdfrwt beam="1">  1        3 0.88640472E-01 0.14705786E+04</pdfrwt>
<pdfrwt beam="2">  1       -3 0.12447679E+00 0.14705786E+04</pdfrwt>
<totfact> 0.15225455E+00</totfact>
</mgrwt>
</event>
<event>
 8    1  0.1714417E-029  0.1502250E+04  0.7818608E-02  0.8882958E-01
          3   -1    0    0  501    0  0.00000000000E+00  0.00000000000E+00  0.80616109588E+03  0.80616110221E+03  0.10100000000E+00 0.  1.
         -3   -1    0    0    0  501 -0.00000000000E+00 -0.00000000000E+00 -0.69984622556E+03  0.69984623285E+03  0.10100000000E+00 0. -1.
     200001    2    1    2    0    0 -0.57962625573E+02  0.21699301203E+03  0.20414537639E+03  0.76437640181E+03  0.70153425840E+03 0.  0.
    5000001    2    3    3    0    0 -0.91176751970E+02  0.35444410663E+02 -0.34526256847E+02  0.18040104157E+03  0.14759053845E+03 0.  0.
        -13    1    4    4    0    0 -0.24643391996E+02 -0.38937767780E+02 -0.57503733316E+02  0.73689463548E+02  0.10566000000E+00 0. -1.
     200003    1    4    4    0    0 -0.66533359974E+02  0.74382178443E+02  0.22977476469E+02  0.10671157802E+03  0.30000000000E+02 0. -1.
     200000    1    3    3    0    0  0.33214126398E+02  0.18154860136E+03  0.23867163324E+03  0.58397536024E+03  0.50000000000E+03 0. -1.
    -200001    1    1    2    0    0  0.57962625573E+02 -0.21699301203E+03 -0.97830506073E+02  0.74163093325E+03  0.70000000000E+03 0. -1.
<mgrwt>
<rscale>  0 0.15022501E+04</rscale>
<asrwt>0</asrwt>
<pdfrwt beam="1">  1        3 0.11516587E+00 0.15022501E+04</pdfrwt>
<pdfrwt beam="2">  1       -3 0.99978033E-01 0.15022501E+04</pdfrwt>
<totfact> 0.13924824E+00</totfact>
</mgrwt>
</event>
<event>
 8    1  0.1714417E-029  0.1573701E+04  0.7818608E-02  0.8836869E-01
         -3   -1    0    0    0  501 -0.00000000000E+00  0.00000000000E+00  0.50018902058E+03  0.50018903078E+03  0.10100000000E+00 0.  1.
          3   -1    0    0  501    0  0.00000000000E+00 -0.00000000000E+00 -0.12377993948E+04  0.12377993989E+04  0.10100000000E+00 0. -1.
     200001    2    1    2    0    0  0.12829178152E+03  0.30780430932E+03 -0.51589524895E+03  0.93153950333E+03  0.70029684016E+03 0.  0.
    5000001    2    3    3    0    0  0.53226953679E+02  0.48499057927E+02 -0.77774561337E+02  0.21402735801E+03  0.18593966862E+03 0.  0.
        -13    1    4    4    0    0  0.29941582729E+02  0.11098147710E+03 -0.81347596470E+02  0.14082197716E+03  0.10566000000E+00 0. -1.
     200003    1    4    4    0    0  0.23285370949E+02 -0.62482419169E+02  0.35730351323E+01  0.73205380850E+02  0.30000000000E+02 0. -1.
     200000    1    3    3    0    0  0.75064827846E+02  0.25930525140E+03 -0.43812068761E+03  0.71751214533E+03  0.50000000000E+03 0. -1.
    -200001    1    1    2    0    0 -0.12829178152E+03 -0.30780430932E+03 -0.22171512526E+03  0.80644892635E+03  0.70000000000E+03 0.  1.
<mgrwt>
<rscale>  0 0.15737010E+04</rscale>
<asrwt>0</asrwt>
<pdfrwt beam="1">  1        3 0.17682848E+00 0.15737010E+04</pdfrwt>
<pdfrwt beam="2">  1       -3 0.71455576E-01 0.15737010E+04</pdfrwt>
<totfact> 0.98492714E-01</totfact>
</mgrwt>
</event>
<event>
 8    1  0.1714417E-029  0.2052790E+04  0.7818608E-02  0.8582330E-01
          3   -1    0    0  501    0  0.00000000000E+00  0.00000000000E+00  0.26768378939E+04  0.26768378958E+04  0.10100000000E+00 0.  1.
         -3   -1    0    0    0  501 -0.00000000000E+00 -0.00000000000E+00 -0.39355645733E+03  0.39355647029E+03  0.10100000000E+00 0. -1.
     200001    2    1    2    0    0  0.36559295413E+02 -0.60679435839E+03  0.17996890418E+04  0.20247378356E+04  0.70081857880E+03 0.  0.
    5000001    2    3    3    0    0 -0.78991358902E+02 -0.18253637411E+03  0.74074927225E+03  0.77385805464E+03  0.10289626690E+03 0.  0.
        -13    1    4    4    0    0 -0.22967746831E+01 -0.17907903259E+02  0.10761167202E+02  0.21018612149E+02  0.10566000000E+00 0. -1.
     200003    1    4    4    0    0 -0.76694584219E+02 -0.16462847085E+03  0.72998810505E+03  0.75283944249E+03  0.30000000000E+02 0. -1.
     200000    1    3    3    0    0  0.11555065431E+03 -0.42425798428E+03  0.10589397695E+04  0.12508797810E+04  0.50000000000E+03 0. -1.
    -200001    1    1    2    0    0 -0.36559295413E+02  0.60679435839E+03  0.48359239481E+03  0.10456565305E+04  0.70000000000E+03 0.  1.
<mgrwt>
<rscale>  0 0.20527902E+04</rscale>
<asrwt>0</asrwt>
<pdfrwt beam="1">  1        3 0.38240543E+00 0.20527902E+04</pdfrwt>
<pdfrwt beam="2">  1       -3 0.56222350E-01 0.20527902E+04</pdfrwt>
<totfact> 0.10482936E-01</totfact>
</mgrwt>
</event>
<event>
 8    1  0.1714417E-029  0.2162900E+04  0.7818608E-02  0.8534030E-01
         -3   -1    0    0    0  501 -0.00000000000E+00  0.00000000000E+00  0.15406141391E+04  0.15406141424E+04  0.10100000000E+00 0. -1.
          3   -1    0    0  501    0  0.00000000000E+00 -0.00000000000E+00 -0.75913507017E+03  0.75913507688E+03  0.10100000000E+00 0.  1.
     200001    2    1    2    0    0 -0.75486376072E+03 -0.32962644492E+03  0.40991161479E+03  0.11567114844E+04  0.70105708453E+03 0.  0.
    5000001    2    3    3    0    0 -0.28145184365E+03  0.41872737693E+01  0.39113619872E+02  0.30639295876E+03  0.11451679512E+03 0.  0.
        -13    1    4    4    0    0  0.40353050471E+01  0.15918610741E+02  0.44215830192E+01  0.17007275360E+02  0.10566000000E+00 0. -1.
     200003    1    4    4    0    0 -0.28548714869E+03 -0.11731336972E+02  0.34692036852E+02  0.28938568340E+03  0.30000000000E+02 0. -1.
     200000    1    3    3    0    0 -0.47341191708E+03 -0.33381371869E+03  0.37079799492E+03  0.85031852564E+03  0.50000000000E+03 0.  1.
    -200001    1    1    2    0    0  0.75486376072E+03  0.32962644492E+03  0.37156745418E+03  0.11430377349E+04  0.70000000000E+03 0. -1.
<mgrwt>
<rscale>  0 0.21629001E+04</rscale>
<asrwt>0</asrwt>
<pdfrwt beam="1">  1        3 0.10844787E+00 0.21629001E+04</pdfrwt>
<pdfrwt beam="2">  1       -3 0.22008773E+00 0.21629001E+04</pdfrwt>
<totfact> 0.19162470E-01</totfact>
</mgrwt>
</event>
<event>
 8    1  0.1714417E-029  0.1459809E+04  0.7818608E-02  0.8911628E-01
          3   -1    0    0  501    0  0.00000000000E+00  0.00000000000E+00  0.32046060531E+03  0.32046062123E+03  0.10100000000E+00 0.  1.
         -3   -1    0    0    0  501 -0.00000000000E+00 -0.00000000000E+00 -0.16624832032E+04  0.16624832063E+04  0.10100000000E+00 0. -1.
     200001    2    1    2    0    0 -0.66600213942E+02  0.13376114312E+03 -0.85636548932E+03  0.11179637936E+04  0.70296056836E+03 0.  0.
    5000001    2    3    3    0    0 -0.49170836866E+02  0.50710861361E+02 -0.19265116325E+03  0.28266873252E+03  0.19441650904E+03 0.  0.
        -13    1    4    4    0    0  0.80734702758E+01 -0.51537356186E+02  0.34303883493E+01  0.52278664225E+02  0.10566000000E+00 0. -1.
     200003    1    4    4    0    0 -0.57244307142E+02  0.10224821755E+03 -0.19608155160E+03  0.23039006830E+03  0.30000000000E+02 0.  1.
     200000    1    3    3    0    0 -0.17429377076E+02  0.83050281757E+02 -0.66371432606E+03  0.83529506110E+03  0.50000000000E+03 0. -1.
    -200001    1    1    2    0    0  0.66600213942E+02 -0.13376114312E+03 -0.48565710861E+03  0.86498003390E+03  0.70000000000E+03 0.  1.
<mgrwt>
<rscale>  0 0.14598087E+04</rscale>
<asrwt>0</asrwt>
<pdfrwt beam="1">  1        3 0.45780089E-01 0.14598087E+04</pdfrwt>
<pdfrwt beam="2">  1       -3 0.23749760E+00 0.14598087E+04</pdfrwt>
<totfact> 0.10493334E+00</totfact>
</mgrwt>
</event>
<event>
 8    1  0.1714417E-029  0.1585371E+04  0.7818608E-02  0.8829586E-01
         -3   -1    0    0    0  501 -0.00000000000E+00  0.00000000000E+00  0.95695022179E+03  0.95695022712E+03  0.10100000000E+00 0. -1.
          3   -1    0    0  501    0  0.00000000000E+00 -0.00000000000E+00 -0.65661739614E+03  0.65661740391E+03  0.10100000000E+00 0.  1.
     200001    2    1    2    0    0 -0.92746683512E+02  0.35129370372E+03  0.71138905318E+02  0.79226435775E+03  0.70043761688E+03 0.  0.
    5000001    2    3    3    0    0  0.22698501920E+02  0.65094639894E+02  0.71266359589E+02  0.20469520334E+03  0.17907735236E+03 0.  0.
        -13    1    4    4    0    0 -0.21612599389E+00  0.11744263740E+03  0.13748912844E+02  0.11824493037E+03  0.10566000000E+00 0. -1.
     200003    1    4    4    0    0  0.22914627914E+02 -0.52347997509E+02  0.57517446745E+02  0.86450272965E+02  0.30000000000E+02 0. -1.
     200000    1    3    3    0    0 -0.11544518543E+03  0.28619906383E+03 -0.12745427133E+00  0.58756915442E+03  0.50000000000E+03 0.  1.
    -200001    1    1    2    0    0  0.92746683512E+02 -0.35129370372E+03  0.22919392032E+03  0.82130327327E+03  0.70000000000E+03 0. -1.
<mgrwt>
<rscale>  0 0.15853708E+04</rscale>
<asrwt>0</asrwt>
<pdfrwt beam="1">  1        3 0.93802487E-01 0.15853708E+04</pdfrwt>
<pdfrwt beam="2">  1       -3 0.13670717E+00 0.15853708E+04</pdfrwt>
<totfact> 0.10500528E+00</totfact>
</mgrwt>
</event>
<event>
 8    1  0.1714417E-029  0.1498207E+04  0.7818608E-02  0.8885646E-01
          3   -1    0    0  501    0  0.00000000000E+00  0.00000000000E+00  0.39677695524E+03  0.39677696809E+03  0.10100000000E+00 0. -1.
         -3   -1    0    0    0  501 -0.00000000000E+00 -0.00000000000E+00 -0.14142865432E+04  0.14142865468E+04  0.10100000000E+00 0.  1.
     200001    2    1    2    0    0 -0.12534320257E+03  0.10956478021E+03 -0.25798562373E+03  0.76483600058E+03  0.70050136777E+03 0.  0.
    5000001    2    3    3    0    0 -0.93116806312E+02 -0.79720601381E+01 -0.51208421680E+02  0.21020976541E+03  0.18119478376E+03 0.  0.
        -13    1    4    4    0    0 -0.28859010363E+02  0.74788398880E+02 -0.61071627083E+02  0.10077649470E+03  0.10566000000E+00 0. -1.
     200003    1    4    4    0    0 -0.64257795948E+02 -0.82760459018E+02  0.98632054028E+01  0.10943327071E+03  0.30000000000E+02 0. -1.
     200000    1    3    3    0    0 -0.32226396258E+02  0.11753684035E+03 -0.20677720205E+03  0.55462623517E+03  0.50000000000E+03 0. -1.
    -200001    1    1    2    0    0  0.12534320257E+03 -0.10956478021E+03 -0.75952396427E+03  0.10462275144E+04  0.70000000000E+03 0.  1.
<mgrwt>
<rscale>  0 0.14982074E+04</rscale>
<asrwt>0</asrwt>
<pdfrwt beam="1">  1        3 0.56682424E-01 0.14982074E+04</pdfrwt>
<pdfrwt beam="2">  1       -3 0.20204093E+00 0.14982074E+04</pdfrwt>
<totfact> 0.11071433E+00</totfact>
</mgrwt>
</event>
<event>
 8    1  0.1714417E-029  0.1538394E+04  0.7818608E-02  0.8859315E-01
          3   -1    0    0  501    0  0.00000000000E+00  0.00000000000E+00  0.26619547243E+04  0.26619547263E+04  0.10100000000E+00 0. -1.
         -3   -1    0    0    0  501 -0.00000000000E+00 -0.00000000000E+00 -0.22226676883E+03  0.22226679178E+03  0.10100000000E+00 0.  1.
     200001    2    1    2    0    0  0.11312947161E+02 -0.11975501473E+03  0.17743262495E+04  0.19109921277E+04  0.69941977832E+03 0.  0.
    5000001    2    3    3    0    0 -0.46900486088E+02 -0.87818702435E+02  0.53173549804E+03  0.56993265574E+03  0.17935666172E+03 0.  0.
        -13    1    4    4    0    0  0.27961618846E+00  0.53167150024E+02  0.12487434436E+03  0.13572191079E+03  0.10566000000E+00 0. -1.
     200003    1    4    4    0    0 -0.47180102277E+02 -0.14098585246E+03  0.40686115369E+03  0.43421074494E+03  0.30000000000E+02 0. -1.
     200000    1    3    3    0    0  0.58213433249E+02 -0.31936312296E+02  0.12425907514E+04  0.13410594720E+04  0.50000000000E+03 0. -1.
    -200001    1    1    2    0    0 -0.11312947161E+02  0.11975501473E+03  0.66536170604E+03  0.97322939033E+03  0.70000000000E+03 0.  1.
<mgrwt>
<rscale>  0 0.15383941E+04</rscale>
<asrwt>0</asrwt>
<pdfrwt beam="1">  1        3 0.38027924E+00 0.15383941E+04</pdfrwt>
<pdfrwt beam="2">  1       -3 0.31752398E-01 0.15383941E+04</pdfrwt>
<totfact> 0.35292264E-01</totfact>
</mgrwt>
</event>
<event>
 8    1  0.1714417E-029  0.2069871E+04  0.7818608E-02  0.8574633E-01
         -3   -1    0    0    0  501 -0.00000000000E+00  0.00000000000E+00  0.55383980284E+03  0.55383981204E+03  0.10100000000E+00 0. -1.
          3   -1    0    0  501    0  0.00000000000E+00 -0.00000000000E+00 -0.19339381224E+04  0.19339381250E+04  0.10100000000E+00 0.  1.
     200001    2    1    2    0    0  0.58565017990E+03  0.24288003284E+03 -0.11991519602E+04  0.15261551272E+04  0.69943348862E+03 0.  0.
    5000001    2    3    3    0    0  0.10645517595E+03  0.45995703072E+02 -0.18133589925E+03  0.27942306894E+03  0.17817472860E+03 0.  0.
        -13    1    4    4    0    0  0.76259751396E+02  0.56401237024E+02 -0.20634052706E+01  0.94873168105E+02  0.10566000000E+00 0. -1.
     200003    1    4    4    0    0  0.30195424553E+02 -0.10405533952E+02 -0.17927249398E+03  0.18454990084E+03  0.30000000000E+02 0. -1.
     200000    1    3    3    0    0  0.47919500395E+03  0.19688432977E+03 -0.10178160609E+04  0.12467320582E+04  0.50000000000E+03 0. -1.
    -200001    1    1    2    0    0 -0.58565017990E+03 -0.24288003284E+03 -0.18094635938E+03  0.96162280991E+03  0.70000000000E+03 0. -1.
<mgrwt>
<rscale>  0 0.20698714E+04</rscale>
<asrwt>0</asrwt>
<pdfrwt beam="1">  1        3 0.27627687E+00 0.20698714E+04</pdfrwt>
<pdfrwt beam="2">  1       -3 0.79119973E-01 0.20698714E+04</pdfrwt>
<totfact> 0.18999215E-01</totfact>
</mgrwt>
</event>
<event>
 8    1  0.1714417E-029  0.1527869E+04  0.7818608E-02  0.8866129E-01
         -3   -1    0    0    0  501 -0.00000000000E+00  0.00000000000E+00  0.14284249214E+04  0.14284249250E+04  0.10100000000E+00 0. -1.
          3   -1    0    0  501    0  0.00000000000E+00 -0.00000000000E+00 -0.40855928503E+03  0.40855929752E+03  0.10100000000E+00 0.  1.
     200001    2    1    2    0    0  0.43340670523E+02  0.30137613336E+02  0.86944528363E+03  0.11190615442E+04  0.70255031785E+03 0.  0.
    5000001    2    3    3    0    0  0.10209586033E+03 -0.61899419838E+00  0.16092871687E+03  0.24935247415E+03  0.16079383259E+03 0.  0.
        -13    1    4    4    0    0  0.98521079758E+02  0.27575120206E+02  0.22318715403E+02  0.10471354560E+03  0.10566000000E+00 0. -1.
     200003    1    4    4    0    0  0.35747805715E+01 -0.28194114404E+02  0.13861000147E+03  0.14463892854E+03  0.30000000000E+02 0. -1.
     200000    1    3    3    0    0 -0.58755189807E+02  0.30756607534E+02  0.70851656676E+03  0.86970907010E+03  0.50000000000E+03 0. -1.
    -200001    1    1    2    0    0 -0.43340670523E+02 -0.30137613336E+02  0.15042035277E+03  0.71792267828E+03  0.70000000000E+03 0.  1.
<mgrwt>
<rscale>  0 0.15278695E+04</rscale>
<asrwt>0</asrwt>
<pdfrwt beam="1">  1        3 0.58365613E-01 0.15278695E+04</pdfrwt>
<pdfrwt beam="2">  1       -3 0.20406070E+00 0.15278695E+04</pdfrwt>
<totfact> 0.10090115E+00</totfact>
</mgrwt>
</event>
<event>
 8    1  0.1714417E-029  0.1702551E+04  0.7818608E-02  0.8759911E-01
          3   -1    0    0  501    0  0.00000000000E+00  0.00000000000E+00  0.35621703290E+03  0.35621704722E+03  0.10100000000E+00 0.  1.
         -3   -1    0    0    0  501 -0.00000000000E+00 -0.00000000000E+00 -0.20343489115E+04  0.20343489141E+04  0.10100000000E+00 0. -1.
     200001    2    1    2    0    0 -0.23308845252E+02  0.11613956241E+03 -0.18162922914E+03  0.73419888837E+03  0.70144645596E+03 0.  0.
    5000001    2    3    3    0    0  0.29737159228E+02  0.58316550659E+02  0.57639091789E+02  0.17437149651E+03  0.15099018237E+03 0.  0.
        -13    1    4    4    0    0 -0.44537872924E+02 -0.18414287509E+02  0.38769006448E+02  0.61852688981E+02  0.10566000000E+00 0. -1.
     200003    1    4    4    0    0  0.74275032152E+02  0.76730838169E+02  0.18870085341E+02  0.11251880753E+03  0.30000000000E+02 0. -1.
     200000    1    3    3    0    0 -0.53046004480E+02  0.57823011752E+02 -0.23926832092E+03  0.55982739186E+03  0.50000000000E+03 0.  1.
    -200001    1    1    2    0    0  0.23308845252E+02 -0.11613956241E+03 -0.14965026495E+04  0.16563670729E+04  0.70000000000E+03 0. -1.
<mgrwt>
<rscale>  0 0.17025507E+04</rscale>
<asrwt>0</asrwt>
<pdfrwt beam="1">  1        3 0.50888150E-01 0.17025507E+04</pdfrwt>
<pdfrwt beam="2">  1       -3 0.29062127E+00 0.17025507E+04</pdfrwt>
<totfact> 0.41203910E-01</totfact>
</mgrwt>
</event>
<event>
 8    1  0.1714417E-029  0.1416282E+04  0.7818608E-02  0.8942117E-01
         -3   -1    0    0    0  501 -0.00000000000E+00  0.00000000000E+00  0.15108775113E+04  0.15108775147E+04  0.10100000000E+00 0. -1.
          3   -1    0    0  501    0  0.00000000000E+00 -0.00000000000E+00 -0.33190206200E+03  0.33190207737E+03  0.10100000000E+00 0.  1.
     200001    2    1    2    0    0 -0.24335809892E+02  0.47507661016E+02  0.70331565486E+03  0.99478109585E+03  0.70148935044E+03 0.  0.
    5000001    2    3    3    0    0 -0.72689095867E+02  0.53586910318E+01  0.89437380108E+02  0.20045048952E+03  0.16391745960E+03 0.  0.
        -13    1    4    4    0    0 -0.18481428418E+02  0.79658180902E+02  0.50865203307E+02  0.96303006457E+02  0.10566000000E+00 0. -1.
     200003    1    4    4    0    0 -0.54207667449E+02 -0.74299489870E+02  0.38572176801E+02  0.10414748306E+03  0.30000000000E+02 0. -1.
     200000    1    3    3    0    0  0.48353285975E+02  0.42148969985E+02  0.61387827475E+03  0.79433060633E+03  0.50000000000E+03 0. -1.
    -200001    1    1    2    0    0  0.24335809892E+02 -0.47507661016E+02  0.47565979441E+03  0.84799849618E+03  0.70000000000E+03 0.  1.
<mgrwt>
<rscale>  0 0.14162816E+04</rscale>
<asrwt>0</asrwt>
<pdfrwt beam="1">  1        3 0.47414581E-01 0.14162816E+04</pdfrwt>
<pdfrwt beam="2">  1       -3 0.21583965E+00 0.14162816E+04</pdfrwt>
<totfact> 0.13215720E+00</totfact>
</mgrwt>
</event>
<event>
 8    1  0.1714417E-029  0.1583531E+04  0.7818608E-02  0.8830730E-01
          3   -1    0    0  501    0  0.00000000000E+00  0.00000000000E+00  0.39987147225E+03  0.39987148500E+03  0.10100000000E+00 0.  1.
         -3   -1    0    0    0  501 -0.00000000000E+00 -0.00000000000E+00 -0.15677358856E+04  0.15677358889E+04  0.10100000000E+00 0. -1.
     200001    2    1    2    0    0 -0.34996870043E+03  0.11979005179E+03 -0.61421905783E+03  0.10015064850E+04  0.69922989116E+03 0.  0.
    5000001    2    3    3    0    0 -0.25490804101E+02 -0.74574763135E+01 -0.22682079069E+03  0.27931865900E+03  0.16082862660E+03 0.  0.
        -13    1    4    4    0    0 -0.86002219195E+02  0.12873163858E+02 -0.16028362929E+03  0.18235392246E+03  0.10566000000E+00 0. -1.
     200003    1    4    4    0    0  0.60511415094E+02 -0.20330640172E+02 -0.66537161393E+02  0.96964736543E+02  0.30000000000E+02 0. -1.
     200000    1    3    3    0    0 -0.32447789633E+03  0.12724752811E+03 -0.38739826714E+03  0.72218782598E+03  0.50000000000E+03 0. -1.
    -200001    1    1    2    0    0  0.34996870043E+03 -0.11979005179E+03 -0.55364535555E+03  0.96610088889E+03  0.70000000000E+03 0.  1.
<mgrwt>
<rscale>  0 0.15835313E+04</rscale>
<asrwt>0</asrwt>
<pdfrwt beam="1">  1        3 0.57124498E-01 0.15835313E+04</pdfrwt>
<pdfrwt beam="2">  1       -3 0.22396227E+00 0.15835313E+04</pdfrwt>
<totfact> 0.79347179E-01</totfact>
</mgrwt>
</event>
<event>
 8    1  0.1714417E-029  0.1468557E+04  0.7818608E-02  0.8905636E-01
          3   -1    0    0  501    0  0.00000000000E+00  0.00000000000E+00  0.68245558453E+03  0.68245559200E+03  0.10100000000E+00 0.  1.
         -3   -1    0    0    0  501 -0.00000000000E+00 -0.00000000000E+00 -0.79003665056E+03  0.79003665702E+03  0.10100000000E+00 0. -1.
     200001    2    1    2    0    0 -0.20757955431E+03 -0.71192034735E+02 -0.19083215845E+02  0.73358126205E+03  0.69972831994E+03 0.  0.
    5000001    2    3    3    0    0 -0.90939456754E+02 -0.23738327132E+02  0.47142829655E+02  0.21373257654E+03  0.18607975418E+03 0.  0.
        -13    1    4    4    0    0  0.54585194256E+02  0.80851961830E+01  0.23387479013E+02  0.59932455046E+02  0.10566000000E+00 0. -1.
     200003    1    4    4    0    0 -0.14552465101E+03 -0.31823523315E+02  0.23755350643E+02  0.15380012150E+03  0.30000000000E+02 0. -1.
     200000    1    3    3    0    0 -0.11664009755E+03 -0.47453707603E+02 -0.66226045500E+02  0.51984868551E+03  0.50000000000E+03 0. -1.
    -200001    1    1    2    0    0  0.20757955431E+03  0.71192034735E+02 -0.88497850191E+02  0.73891098697E+03  0.70000000000E+03 0.  1.
<mgrwt>
<rscale>  0 0.14685570E+04</rscale>
<asrwt>0</asrwt>
<pdfrwt beam="1">  1        3 0.97493656E-01 0.14685570E+04</pdfrwt>
<pdfrwt beam="2">  1       -3 0.11286238E+00 0.14685570E+04</pdfrwt>
<totfact> 0.15528184E+00</totfact>
</mgrwt>
</event>
<event>
 8    1  0.1714417E-029  0.1504261E+04  0.7818608E-02  0.8881624E-01
          3   -1    0    0  501    0  0.00000000000E+00  0.00000000000E+00  0.10004353507E+04  0.10004353558E+04  0.10100000000E+00 0. -1.
         -3   -1    0    0    0  501 -0.00000000000E+00 -0.00000000000E+00 -0.56545415215E+03  0.56545416118E+03  0.10100000000E+00 0.  1.
     200001    2    1    2    0    0  0.17606378555E+03  0.19655341770E+03  0.29526052527E+03  0.80486811836E+03  0.70071549689E+03 0.  0.
    5000001    2    3    3    0    0  0.78170562591E+01  0.12934814720E+03  0.53386812251E+02  0.22063665451E+03  0.17040637324E+03 0.  0.
        -13    1    4    4    0    0  0.70989682051E+02  0.28032658187E+02 -0.17877112369E+02  0.78389841136E+02  0.10566000000E+00 0. -1.
     200003    1    4    4    0    0 -0.63172625792E+02  0.10131548901E+03  0.71263924620E+02  0.14224681337E+03  0.30000000000E+02 0. -1.
     200000    1    3    3    0    0  0.16824672929E+03  0.67205270506E+02  0.24187371302E+03  0.58423146385E+03  0.50000000000E+03 0. -1.
    -200001    1    1    2    0    0 -0.17606378555E+03 -0.19655341770E+03  0.13972067327E+03  0.76102139860E+03  0.70000000000E+03 0.  1.
<mgrwt>
<rscale>  0 0.15042611E+04</rscale>
<asrwt>0</asrwt>
<pdfrwt beam="1">  1        3 0.14291934E+00 0.15042611E+04</pdfrwt>
<pdfrwt beam="2">  1       -3 0.80779166E-01 0.15042611E+04</pdfrwt>
<totfact> 0.13266992E+00</totfact>
</mgrwt>
</event>
<event>
 8    1  0.1714417E-029  0.2675246E+04  0.7818608E-02  0.8343082E-01
          3   -1    0    0  501    0  0.00000000000E+00  0.00000000000E+00  0.15939971232E+04  0.15939971264E+04  0.10100000000E+00 0.  1.
         -3   -1    0    0    0  501 -0.00000000000E+00 -0.00000000000E+00 -0.11224837631E+04  0.11224837677E+04  0.10100000000E+00 0. -1.
     200001    2    1    2    0    0 -0.35603063345E+03  0.10683329366E+04  0.41562518600E+03  0.13893725475E+04  0.69965613347E+03 0.  0.
    5000001    2    3    3    0    0 -0.73078439645E+02  0.39837436020E+03  0.77300273694E+02  0.44418992791E+03  0.16518707739E+03 0.  0.
        -13    1    4    4    0    0 -0.74480399189E+02  0.54669956802E+02  0.17341189119E+02  0.94004585229E+02  0.10566000000E+00 0. -1.
     200003    1    4    4    0    0  0.14019595443E+01  0.34370440339E+03  0.59959084575E+02  0.35018534268E+03  0.30000000000E+02 0. -1.
     200000    1    3    3    0    0 -0.28295219380E+03  0.66995857643E+03  0.33832491231E+03  0.94518261960E+03  0.50000000000E+03 0.  1.
    -200001    1    1    2    0    0  0.35603063345E+03 -0.10683329366E+04  0.55888174016E+02  0.13271083465E+04  0.70000000000E+03 0. -1.
<mgrwt>
<rscale>  0 0.26752465E+04</rscale>
<asrwt>0</asrwt>
<pdfrwt beam="1">  1        3 0.22771388E+00 0.26752465E+04</pdfrwt>
<pdfrwt beam="2">  1       -3 0.16035482E+00 0.26752465E+04</pdfrwt>
<totfact> 0.62333239E-02</totfact>
</mgrwt>
</event>
<event>
 8    1  0.1714417E-029  0.1540686E+04  0.7818608E-02  0.8857839E-01
         -3   -1    0    0    0  501 -0.00000000000E+00  0.00000000000E+00  0.36112500885E+03  0.36112502297E+03  0.10100000000E+00 0. -1.
          3   -1    0    0  501    0  0.00000000000E+00 -0.00000000000E+00 -0.16432767024E+04  0.16432767055E+04  0.10100000000E+00 0.  1.
     200001    2    1    2    0    0  0.31670456964E+03 -0.25463942483E+02 -0.70247256057E+03  0.10416047125E+04  0.70037310194E+03 0.  0.
    5000001    2    3    3    0    0  0.18165577622E+03 -0.32198123470E+02 -0.29517652271E+03  0.38268621354E+03  0.15900949118E+03 0.  0.
        -13    1    4    4    0    0  0.16933327987E+03 -0.78020118886E+02 -0.21178237519E+03  0.28215719772E+03  0.10566000000E+00 0. -1.
     200003    1    4    4    0    0  0.12322496354E+02  0.45821995417E+02 -0.83394147519E+02  0.10052901582E+03  0.30000000000E+02 0. -1.
     200000    1    3    3    0    0  0.13504879342E+03  0.67341809864E+01 -0.40729603787E+03  0.65891849895E+03  0.50000000000E+03 0.  1.
    -200001    1    1    2    0    0 -0.31670456964E+03  0.25463942483E+02 -0.57967913300E+03  0.96279701601E+03  0.70000000000E+03 0.  1.
<mgrwt>
<rscale>  0 0.15406860E+04</rscale>
<asrwt>0</asrwt>
<pdfrwt beam="1">  1        3 0.23475381E+00 0.15406860E+04</pdfrwt>
<pdfrwt beam="2">  1       -3 0.51589289E-01 0.15406860E+04</pdfrwt>
<totfact> 0.85608567E-01</totfact>
</mgrwt>
</event>
<event>
 8    1  0.1714417E-029  0.1554854E+04  0.7818608E-02  0.8848773E-01
         -3   -1    0    0    0  501 -0.00000000000E+00  0.00000000000E+00  0.32021442565E+03  0.32021444158E+03  0.10100000000E+00 0. -1.
          3   -1    0    0  501    0  0.00000000000E+00 -0.00000000000E+00 -0.18874629773E+04  0.18874629800E+04  0.10100000000E+00 0.  1.
     200001    2    1    2    0    0  0.10294081599E+03  0.27145967998E+03 -0.53919085890E+03  0.93049701574E+03  0.70057886389E+03 0.  0.
    5000001    2    3    3    0    0 -0.93329717227E+02  0.36592821090E+02 -0.11299805807E+03  0.20570403351E+03  0.13962849853E+03 0.  0.
        -13    1    4    4    0    0 -0.12411201504E+03  0.21944978933E+02 -0.89432539532E+02  0.15454308353E+03  0.10566000000E+00 0. -1.
     200003    1    4    4    0    0  0.30782297809E+02  0.14647842157E+02 -0.23565518538E+02  0.51160949974E+02  0.30000000000E+02 0. -1.
     200000    1    3    3    0    0  0.19627053321E+03  0.23486685889E+03 -0.42619280083E+03  0.72479298223E+03  0.50000000000E+03 0. -1.
    -200001    1    1    2    0    0 -0.10294081599E+03 -0.27145967998E+03 -0.10280576928E+04  0.12771804058E+04  0.70000000000E+03 0.  1.
<mgrwt>
<rscale>  0 0.15548542E+04</rscale>
<asrwt>0</asrwt>
<pdfrwt beam="1">  1        3 0.26963756E+00 0.15548542E+04</pdfrwt>
<pdfrwt beam="2">  1       -3 0.45744920E-01 0.15548542E+04</pdfrwt>
<totfact> 0.68962663E-01</totfact>
</mgrwt>
</event>
<event>
 8    1  0.1714417E-029  0.1466771E+04  0.7818608E-02  0.8906856E-01
          3   -1    0    0  501    0  0.00000000000E+00  0.00000000000E+00  0.15152840159E+04  0.15152840193E+04  0.10100000000E+00 0. -1.
         -3   -1    0    0    0  501 -0.00000000000E+00 -0.00000000000E+00 -0.35495278724E+03  0.35495280161E+03  0.10100000000E+00 0.  1.
     200001    2    1    2    0    0  0.79575354890E+02 -0.20087340081E+03  0.53922548170E+03  0.90979176301E+03  0.70019609516E+03 0.  0.
    5000001    2    3    3    0    0  0.11754455026E+03  0.18518471742E+02  0.18835545104E+03  0.25965006157E+03  0.13334437914E+03 0.  0.
        -13    1    4    4    0    0  0.36922211200E+02  0.65871254729E+02  0.52282416977E+02  0.91846252882E+02  0.10566000000E+00 0. -1.
     200003    1    4    4    0    0  0.80622339059E+02 -0.47352782987E+02  0.13607303406E+03  0.16780380869E+03  0.30000000000E+02 0. -1.
     200000    1    3    3    0    0 -0.37969195369E+02 -0.21939187255E+03  0.35087003066E+03  0.65014170144E+03  0.50000000000E+03 0.  1.
    -200001    1    1    2    0    0 -0.79575354890E+02  0.20087340081E+03  0.62110574697E+03  0.96044505787E+03  0.70000000000E+03 0. -1.
<mgrwt>
<rscale>  0 0.14667710E+04</rscale>
<asrwt>0</asrwt>
<pdfrwt beam="1">  1        3 0.21646915E+00 0.14667710E+04</pdfrwt>
<pdfrwt beam="2">  1       -3 0.50707541E-01 0.14667710E+04</pdfrwt>
<totfact> 0.11464081E+00</totfact>
</mgrwt>
</event>
<event>
 8    1  0.1714417E-029  0.1523509E+04  0.7818608E-02  0.8868968E-01
         -3   -1    0    0    0  501 -0.00000000000E+00  0.00000000000E+00  0.52715379702E+03  0.52715380669E+03  0.10100000000E+00 0. -1.
          3   -1    0    0  501    0  0.00000000000E+00 -0.00000000000E+00 -0.11007607403E+04  0.11007607450E+04  0.10100000000E+00 0.  1.
     200001    2    1    2    0    0 -0.85348684147E+02  0.18786313520E+03 -0.52123952969E+03  0.89625937233E+03  0.69929483032E+03 0.  0.
    5000001    2    3    3    0    0  0.11932438910E+02  0.28782796279E+02 -0.19225450678E+03  0.26936120162E+03  0.18607210726E+03 0.  0.
        -13    1    4    4    0    0 -0.23223387796E+02 -0.67861650008E+02 -0.36923399875E+02  0.80671419381E+02  0.10566000000E+00 0. -1.
     200003    1    4    4    0    0  0.35155826706E+02  0.96644446287E+02 -0.15533110691E+03  0.18868978224E+03  0.30000000000E+02 0. -1.
     200000    1    3    3    0    0 -0.97281123057E+02  0.15908033892E+03 -0.32898502291E+03  0.62689817071E+03  0.50000000000E+03 0.  1.
    -200001    1    1    2    0    0  0.85348684147E+02 -0.18786313520E+03 -0.52367413632E+02  0.73165517934E+03  0.70000000000E+03 0. -1.
<mgrwt>
<rscale>  0 0.15235094E+04</rscale>
<asrwt>0</asrwt>
<pdfrwt beam="1">  1        3 0.15725153E+00 0.15235094E+04</pdfrwt>
<pdfrwt beam="2">  1       -3 0.75307687E-01 0.15235094E+04</pdfrwt>
<totfact> 0.12082980E+00</totfact>
</mgrwt>
</event>
<event>
 8    1  0.1714417E-029  0.1893315E+04  0.7818608E-02  0.8658191E-01
          3   -1    0    0  501    0  0.00000000000E+00  0.00000000000E+00  0.10556571411E+04  0.10556571459E+04  0.10100000000E+00 0.  1.
         -3   -1    0    0    0  501 -0.00000000000E+00 -0.00000000000E+00 -0.84891230337E+03  0.84891230938E+03  0.10100000000E+00 0. -1.
     200001    2    1    2    0    0 -0.61767975711E+01  0.16148535500E+03 -0.51671109599E+03  0.88500868676E+03  0.70009595500E+03 0.  0.
    5000001    2    3    3    0    0  0.90442667741E+01  0.11901117679E+03 -0.14022860526E+03  0.25749390411E+03  0.17998219345E+03 0.  0.
        -13    1    4    4    0    0 -0.55027469564E+02  0.11416597868E+03 -0.36581047405E+02  0.13190935254E+03  0.10566000000E+00 0. -1.
     200003    1    4    4    0    0  0.64071736338E+02  0.48451981067E+01 -0.10364755786E+03  0.12558455156E+03  0.30000000000E+02 0. -1.
     200000    1    3    3    0    0 -0.15221064345E+02  0.42474178207E+02 -0.37648249073E+03  0.62751478265E+03  0.50000000000E+03 0. -1.
    -200001    1    1    2    0    0  0.61767975711E+01 -0.16148535500E+03  0.72345593370E+03  0.10195607685E+04  0.70000000000E+03 0.  1.
<mgrwt>
<rscale>  0 0.18933149E+04</rscale>
<asrwt>0</asrwt>
<pdfrwt beam="1">  1        3 0.15080816E+00 0.18933149E+04</pdfrwt>
<pdfrwt beam="2">  1       -3 0.12127319E+00 0.18933149E+04</pdfrwt>
<totfact> 0.43392565E-01</totfact>
</mgrwt>
</event>
<event>
 8    1  0.1714417E-029  0.1964440E+04  0.7818608E-02  0.8623429E-01
          3   -1    0    0  501    0  0.00000000000E+00  0.00000000000E+00  0.82217543424E+03  0.82217544045E+03  0.10100000000E+00 0. -1.
         -3   -1    0    0    0  501 -0.00000000000E+00 -0.00000000000E+00 -0.11734189723E+04  0.11734189767E+04  0.10100000000E+00 0.  1.
     200001    2    1    2    0    0 -0.42935163375E+03  0.17194152567E+02 -0.72215694691E+03  0.10943645790E+04  0.70105970607E+03 0.  0.
    5000001    2    3    3    0    0 -0.41868831064E+02  0.24375215660E+02 -0.94502064104E+02  0.20321636350E+03  0.17326020929E+03 0.  0.
        -13    1    4    4    0    0 -0.88124215142E+02  0.65226013175E+02 -0.71300272148E+02  0.13078245319E+03  0.10566000000E+00 0. -1.
     200003    1    4    4    0    0  0.46255384078E+02 -0.40850797515E+02 -0.23201791956E+02  0.72433910317E+02  0.30000000000E+02 0. -1.
     200000    1    3    3    0    0 -0.38748280269E+03 -0.71810630934E+01 -0.62765488280E+03  0.89114821548E+03  0.50000000000E+03 0.  1.
    -200001    1    1    2    0    0  0.42935163375E+03 -0.17194152567E+02  0.37091340883E+03  0.90122983813E+03  0.70000000000E+03 0. -1.
<mgrwt>
<rscale>  0 0.19644401E+04</rscale>
<asrwt>0</asrwt>
<pdfrwt beam="1">  1        3 0.11745363E+00 0.19644401E+04</pdfrwt>
<pdfrwt beam="2">  1       -3 0.16763128E+00 0.19644401E+04</pdfrwt>
<totfact> 0.35180285E-01</totfact>
</mgrwt>
</event>
<event>
 8    1  0.1714417E-029  0.1753091E+04  0.7818608E-02  0.8731651E-01
         -3   -1    0    0    0  501 -0.00000000000E+00  0.00000000000E+00  0.55396448486E+03  0.55396449406E+03  0.10100000000E+00 0.  1.
          3   -1    0    0  501    0  0.00000000000E+00 -0.00000000000E+00 -0.13869701609E+04  0.13869701646E+04  0.10100000000E+00 0. -1.
     200001    2    1    2    0    0  0.13279462927E+03 -0.50926720922E+03 -0.37454994242E+03  0.95241598728E+03  0.69987216656E+03 0.  0.
    5000001    2    3    3    0    0 -0.56573559290E+02 -0.19057972282E+03 -0.19805322751E+03  0.30544371957E+03  0.12062166693E+03 0.  0.
        -13    1    4    4    0    0 -0.15977631791E+01 -0.11921194358E+03 -0.49396496894E+02  0.12905063118E+03  0.10566000000E+00 0. -1.
     200003    1    4    4    0    0 -0.54975796111E+02 -0.71367779244E+02 -0.14865673061E+03  0.17639308838E+03  0.30000000000E+02 0. -1.
     200000    1    3    3    0    0  0.18936818856E+03 -0.31868748639E+03 -0.17649671491E+03  0.64697226772E+03  0.50000000000E+03 0. -1.
    -200001    1    1    2    0    0 -0.13279462927E+03  0.50926720922E+03 -0.45845573364E+03  0.98851867138E+03  0.70000000000E+03 0.  1.
<mgrwt>
<rscale>  0 0.17530912E+04</rscale>
<asrwt>0</asrwt>
<pdfrwt beam="1">  1        3 0.19813859E+00 0.17530912E+04</pdfrwt>
<pdfrwt beam="2">  1       -3 0.79137785E-01 0.17530912E+04</pdfrwt>
<totfact> 0.56267406E-01</totfact>
</mgrwt>
</event>
<event>
 8    1  0.1714417E-029  0.1556582E+04  0.7818608E-02  0.8847674E-01
          3   -1    0    0  501    0  0.00000000000E+00  0.00000000000E+00  0.86329915971E+03  0.86329916562E+03  0.10100000000E+00 0.  1.
         -3   -1    0    0    0  501 -0.00000000000E+00 -0.00000000000E+00 -0.70165385597E+03  0.70165386324E+03  0.10100000000E+00 0. -1.
     200001    2    1    2    0    0  0.12315467331E+03  0.23915315804E+03  0.29733698707E+03  0.80286803394E+03  0.69557637214E+03 0.  0.
    5000001    2    3    3    0    0  0.11164803744E+01  0.61926092599E+02  0.13336152105E+03  0.23436939127E+03  0.18250377748E+03 0.  0.
        -13    1    4    4    0    0 -0.23767714287E+02 -0.35588033296E+02  0.12134319974E+03  0.12866854955E+03  0.10566000000E+00 0. -1.
     200003    1    4    4    0    0  0.24884194662E+02  0.97514125895E+02  0.12018321313E+02  0.10570084172E+03  0.30000000000E+02 0. -1.
     200000    1    3    3    0    0  0.12203819293E+03  0.17722706544E+03  0.16397546602E+03  0.56849864267E+03  0.50000000000E+03 0.  1.
    -200001    1    1    2    0    0 -0.12315467331E+03 -0.23915315804E+03 -0.13569168333E+03  0.76208499492E+03  0.70000000000E+03 0. -1.
<mgrwt>
<rscale>  0 0.15565824E+04</rscale>
<asrwt>0</asrwt>
<pdfrwt beam="1">  1        3 0.12332845E+00 0.15565824E+04</pdfrwt>
<pdfrwt beam="2">  1       -3 0.10023627E+00 0.15565824E+04</pdfrwt>
<totfact> 0.11670673E+00</totfact>
</mgrwt>
</event>
<event>
 8    1  0.1714417E-029  0.1490653E+04  0.7818608E-02  0.8890692E-01
          3   -1    0    0  501    0  0.00000000000E+00  0.00000000000E+00  0.13601157794E+04  0.13601157832E+04  0.10100000000E+00 0. -1.
         -3   -1    0    0    0  501 -0.00000000000E+00 -0.00000000000E+00 -0.40842970798E+03  0.40842972047E+03  0.10100000000E+00 0.  1.
     200001    2    1    2    0    0  0.19182203514E+03 -0.16876781244E+03  0.46075887355E+03  0.87619591894E+03  0.70010162200E+03 0.  0.
    5000001    2    3    3    0    0  0.62655171048E+02 -0.12562718767E+03  0.18429669585E+03  0.28884889376E+03  0.17251246502E+03 0.  0.
        -13    1    4    4    0    0  0.77593766006E+01  0.40430085123E+02  0.57648430377E+02  0.70838918662E+02  0.10566000000E+00 0. -1.
     200003    1    4    4    0    0  0.54895794447E+02 -0.16605727280E+03  0.12664826547E+03  0.21800997510E+03  0.30000000000E+02 0. -1.
     200000    1    3    3    0    0  0.12916686409E+03 -0.43140624771E+02  0.27646217770E+03  0.58734702518E+03  0.50000000000E+03 0. -1.
    -200001    1    1    2    0    0 -0.19182203514E+03  0.16876781244E+03  0.49092719790E+03  0.89234958470E+03  0.70000000000E+03 0.  1.
<mgrwt>
<rscale>  0 0.14906532E+04</rscale>
<asrwt>0</asrwt>
<pdfrwt beam="1">  1        3 0.19430226E+00 0.14906532E+04</pdfrwt>
<pdfrwt beam="2">  1       -3 0.58347101E-01 0.14906532E+04</pdfrwt>
<totfact> 0.11744945E+00</totfact>
</mgrwt>
</event>
<event>
 8    1  0.1714417E-029  0.1422467E+04  0.7818608E-02  0.8937714E-01
         -3   -1    0    0    0  501 -0.00000000000E+00  0.00000000000E+00  0.72761096612E+03  0.72761097313E+03  0.10100000000E+00 0. -1.
          3   -1    0    0  501    0  0.00000000000E+00 -0.00000000000E+00 -0.69522475560E+03  0.69522476293E+03  0.10100000000E+00 0.  1.
     200001    2    1    2    0    0 -0.78772208798E+02 -0.94922318371E+02  0.44530576925E+02  0.71194700142E+03  0.69976442689E+03 0.  0.
    5000001    2    3    3    0    0  0.45093327032E+02  0.77945377238E+02  0.26724518139E+02  0.16830836511E+03  0.13965892711E+03 0.  0.
        -13    1    4    4    0    0  0.59567454368E+02  0.10479737045E+03  0.58054698966E+01  0.12068340862E+03  0.10566000000E+00 0. -1.
     200003    1    4    4    0    0 -0.14474127335E+02 -0.26851993208E+02  0.20919048243E+02  0.47624956491E+02  0.30000000000E+02 0.  1.
     200000    1    3    3    0    0 -0.12386553583E+03 -0.17286769561E+03  0.17806058786E+02  0.54363863630E+03  0.50000000000E+03 0. -1.
    -200001    1    1    2    0    0  0.78772208798E+02  0.94922318371E+02 -0.12144366405E+02  0.71088873464E+03  0.70000000000E+03 0.  1.
<mgrwt>
<rscale>  0 0.14224671E+04</rscale>
<asrwt>0</asrwt>
<pdfrwt beam="1">  1        3 0.99317823E-01 0.14224671E+04</pdfrwt>
<pdfrwt beam="2">  1       -3 0.10394443E+00 0.14224671E+04</pdfrwt>
<totfact> 0.18155350E+00</totfact>
</mgrwt>
</event>
<event>
 8    1  0.1714417E-029  0.2329048E+04  0.7818608E-02  0.8466555E-01
          3   -1    0    0  501    0  0.00000000000E+00  0.00000000000E+00  0.11209877510E+04  0.11209877555E+04  0.10100000000E+00 0.  1.
         -3   -1    0    0    0  501 -0.00000000000E+00 -0.00000000000E+00 -0.12097511626E+04  0.12097511669E+04  0.10100000000E+00 0. -1.
     200001    2    1    2    0    0 -0.17393138166E+03  0.69392457316E+03  0.55281361521E+03  0.11418720164E+04  0.69748503199E+03 0.  0.
    5000001    2    3    3    0    0 -0.70351858356E+02  0.10226996668E+03  0.18550117977E+03  0.27833144625E+03  0.16628041441E+03 0.  0.
        -13    1    4    4    0    0  0.10753309574E+02 -0.30378734989E+02 -0.27453213999E+01  0.32342683252E+02  0.10566000000E+00 0. -1.
     200003    1    4    4    0    0 -0.81105167929E+02  0.13264870167E+03  0.18824650117E+03  0.24598876300E+03  0.30000000000E+02 0. -1.
     200000    1    3    3    0    0 -0.10357952331E+03  0.59165460648E+03  0.36731243544E+03  0.86354057013E+03  0.50000000000E+03 0.  1.
    -200001    1    1    2    0    0  0.17393138166E+03 -0.69392457316E+03 -0.64157702687E+03  0.11888669060E+04  0.70000000000E+03 0. -1.
<mgrwt>
<rscale>  0 0.23290481E+04</rscale>
<asrwt>0</asrwt>
<pdfrwt beam="1">  1        3 0.16014111E+00 0.23290481E+04</pdfrwt>
<pdfrwt beam="2">  1       -3 0.17282160E+00 0.23290481E+04</pdfrwt>
<totfact> 0.14345825E-01</totfact>
</mgrwt>
</event>
<event>
 8    1  0.1714417E-029  0.1814780E+04  0.7818608E-02  0.8698479E-01
         -3   -1    0    0    0  501 -0.00000000000E+00  0.00000000000E+00  0.25445088602E+04  0.25445088622E+04  0.10100000000E+00 0. -1.
          3   -1    0    0  501    0  0.00000000000E+00 -0.00000000000E+00 -0.32358176635E+03  0.32358178211E+03  0.10100000000E+00 0.  1.
     200001    2    1    2    0    0  0.12275521522E+03  0.11867259143E+03  0.23905008177E+03  0.75930224387E+03  0.70017349931E+03 0.  0.
    5000001    2    3    3    0    0 -0.39871129385E+02  0.51619365305E+02  0.67665286809E+01  0.18059755914E+03  0.16827188305E+03 0.  0.
        -13    1    4    4    0    0  0.63498659962E+02  0.73832820320E+01 -0.13865070566E+01  0.63941584563E+02  0.10566000000E+00 0. -1.
     200003    1    4    4    0    0 -0.10336978935E+03  0.44236083273E+02  0.81530357375E+01  0.11665597458E+03  0.30000000000E+02 0. -1.
     200000    1    3    3    0    0  0.16262634460E+03  0.67053226124E+02  0.23228355309E+03  0.57870468473E+03  0.50000000000E+03 0.  1.
    -200001    1    1    2    0    0 -0.12275521522E+03 -0.11867259143E+03  0.19818770121E+04  0.21087884005E+04  0.70000000000E+03 0. -1.
<mgrwt>
<rscale>  0 0.18147801E+04</rscale>
<asrwt>0</asrwt>
<pdfrwt beam="1">  1        3 0.46225966E-01 0.18147801E+04</pdfrwt>
<pdfrwt beam="2">  1       -3 0.36350128E+00 0.18147801E+04</pdfrwt>
<totfact> 0.19529563E-01</totfact>
</mgrwt>
</event>
<event>
 8    1  0.1714417E-029  0.1802591E+04  0.7818608E-02  0.8704923E-01
         -3   -1    0    0    0  501 -0.00000000000E+00  0.00000000000E+00  0.42870431374E+03  0.42870432564E+03  0.10100000000E+00 0. -1.
          3   -1    0    0  501    0  0.00000000000E+00 -0.00000000000E+00 -0.18948576732E+04  0.18948576759E+04  0.10100000000E+00 0.  1.
     200001    2    1    2    0    0  0.17391218188E+03 -0.50582290176E+03 -0.47524221653E+03  0.99766338243E+03  0.69525161295E+03 0.  0.
    5000001    2    3    3    0    0  0.80198048708E+02 -0.22089349889E+03 -0.15061864329E+03  0.33031971708E+03  0.17663373097E+03 0.  0.
        -13    1    4    4    0    0  0.12910671348E+02 -0.14201962783E+03  0.29285382719E+01  0.14263536596E+03  0.10566000000E+00 0. -1.
     200003    1    4    4    0    0  0.67287377360E+02 -0.78873871064E+02 -0.15354718156E+03  0.18768435111E+03  0.30000000000E+02 0. -1.
     200000    1    3    3    0    0  0.93714133167E+02 -0.28492940287E+03 -0.32462357325E+03  0.66734366535E+03  0.50000000000E+03 0. -1.
    -200001    1    1    2    0    0 -0.17391218188E+03  0.50582290176E+03 -0.99091114292E+03  0.13258986191E+04  0.70000000000E+03 0. -1.
<mgrwt>
<rscale>  0 0.18025911E+04</rscale>
<asrwt>0</asrwt>
<pdfrwt beam="1">  1        3 0.27069395E+00 0.18025911E+04</pdfrwt>
<pdfrwt beam="2">  1       -3 0.61243475E-01 0.18025911E+04</pdfrwt>
<totfact> 0.36437065E-01</totfact>
</mgrwt>
</event>
<event>
 8    1  0.1714417E-029  0.1687537E+04  0.7818608E-02  0.8768504E-01
          3   -1    0    0  501    0  0.00000000000E+00  0.00000000000E+00  0.13537736647E+04  0.13537736685E+04  0.10100000000E+00 0. -1.
         -3   -1    0    0    0  501 -0.00000000000E+00 -0.00000000000E+00 -0.52589710289E+03  0.52589711259E+03  0.10100000000E+00 0.  1.
     200001    2    1    2    0    0 -0.68734302030E+02 -0.24339747834E+03 -0.28732408914E+02  0.74488196129E+03  0.70004060468E+03 0.  0.
    5000001    2    3    3    0    0 -0.44747612649E+02 -0.12216775538E+03 -0.60382712099E+02  0.22886476324E+03  0.17834152248E+03 0.  0.
        -13    1    4    4    0    0  0.12350029764E+02 -0.11066500941E+03  0.31770278243E+02  0.11579563587E+03  0.10566000000E+00 0. -1.
     200003    1    4    4    0    0 -0.57097642414E+02 -0.11502745965E+02 -0.92152990342E+02  0.11306912736E+03  0.30000000000E+02 0. -1.
     200000    1    3    3    0    0 -0.23986689381E+02 -0.12122972296E+03  0.31650303184E+02  0.51601719805E+03  0.50000000000E+03 0.  1.
    -200001    1    1    2    0    0  0.68734302030E+02  0.24339747834E+03  0.85660897072E+03  0.11347888198E+04  0.70000000000E+03 0. -1.
<mgrwt>
<rscale>  0 0.16875374E+04</rscale>
<asrwt>0</asrwt>
<pdfrwt beam="1">  1        3 0.19339624E+00 0.16875374E+04</pdfrwt>
<pdfrwt beam="2">  1       -3 0.75128158E-01 0.16875374E+04</pdfrwt>
<totfact> 0.68045453E-01</totfact>
</mgrwt>
</event>
<event>
 8    1  0.1714417E-029  0.1807309E+04  0.7818608E-02  0.8702422E-01
          3   -1    0    0  501    0  0.00000000000E+00  0.00000000000E+00  0.75213867281E+03  0.75213867959E+03  0.10100000000E+00 0. -1.
         -3   -1    0    0    0  501 -0.00000000000E+00 -0.00000000000E+00 -0.10856922372E+04  0.10856922419E+04  0.10100000000E+00 0.  1.
     200001    2    1    2    0    0  0.25711669642E+03  0.49624501701E+03 -0.80553393213E+02  0.90703706727E+03  0.70983045846E+03 0.  0.
    5000001    2    3    3    0    0  0.14691725557E+03  0.27479112537E+03 -0.70149817422E+02  0.34909981517E+03  0.14090720883E+03 0.  0.
        -13    1    4    4    0    0  0.18053269547E+02  0.81652924206E+02  0.37228524674E+02  0.91537395561E+02  0.10566000000E+00 0. -1.
     200003    1    4    4    0    0  0.12886398603E+03  0.19313820117E+03 -0.10737834210E+03  0.25756241961E+03  0.30000000000E+02 0. -1.
     200000    1    3    3    0    0  0.11019944085E+03  0.22145389163E+03 -0.10403575790E+02  0.55793725209E+03  0.50000000000E+03 0. -1.
    -200001    1    1    2    0    0 -0.25711669642E+03 -0.49624501701E+03 -0.25300017120E+03  0.93079385425E+03  0.70000000000E+03 0.  1.
<mgrwt>
<rscale>  0 0.18073086E+04</rscale>
<asrwt>0</asrwt>
<pdfrwt beam="1">  1        3 0.10744838E+00 0.18073086E+04</pdfrwt>
<pdfrwt beam="2">  1       -3 0.15509889E+00 0.18073086E+04</pdfrwt>
<totfact> 0.54248479E-01</totfact>
</mgrwt>
</event>
<event>
 8    1  0.1714417E-029  0.1529822E+04  0.7818608E-02  0.8864860E-01
          3   -1    0    0  501    0  0.00000000000E+00  0.00000000000E+00  0.38598562615E+03  0.38598563937E+03  0.10100000000E+00 0.  1.
         -3   -1    0    0    0  501 -0.00000000000E+00 -0.00000000000E+00 -0.15158307556E+04  0.15158307590E+04  0.10100000000E+00 0. -1.
     200001    2    1    2    0    0  0.20655842841E+03  0.17512180646E+03 -0.43554534314E+03  0.87937509209E+03  0.71432959844E+03 0.  0.
    5000001    2    3    3    0    0  0.10129426218E+03  0.10252266670E+03 -0.42432720914E+02  0.23061572719E+03  0.17496186181E+03 0.  0.
        -13    1    4    4    0    0  0.12226881265E+03  0.13256528722E+02 -0.52276899695E+02  0.13363488881E+03  0.10566000000E+00 0. -1.
     200003    1    4    4    0    0 -0.20974550477E+02  0.89266137979E+02  0.98441787808E+01  0.96980838382E+02  0.30000000000E+02 0. -1.
     200000    1    3    3    0    0  0.10526416623E+03  0.72599139761E+02 -0.39311262223E+03  0.64875936490E+03  0.50000000000E+03 0.  1.
    -200001    1    1    2    0    0 -0.20655842841E+03 -0.17512180646E+03 -0.69429978631E+03  0.10224413062E+04  0.70000000000E+03 0. -1.
<mgrwt>
<rscale>  0 0.15298221E+04</rscale>
<asrwt>0</asrwt>
<pdfrwt beam="1">  1        3 0.55140806E-01 0.15298221E+04</pdfrwt>
<pdfrwt beam="2">  1       -3 0.21654725E+00 0.15298221E+04</pdfrwt>
<totfact> 0.95123797E-01</totfact>
</mgrwt>
</event>
<event>
 8    1  0.1714417E-029  0.2009610E+04  0.7818608E-02  0.8602141E-01
          3   -1    0    0  501    0  0.00000000000E+00  0.00000000000E+00  0.53488755509E+03  0.53488756463E+03  0.10100000000E+00 0.  1.
         -3   -1    0    0    0  501 -0.00000000000E+00 -0.00000000000E+00 -0.18875608492E+04  0.18875608519E+04  0.10100000000E+00 0. -1.
     200001    2    1    2    0    0 -0.62805555827E+03 -0.31922745023E+03 -0.86012520220E+03  0.13138621222E+04  0.70004168687E+03 0.  0.
    5000001    2    3    3    0    0 -0.25363608199E+03 -0.40188795742E+02 -0.11828070119E+03  0.30471110345E+03  0.11363155766E+03 0.  0.
        -13    1    4    4    0    0 -0.15428284636E+03 -0.36193749239E+02 -0.16558388314E+02  0.15933416317E+03  0.10566000000E+00 0. -1.
     200003    1    4    4    0    0 -0.99353235633E+02 -0.39950465034E+01 -0.10172231288E+03  0.14537694028E+03  0.30000000000E+02 0. -1.
     200000    1    3    3    0    0 -0.37441947627E+03 -0.27903865449E+03 -0.74184450101E+03  0.10091510187E+04  0.50000000000E+03 0. -1.
    -200001    1    1    2    0    0  0.62805555827E+03  0.31922745023E+03 -0.49254809195E+03  0.11085862944E+04  0.70000000000E+03 0. -1.
<mgrwt>
<rscale>  0 0.20096097E+04</rscale>
<asrwt>0</asrwt>
<pdfrwt beam="1">  1        3 0.76412510E-01 0.20096097E+04</pdfrwt>
<pdfrwt beam="2">  1       -3 0.26965155E+00 0.20096097E+04</pdfrwt>
<totfact> 0.22197770E-01</totfact>
</mgrwt>
</event>
<event>
 8    1  0.1714417E-029  0.2131745E+04  0.7818608E-02  0.8547387E-01
          3   -1    0    0  501    0  0.00000000000E+00  0.00000000000E+00  0.56071660511E+03  0.56071661421E+03  0.10100000000E+00 0.  1.
         -3   -1    0    0    0  501 -0.00000000000E+00 -0.00000000000E+00 -0.20261297384E+04  0.20261297409E+04  0.10100000000E+00 0. -1.
     200001    2    1    2    0    0  0.64899904318E+03 -0.60076739863E+02 -0.13035296505E+04  0.16167869576E+04  0.70000110282E+03 0.  0.
    5000001    2    3    3    0    0  0.12131421822E+03  0.64286007993E+01 -0.38104083144E+03  0.44041122849E+03  0.18442198489E+03 0.  0.
        -13    1    4    4    0    0 -0.13170293723E+02  0.68221775904E+02 -0.10884017137E+03  0.12912730700E+03  0.10566000000E+00 0. -1.
     200003    1    4    4    0    0  0.13448451194E+03 -0.61793175105E+02 -0.27220066007E+03  0.31128392150E+03  0.30000000000E+02 0. -1.
     200000    1    3    3    0    0  0.52768482496E+03 -0.66505340662E+02 -0.92248881903E+03  0.11763757291E+04  0.50000000000E+03 0. -1.
    -200001    1    1    2    0    0 -0.64899904318E+03  0.60076739863E+02 -0.16188348283E+03  0.97005939753E+03  0.70000000000E+03 0.  1.
<mgrwt>
<rscale>  0 0.21317454E+04</rscale>
<asrwt>0</asrwt>
<pdfrwt beam="1">  1        3 0.80102374E-01 0.21317454E+04</pdfrwt>
<pdfrwt beam="2">  1       -3 0.28944710E+00 0.21317454E+04</pdfrwt>
<totfact> 0.15288527E-01</totfact>
</mgrwt>
</event>
<event>
 8    1  0.1714417E-029  0.1564145E+04  0.7818608E-02  0.8842883E-01
         -3   -1    0    0    0  501 -0.00000000000E+00  0.00000000000E+00  0.10444892801E+04  0.10444892850E+04  0.10100000000E+00 0. -1.
          3   -1    0    0  501    0  0.00000000000E+00 -0.00000000000E+00 -0.58558491005E+03  0.58558491876E+03  0.10100000000E+00 0.  1.
     200001    2    1    2    0    0  0.14824988568E+03  0.14257876234E+03  0.52453291001E+03  0.89753489606E+03  0.69866113667E+03 0.  0.
    5000001    2    3    3    0    0  0.77577759019E+02 -0.44414160800E+01  0.20969610803E+03  0.28456532567E+03  0.17597423669E+03 0.  0.
        -13    1    4    4    0    0  0.12821165376E+03 -0.15002019124E+01  0.11088356996E+03  0.16951594620E+03  0.10566000000E+00 0. -1.
     200003    1    4    4    0    0 -0.50633894736E+02 -0.29412141677E+01  0.98812538065E+02  0.11504937947E+03  0.30000000000E+02 0. -1.
     200000    1    3    3    0    0  0.70672126658E+02  0.14702017842E+03  0.31483680198E+03  0.61296957039E+03  0.50000000000E+03 0. -1.
    -200001    1    1    2    0    0 -0.14824988568E+03 -0.14257876234E+03 -0.65628539928E+02  0.73253930770E+03  0.70000000000E+03 0.  1.
<mgrwt>
<rscale>  0 0.15641447E+04</rscale>
<asrwt>0</asrwt>
<pdfrwt beam="1">  1        3 0.83654988E-01 0.15641447E+04</pdfrwt>
<pdfrwt beam="2">  1       -3 0.14921276E+00 0.15641447E+04</pdfrwt>
<totfact> 0.10902063E+00</totfact>
</mgrwt>
</event>
<event>
 8    1  0.1714417E-029  0.1444772E+04  0.7818608E-02  0.8922033E-01
          3   -1    0    0  501    0  0.00000000000E+00  0.00000000000E+00  0.12820378631E+04  0.12820378671E+04  0.10100000000E+00 0. -1.
         -3   -1    0    0    0  501 -0.00000000000E+00 -0.00000000000E+00 -0.40704085068E+03  0.40704086321E+03  0.10100000000E+00 0.  1.
     200001    2    1    2    0    0 -0.79198335361E+02  0.88957856691E+01  0.62568860857E+03  0.94174601221E+03  0.69931953018E+03 0.  0.
    5000001    2    3    3    0    0  0.23640375011E+02 -0.10093241181E+03  0.28780369684E+02  0.14869022668E+03  0.10263651760E+03 0.  0.
        -13    1    4    4    0    0  0.37448360881E+02 -0.10421306814E+03  0.32207725655E+02  0.11532602508E+03  0.10566000000E+00 0. -1.
     200003    1    4    4    0    0 -0.13807985870E+02  0.32806563261E+01 -0.34273559706E+01  0.33364201604E+02  0.30000000000E+02 0.  1.
     200000    1    3    3    0    0 -0.10283871037E+03  0.10982819748E+03  0.59690823889E+03  0.79305578553E+03  0.50000000000E+03 0. -1.
    -200001    1    1    2    0    0  0.79198335361E+02 -0.88957856691E+01  0.24930840390E+03  0.74733271812E+03  0.70000000000E+03 0.  1.
<mgrwt>
<rscale>  0 0.14447724E+04</rscale>
<asrwt>0</asrwt>
<pdfrwt beam="1">  1        3 0.18314827E+00 0.14447724E+04</pdfrwt>
<pdfrwt beam="2">  1       -3 0.58148695E-01 0.14447724E+04</pdfrwt>
<totfact> 0.14026688E+00</totfact>
</mgrwt>
</event>
<event>
 8    1  0.1714417E-029  0.1723731E+04  0.7818608E-02  0.8747944E-01
         -3   -1    0    0    0  501 -0.00000000000E+00  0.00000000000E+00  0.60852389266E+03  0.60852390105E+03  0.10100000000E+00 0. -1.
          3   -1    0    0  501    0  0.00000000000E+00 -0.00000000000E+00 -0.12206782833E+04  0.12206782875E+04  0.10100000000E+00 0.  1.
     200001    2    1    2    0    0  0.15303661524E+02 -0.16297047302E+03  0.19765120342E+03  0.74634546795E+03  0.70083663017E+03 0.  0.
    5000001    2    3    3    0    0  0.41102133400E+02  0.70614638161E+01 -0.65090468344E+02  0.15591375575E+03  0.13539970650E+03 0.  0.
        -13    1    4    4    0    0  0.20709383171E+02 -0.61045833242E+02 -0.27594613123E+02  0.70120939419E+02  0.10566000000E+00 0. -1.
     200003    1    4    4    0    0  0.20392750230E+02  0.68107297058E+02 -0.37495855221E+02  0.85792816327E+02  0.30000000000E+02 0. -1.
     200000    1    3    3    0    0 -0.25798471876E+02 -0.17003193684E+03  0.26274167176E+03  0.59043171220E+03  0.50000000000E+03 0. -1.
    -200001    1    1    2    0    0 -0.15303661524E+02  0.16297047302E+03 -0.80980559405E+03  0.10828567206E+04  0.70000000000E+03 0.  1.
<mgrwt>
<rscale>  0 0.17237307E+04</rscale>
<asrwt>0</asrwt>
<pdfrwt beam="1">  1        3 0.17438261E+00 0.17237307E+04</pdfrwt>
<pdfrwt beam="2">  1       -3 0.86931986E-01 0.17237307E+04</pdfrwt>
<totfact> 0.65399620E-01</totfact>
</mgrwt>
</event>
<event>
 8    1  0.1714417E-029  0.1495081E+04  0.7818608E-02  0.8887730E-01
          3   -1    0    0  501    0  0.00000000000E+00  0.00000000000E+00  0.29718396570E+04  0.29718396587E+04  0.10100000000E+00 0.  1.
         -3   -1    0    0    0  501 -0.00000000000E+00 -0.00000000000E+00 -0.18803742434E+03  0.18803745146E+03  0.10100000000E+00 0. -1.
     200001    2    1    2    0    0 -0.12140426568E+03  0.18805583477E+03  0.16785270791E+04  0.18325726396E+04  0.70054645181E+03 0.  0.
    5000001    2    3    3    0    0 -0.57230797232E+02 -0.23339370807E+02  0.42118612487E+03  0.46154658500E+03  0.17834631469E+03 0.  0.
        -13    1    4    4    0    0  0.16440793007E+02  0.32062030108E+02  0.31775129951E+03  0.31978769981E+03  0.10566000000E+00 0. -1.
     200003    1    4    4    0    0 -0.73671590240E+02 -0.55401400915E+02  0.10343482536E+03  0.14175888518E+03  0.30000000000E+02 0. -1.
     200000    1    3    3    0    0 -0.64173468449E+02  0.21139520558E+03  0.12573409543E+04  0.13710260546E+04  0.50000000000E+03 0. -1.
    -200001    1    1    2    0    0  0.12140426568E+03 -0.18805583477E+03  0.11052751535E+04  0.13273044706E+04  0.70000000000E+03 0. -1.
<mgrwt>
<rscale>  0 0.14950814E+04</rscale>
<asrwt>0</asrwt>
<pdfrwt beam="1">  1        3 0.42454854E+00 0.14950814E+04</pdfrwt>
<pdfrwt beam="2">  1       -3 0.26862490E-01 0.14950814E+04</pdfrwt>
<totfact> 0.28403931E-01</totfact>
</mgrwt>
</event>
<event>
 8    1  0.1714417E-029  0.1473095E+04  0.7818608E-02  0.8902544E-01
         -3   -1    0    0    0  501 -0.00000000000E+00  0.00000000000E+00  0.12206041074E+04  0.12206041115E+04  0.10100000000E+00 0.  1.
          3   -1    0    0  501    0  0.00000000000E+00 -0.00000000000E+00 -0.44445388509E+03  0.44445389656E+03  0.10100000000E+00 0. -1.
     200001    2    1    2    0    0  0.13873731199E+03  0.14681880821E+03  0.26518137943E+03  0.77517432888E+03  0.69983588932E+03 0.  0.
    5000001    2    3    3    0    0  0.60394633566E+02 -0.13780198333E+02  0.91363005196E+02  0.21647723440E+03  0.18621973221E+03 0.  0.
        -13    1    4    4    0    0  0.63074474546E+02  0.93212519021E+00  0.14221129920E+03  0.15557417196E+03  0.10566000000E+00 0. -1.
     200003    1    4    4    0    0 -0.26798409802E+01 -0.14712323523E+02 -0.50848294005E+02  0.60903062438E+02  0.30000000000E+02 0. -1.
     200000    1    3    3    0    0  0.78342678429E+02  0.16059900654E+03  0.17381837423E+03  0.55869709449E+03  0.50000000000E+03 0. -1.
    -200001    1    1    2    0    0 -0.13873731199E+03 -0.14681880821E+03  0.51096884284E+03  0.88988367922E+03  0.70000000000E+03 0.  1.
<mgrwt>
<rscale>  0 0.14730950E+04</rscale>
<asrwt>0</asrwt>
<pdfrwt beam="1">  1        3 0.63493414E-01 0.14730950E+04</pdfrwt>
<pdfrwt beam="2">  1       -3 0.17437201E+00 0.14730950E+04</pdfrwt>
<totfact> 0.13249023E+00</totfact>
</mgrwt>
</event>
<event>
 8    1  0.1714417E-029  0.1850840E+04  0.7818608E-02  0.8679721E-01
          3   -1    0    0  501    0  0.00000000000E+00  0.00000000000E+00  0.33350574426E+03  0.33350575956E+03  0.10100000000E+00 0.  1.
         -3   -1    0    0    0  501 -0.00000000000E+00 -0.00000000000E+00 -0.25678790852E+04  0.25678790872E+04  0.10100000000E+00 0. -1.
     200001    2    1    2    0    0  0.54353743705E+03  0.11434980025E+03 -0.14937240429E+04  0.17407513107E+04  0.70035333016E+03 0.  0.
    5000001    2    3    3    0    0  0.20427779402E+03  0.16381325283E+03 -0.62219661519E+03  0.67909986329E+03  0.74052666643E+02 0.  0.
        -13    1    4    4    0    0  0.51009832971E+02  0.47086423356E+02 -0.10038066735E+03  0.12204681014E+03  0.10566000000E+00 0. -1.
     200003    1    4    4    0    0  0.15326796105E+03  0.11672682947E+03 -0.52181594784E+03  0.55705305315E+03  0.30000000000E+02 0. -1.
     200000    1    3    3    0    0  0.33925964303E+03 -0.49463452580E+02 -0.87152742772E+03  0.10616514474E+04  0.50000000000E+03 0. -1.
    -200001    1    1    2    0    0 -0.54353743705E+03 -0.11434980025E+03 -0.74064929800E+03  0.11606335360E+04  0.70000000000E+03 0.  1.
<mgrwt>
<rscale>  0 0.18508403E+04</rscale>
<asrwt>0</asrwt>
<pdfrwt beam="1">  1        3 0.47643680E-01 0.18508403E+04</pdfrwt>
<pdfrwt beam="2">  1       -3 0.36683986E+00 0.18508403E+04</pdfrwt>
<totfact> 0.17547039E-01</totfact>
</mgrwt>
</event>
<event>
 8    1  0.1714417E-029  0.1804651E+04  0.7818608E-02  0.8703830E-01
          3   -1    0    0  501    0  0.00000000000E+00  0.00000000000E+00  0.11798633510E+04  0.11798633553E+04  0.10100000000E+00 0.  1.
         -3   -1    0    0    0  501 -0.00000000000E+00 -0.00000000000E+00 -0.69007283986E+03  0.69007284725E+03  0.10100000000E+00 0. -1.
     200001    2    1    2    0    0  0.40981487116E+03 -0.17776737049E+03 -0.12181988868E+03  0.83861823619E+03  0.69920740425E+03 0.  0.
    5000001    2    3    3    0    0  0.29117248211E+02 -0.57643390811E+02 -0.40008298181E+02  0.19359607615E+03  0.17806797053E+03 0.  0.
        -13    1    4    4    0    0  0.58941892397E+00 -0.76017156710E+01 -0.10290426906E+03  0.10318640051E+03  0.10566000000E+00 0. -1.
     200003    1    4    4    0    0  0.28527829287E+02 -0.50041675140E+02  0.62895970881E+02  0.90409675631E+02  0.30000000000E+02 0. -1.
     200000    1    3    3    0    0  0.38069762295E+03 -0.12012397968E+03 -0.81811590503E+02  0.64502216005E+03  0.50000000000E+03 0. -1.
    -200001    1    1    2    0    0 -0.40981487116E+03  0.17776737049E+03  0.61161039984E+03  0.10313179664E+04  0.70000000000E+03 0.  1.
<mgrwt>
<rscale>  0 0.18046514E+04</rscale>
<asrwt>0</asrwt>
<pdfrwt beam="1">  1        3 0.16855191E+00 0.18046514E+04</pdfrwt>
<pdfrwt beam="2">  1       -3 0.98581836E-01 0.18046514E+04</pdfrwt>
<totfact> 0.53380505E-01</totfact>
</mgrwt>
</event>
<event>
 8    1  0.1714417E-029  0.1491127E+04  0.7818608E-02  0.8890375E-01
         -3   -1    0    0    0  501 -0.00000000000E+00  0.00000000000E+00  0.51327392970E+03  0.51327393963E+03  0.10100000000E+00 0.  1.
          3   -1    0    0  501    0  0.00000000000E+00 -0.00000000000E+00 -0.10829788081E+04  0.10829788128E+04  0.10100000000E+00 0. -1.
     200001    2    1    2    0    0 -0.12414924710E+03  0.16395232016E+03 -0.41706069433E+03  0.85087120866E+03  0.71256493889E+03 0.  0.
    5000001    2    3    3    0    0 -0.53596290295E+02  0.38758109499E+00 -0.12342339426E+03  0.24427908246E+03  0.20387796184E+03 0.  0.
        -13    1    4    4    0    0  0.13316312716E+02 -0.12850231511E+02  0.51189166270E+02  0.54431558325E+02  0.10566000000E+00 0. -1.
     200003    1    4    4    0    0 -0.66912603011E+02  0.13237812606E+02 -0.17461256053E+03  0.18984752414E+03  0.30000000000E+02 0. -1.
     200000    1    3    3    0    0 -0.70552956803E+02  0.16356473907E+03 -0.29363730007E+03  0.60659212620E+03  0.50000000000E+03 0. -1.
    -200001    1    1    2    0    0  0.12414924710E+03 -0.16395232016E+03 -0.15264418404E+03  0.74538154375E+03  0.70000000000E+03 0.  1.
<mgrwt>
<rscale>  0 0.14911268E+04</rscale>
<asrwt>0</asrwt>
<pdfrwt beam="1">  1        3 0.15471126E+00 0.14911268E+04</pdfrwt>
<pdfrwt beam="2">  1       -3 0.73324848E-01 0.14911268E+04</pdfrwt>
<totfact> 0.13405726E+00</totfact>
</mgrwt>
</event>
<event>
 8    1  0.1714417E-029  0.2762856E+04  0.7818608E-02  0.8314894E-01
         -3   -1    0    0    0  501 -0.00000000000E+00  0.00000000000E+00  0.33587424480E+04  0.33587424496E+04  0.10100000000E+00 0. -1.
          3   -1    0    0  501    0  0.00000000000E+00 -0.00000000000E+00 -0.56817201468E+03  0.56817202366E+03  0.10100000000E+00 0.  1.
     200001    2    1    2    0    0 -0.71599544220E+03 -0.87815456209E+03  0.19140608502E+04  0.23325262026E+04  0.70231377549E+03 0.  0.
    5000001    2    3    3    0    0 -0.64080130374E+02 -0.30247689372E+02  0.13738617157E+03  0.19933316107E+03  0.12584738036E+03 0.  0.
        -13    1    4    4    0    0 -0.60508043788E+02 -0.52975958336E+02  0.30591084781E+02  0.86043600325E+02  0.10566000000E+00 0. -1.
     200003    1    4    4    0    0 -0.35720865857E+01  0.22728268964E+02  0.10679508679E+03  0.11328956075E+03  0.30000000000E+02 0. -1.
     200000    1    3    3    0    0 -0.65191531183E+03 -0.84790687272E+03  0.17766746787E+04  0.21331930415E+04  0.50000000000E+03 0. -1.
    -200001    1    1    2    0    0  0.71599544220E+03  0.87815456209E+03  0.87650958313E+03  0.15943882706E+04  0.70000000000E+03 0.  1.
<mgrwt>
<rscale>  0 0.27628561E+04</rscale>
<asrwt>0</asrwt>
<pdfrwt beam="1">  1        3 0.81167433E-01 0.27628561E+04</pdfrwt>
<pdfrwt beam="2">  1       -3 0.47982034E+00 0.27628561E+04</pdfrwt>
<totfact> 0.12540636E-02</totfact>
</mgrwt>
</event>
<event>
 8    1  0.1714417E-029  0.1858250E+04  0.7818608E-02  0.8675922E-01
         -3   -1    0    0    0  501 -0.00000000000E+00  0.00000000000E+00  0.41909318276E+03  0.41909319493E+03  0.10100000000E+00 0.  1.
          3   -1    0    0  501    0  0.00000000000E+00 -0.00000000000E+00 -0.20598592291E+04  0.20598592316E+04  0.10100000000E+00 0. -1.
     200001    2    1    2    0    0  0.45264798385E+03  0.76404608764E+02 -0.13666273147E+04  0.15981119723E+04  0.68961133779E+03 0.  0.
    5000001    2    3    3    0    0  0.10752368248E+03 -0.68810224724E+02 -0.42640222430E+03  0.46929783708E+03  0.14874613837E+03 0.  0.
        -13    1    4    4    0    0  0.97626324304E+02  0.13499291515E+02 -0.15266574567E+03  0.18171398167E+03  0.10566000000E+00 0. -1.
     200003    1    4    4    0    0  0.98973581785E+01 -0.82309516239E+02 -0.27373647863E+03  0.28758385541E+03  0.30000000000E+02 0. -1.
     200000    1    3    3    0    0  0.34512430137E+03  0.14521483349E+03 -0.94022509044E+03  0.11288141353E+04  0.50000000000E+03 0.  1.
    -200001    1    1    2    0    0 -0.45264798385E+03 -0.76404608764E+02 -0.27413873159E+03  0.88084045416E+03  0.70000000000E+03 0.  1.
<mgrwt>
<rscale>  0 0.18582497E+04</rscale>
<asrwt>0</asrwt>
<pdfrwt beam="1">  1        3 0.29426560E+00 0.18582497E+04</pdfrwt>
<pdfrwt beam="2">  1       -3 0.59870457E-01 0.18582497E+04</pdfrwt>
<totfact> 0.28118894E-01</totfact>
</mgrwt>
</event>
<event>
 8    1  0.1714417E-029  0.1411241E+04  0.7818608E-02  0.8945722E-01
         -3   -1    0    0    0  501 -0.00000000000E+00  0.00000000000E+00  0.74938981315E+03  0.74938981996E+03  0.10100000000E+00 0.  1.
          3   -1    0    0  501    0  0.00000000000E+00 -0.00000000000E+00 -0.66440746602E+03  0.66440747370E+03  0.10100000000E+00 0. -1.
     200001    2    1    2    0    0 -0.63283272420E+02  0.17118733614E+02 -0.19651952301E+02  0.70299059685E+03  0.69965116767E+03 0.  0.
    5000001    2    3    3    0    0  0.15762604510E+02  0.45056517734E+02  0.87263523136E+01  0.19521692816E+03  0.18908979434E+03 0.  0.
        -13    1    4    4    0    0 -0.23099838899E+02  0.16785234486E+02 -0.82794627444E+02  0.87580295452E+02  0.10566000000E+00 0. -1.
     200003    1    4    4    0    0  0.38862443409E+02  0.28271283247E+02  0.91520979757E+02  0.10763663270E+03  0.30000000000E+02 0. -1.
     200000    1    3    3    0    0 -0.79045876930E+02 -0.27937784120E+02 -0.28378304615E+02  0.50777366869E+03  0.50000000000E+03 0. -1.
    -200001    1    1    2    0    0  0.63283272420E+02 -0.17118733614E+02  0.10463429943E+03  0.71080669681E+03  0.70000000000E+03 0.  1.
<mgrwt>
<rscale>  0 0.14112409E+04</rscale>
<asrwt>0</asrwt>
<pdfrwt beam="1">  1        3 0.94915353E-01 0.14112409E+04</pdfrwt>
<pdfrwt beam="2">  1       -3 0.10705569E+00 0.14112409E+04</pdfrwt>
<totfact> 0.18820156E+00</totfact>
</mgrwt>
</event>
<event>
 8    1  0.1714417E-029  0.1670384E+04  0.7818608E-02  0.8778438E-01
         -3   -1    0    0    0  501 -0.00000000000E+00  0.00000000000E+00  0.91052440968E+03  0.91052441528E+03  0.10100000000E+00 0. -1.
          3   -1    0    0  501    0  0.00000000000E+00 -0.00000000000E+00 -0.76609261312E+03  0.76609261978E+03  0.10100000000E+00 0.  1.
     200001    2    1    2    0    0  0.33477294676E+03  0.11604537648E+03 -0.21521373797E+03  0.81355019768E+03  0.70000536844E+03 0.  0.
    5000001    2    3    3    0    0  0.24802025758E+02 -0.65192902858E+01  0.44919144156E+02  0.15874245049E+03  0.15007929387E+03 0.  0.
        -13    1    4    4    0    0  0.60715043849E+02 -0.53228182848E+02  0.36988054193E+01  0.80828511829E+02  0.10566000000E+00 0. -1.
     200003    1    4    4    0    0 -0.35913018090E+02  0.46708892562E+02  0.41220338736E+02  0.77913938665E+02  0.30000000000E+02 0. -1.
     200000    1    3    3    0    0  0.30997092101E+03  0.12256466677E+03 -0.26013288213E+03  0.65480774718E+03  0.50000000000E+03 0.  1.
    -200001    1    1    2    0    0 -0.33477294676E+03 -0.11604537648E+03  0.35964553452E+03  0.86306683738E+03  0.70000000000E+03 0. -1.
<mgrwt>
<rscale>  0 0.16703844E+04</rscale>
<asrwt>0</asrwt>
<pdfrwt beam="1">  1        3 0.10944180E+00 0.16703844E+04</pdfrwt>
<pdfrwt beam="2">  1       -3 0.13007492E+00 0.16703844E+04</pdfrwt>
<totfact> 0.82304140E-01</totfact>
</mgrwt>
</event>
<event>
 8    1  0.1714417E-029  0.2477008E+04  0.7818608E-02  0.8411223E-01
         -3   -1    0    0    0  501 -0.00000000000E+00  0.00000000000E+00  0.18881584894E+04  0.18881584921E+04  0.10100000000E+00 0. -1.
          3   -1    0    0  501    0  0.00000000000E+00 -0.00000000000E+00 -0.81237470166E+03  0.81237470794E+03  0.10100000000E+00 0.  1.
     200001    2    1    2    0    0 -0.20599588576E+03 -0.91848497592E+03  0.10494673840E+03  0.11778469118E+04  0.70018609945E+03 0.  0.
    5000001    2    3    3    0    0 -0.93910315041E+02 -0.25719796294E+03  0.22518940811E+02  0.33721736767E+03  0.19554669762E+03 0.  0.
        -13    1    4    4    0    0 -0.10976905168E+03 -0.78556192589E+02 -0.46434704272E+02  0.14274632404E+03  0.10566000000E+00 0. -1.
     200003    1    4    4    0    0  0.15858736639E+02 -0.17864177035E+03  0.68953645083E+02  0.19447104364E+03  0.30000000000E+02 0. -1.
     200000    1    3    3    0    0 -0.11208557072E+03 -0.66128701297E+03  0.82427797592E+02  0.84062954416E+03  0.50000000000E+03 0. -1.
    -200001    1    1    2    0    0  0.20599588576E+03  0.91848497592E+03  0.97083704935E+03  0.15226862882E+04  0.70000000000E+03 0.  1.
<mgrwt>
<rscale>  0 0.24770080E+04</rscale>
<asrwt>0</asrwt>
<pdfrwt beam="1">  1        3 0.11605353E+00 0.24770080E+04</pdfrwt>
<pdfrwt beam="2">  1       -3 0.26973693E+00 0.24770080E+04</pdfrwt>
<totfact> 0.81245561E-02</totfact>
</mgrwt>
</event>
<event>
 8    1  0.1714417E-029  0.2161079E+04  0.7818608E-02  0.8534805E-01
          3   -1    0    0  501    0  0.00000000000E+00  0.00000000000E+00  0.15078136545E+04  0.15078136579E+04  0.10100000000E+00 0. -1.
         -3   -1    0    0    0  501 -0.00000000000E+00 -0.00000000000E+00 -0.77434317748E+03  0.77434318406E+03  0.10100000000E+00 0.  1.
     200001    2    1    2    0    0  0.18802153750E+03 -0.60609206167E+03 -0.18577772703E+03  0.96393191940E+03  0.70139268288E+03 0.  0.
    5000001    2    3    3    0    0  0.11938531052E+02 -0.19893877100E+03 -0.35467586138E+02  0.27882450759E+03  0.19174460419E+03 0.  0.
        -13    1    4    4    0    0  0.46067471880E+02 -0.21653720783E+03 -0.51925736585E+02  0.22739144141E+03  0.10566000000E+00 0. -1.
     200003    1    4    4    0    0 -0.34128940828E+02  0.17598436830E+02  0.16458150447E+02  0.51433066184E+02  0.30000000000E+02 0. -1.
     200000    1    3    3    0    0  0.17608300645E+03 -0.40715329066E+03 -0.15031014089E+03  0.68510741181E+03  0.50000000000E+03 0. -1.
    -200001    1    1    2    0    0 -0.18802153750E+03  0.60609206167E+03  0.91924820410E+03  0.13182249226E+04  0.70000000000E+03 0. -1.
<mgrwt>
<rscale>  0 0.21610786E+04</rscale>
<asrwt>0</asrwt>
<pdfrwt beam="1">  1        3 0.21540195E+00 0.21610786E+04</pdfrwt>
<pdfrwt beam="2">  1       -3 0.11062045E+00 0.21610786E+04</pdfrwt>
<totfact> 0.19633607E-01</totfact>
</mgrwt>
</event>
<event>
 8    1  0.1714417E-029  0.1515194E+04  0.7818608E-02  0.8874412E-01
          3   -1    0    0  501    0  0.00000000000E+00  0.00000000000E+00  0.77109132871E+03  0.77109133533E+03  0.10100000000E+00 0.  1.
         -3   -1    0    0    0  501 -0.00000000000E+00 -0.00000000000E+00 -0.74433851367E+03  0.74433852052E+03  0.10100000000E+00 0. -1.
     200001    2    1    2    0    0 -0.13551018373E+03  0.14506617087E+03  0.22291007329E+03  0.76184849077E+03  0.70094009608E+03 0.  0.
    5000001    2    3    3    0    0  0.26150231692E+01 -0.21912448476E+02  0.50743570597E+02  0.19035768879E+03  0.18213771158E+03 0.  0.
        -13    1    4    4    0    0  0.39993786887E+02  0.21711890401E+02 -0.51862661235E+02  0.68997506975E+02  0.10566000000E+00 0. -1.
     200003    1    4    4    0    0 -0.37378763718E+02 -0.43624338876E+02  0.10260623183E+03  0.12136018182E+03  0.30000000000E+02 0. -1.
     200000    1    3    3    0    0 -0.13812520690E+03  0.16697861935E+03  0.17216650270E+03  0.57149080198E+03  0.50000000000E+03 0.  1.
    -200001    1    1    2    0    0  0.13551018373E+03 -0.14506617087E+03 -0.19615725825E+03  0.75358136507E+03  0.70000000000E+03 0. -1.
<mgrwt>
<rscale>  0 0.15151937E+04</rscale>
<asrwt>0</asrwt>
<pdfrwt beam="1">  1        3 0.11015591E+00 0.15151937E+04</pdfrwt>
<pdfrwt beam="2">  1       -3 0.10633407E+00 0.15151937E+04</pdfrwt>
<totfact> 0.13377953E+00</totfact>
</mgrwt>
</event>
<event>
 8    1  0.1714417E-029  0.1564396E+04  0.7818608E-02  0.8842724E-01
         -3   -1    0    0    0  501 -0.00000000000E+00  0.00000000000E+00  0.25787534876E+04  0.25787534896E+04  0.10100000000E+00 0.  1.
          3   -1    0    0  501    0  0.00000000000E+00 -0.00000000000E+00 -0.23725961508E+03  0.23725963658E+03  0.10100000000E+00 0. -1.
     200001    2    1    2    0    0  0.90396171024E+02 -0.87555404830E+02  0.58572870442E+03  0.92166660502E+03  0.70039545899E+03 0.  0.
    5000001    2    3    3    0    0  0.89463617082E+02 -0.45804532671E+02  0.23242161652E+03  0.30801368737E+03  0.17535914514E+03 0.  0.
        -13    1    4    4    0    0 -0.83131949300E+00 -0.44560280716E+02  0.20384322152E+03  0.20865852447E+03  0.10566000000E+00 0. -1.
     200003    1    4    4    0    0  0.90294936575E+02 -0.12442519554E+01  0.28578394999E+02  0.99355162899E+02  0.30000000000E+02 0. -1.
     200000    1    3    3    0    0  0.93255394198E+00 -0.41750872159E+02  0.35330708789E+03  0.61365291765E+03  0.50000000000E+03 0. -1.
    -200001    1    1    2    0    0 -0.90396171024E+02  0.87555404830E+02  0.17557651681E+04  0.18943465212E+04  0.70000000000E+03 0.  1.
<mgrwt>
<rscale>  0 0.15643965E+04</rscale>
<asrwt>0</asrwt>
<pdfrwt beam="1">  1        3 0.33894232E-01 0.15643965E+04</pdfrwt>
<pdfrwt beam="2">  1       -3 0.36839336E+00 0.15643965E+04</pdfrwt>
<totfact> 0.34654960E-01</totfact>
</mgrwt>
</event>
<event>
 8    1  0.1714417E-029  0.2037199E+04  0.7818608E-02  0.8589424E-01
         -3   -1    0    0    0  501 -0.00000000000E+00  0.00000000000E+00  0.95939256146E+03  0.95939256678E+03  0.10100000000E+00 0. -1.
          3   -1    0    0  501    0  0.00000000000E+00 -0.00000000000E+00 -0.10814601471E+04  0.10814601519E+04  0.10100000000E+00 0.  1.
     200001    2    1    2    0    0 -0.22996233087E+03 -0.68055939723E+02 -0.76265147188E+03  0.10621484733E+04  0.69929094608E+03 0.  0.
    5000001    2    3    3    0    0  0.83186522237E+02 -0.33958107591E+02 -0.22676992802E+03  0.26440547247E+03  0.10204167318E+03 0.  0.
        -13    1    4    4    0    0  0.85181779583E+01  0.28152691340E+02 -0.85098435304E+02  0.90038259872E+02  0.10566000000E+00 0. -1.
     200003    1    4    4    0    0  0.74668344279E+02 -0.62110798931E+02 -0.14167149271E+03  0.17436721260E+03  0.30000000000E+02 0. -1.
     200000    1    3    3    0    0 -0.31314885311E+03 -0.34097832132E+02 -0.53588154386E+03  0.79774300085E+03  0.50000000000E+03 0.  1.
    -200001    1    1    2    0    0  0.22996233087E+03  0.68055939723E+02  0.64058388619E+03  0.97870424532E+03  0.70000000000E+03 0. -1.
<mgrwt>
<rscale>  0 0.20371989E+04</rscale>
<asrwt>0</asrwt>
<pdfrwt beam="1">  1        3 0.15449431E+00 0.20371989E+04</pdfrwt>
<pdfrwt beam="2">  1       -3 0.13705608E+00 0.20371989E+04</pdfrwt>
<totfact> 0.29712396E-01</totfact>
</mgrwt>
</event>
<event>
 8    1  0.1714417E-029  0.1569244E+04  0.7818608E-02  0.8839669E-01
         -3   -1    0    0    0  501 -0.00000000000E+00  0.00000000000E+00  0.21393218731E+03  0.21393221115E+03  0.10100000000E+00 0. -1.
          3   -1    0    0  501    0  0.00000000000E+00 -0.00000000000E+00 -0.28776934737E+04  0.28776934755E+04  0.10100000000E+00 0.  1.
     200001    2    1    2    0    0 -0.62688152376E+02  0.18419318321E+03 -0.74842111511E+03  0.10431177162E+04  0.70007390402E+03 0.  0.
    5000001    2    3    3    0    0  0.10289138431E+02  0.76935985135E+02 -0.86591712879E+02  0.20356548483E+03  0.16708012957E+03 0.  0.
        -13    1    4    4    0    0 -0.44217009875E+01 -0.32389687269E+02  0.27007228377E+02  0.42403358707E+02  0.10566000000E+00 0. -1.
     200003    1    4    4    0    0  0.14710839419E+02  0.10932567240E+03 -0.11359894126E+03  0.16116212613E+03  0.30000000000E+02 0. -1.
     200000    1    3    3    0    0 -0.72977290807E+02  0.10725719808E+03 -0.66182940223E+03  0.83955223135E+03  0.50000000000E+03 0. -1.
    -200001    1    1    2    0    0  0.62688152376E+02 -0.18419318321E+03 -0.19153401713E+04  0.20485079704E+04  0.70000000000E+03 0.  1.
<mgrwt>
<rscale>  0 0.15692435E+04</rscale>
<asrwt>0</asrwt>
<pdfrwt beam="1">  1        3 0.41109905E+00 0.15692435E+04</pdfrwt>
<pdfrwt beam="2">  1       -3 0.30561745E-01 0.15692435E+04</pdfrwt>
<totfact> 0.25994689E-01</totfact>
</mgrwt>
</event>
<event>
 8    1  0.1714417E-029  0.1738845E+04  0.7818608E-02  0.8739515E-01
          3   -1    0    0  501    0  0.00000000000E+00  0.00000000000E+00  0.20111362463E+04  0.20111362488E+04  0.10100000000E+00 0.  1.
         -3   -1    0    0    0  501 -0.00000000000E+00 -0.00000000000E+00 -0.37585482361E+03  0.37585483719E+03  0.10100000000E+00 0. -1.
     200001    2    1    2    0    0 -0.31845700851E+03  0.40585057982E+03  0.80561540002E+03  0.11851278373E+04  0.69955861701E+03 0.  0.
    5000001    2    3    3    0    0 -0.17496831598E+02  0.11020756824E+03  0.23853193589E+03  0.31935334378E+03  0.18065776077E+03 0.  0.
        -13    1    4    4    0    0 -0.36498311277E+02  0.25171058331E+01 -0.16586407491E+02  0.40169424011E+02  0.10566000000E+00 0. -1.
     200003    1    4    4    0    0  0.19001479679E+02  0.10769046241E+03  0.25511834339E+03  0.27918391977E+03  0.30000000000E+02 0. -1.
     200000    1    3    3    0    0 -0.30096017691E+03  0.29564301157E+03  0.56708346413E+03  0.86577449354E+03  0.50000000000E+03 0. -1.
    -200001    1    1    2    0    0  0.31845700851E+03 -0.40585057982E+03  0.82966602264E+03  0.12018632487E+04  0.70000000000E+03 0. -1.
<mgrwt>
<rscale>  0 0.17388448E+04</rscale>
<asrwt>0</asrwt>
<pdfrwt beam="1">  1        3 0.28730517E+00 0.17388448E+04</pdfrwt>
<pdfrwt beam="2">  1       -3 0.53693549E-01 0.17388448E+04</pdfrwt>
<totfact> 0.38989856E-01</totfact>
</mgrwt>
</event>
<event>
 8    1  0.1714417E-029  0.1779655E+04  0.7818608E-02  0.8717194E-01
         -3   -1    0    0    0  501 -0.00000000000E+00  0.00000000000E+00  0.21576077182E+04  0.21576077205E+04  0.10100000000E+00 0. -1.
          3   -1    0    0  501    0  0.00000000000E+00 -0.00000000000E+00 -0.36697731513E+03  0.36697732903E+03  0.10100000000E+00 0.  1.
     200001    2    1    2    0    0 -0.10413910439E+03  0.12777447874E+03  0.16386137617E+04  0.17895474113E+04  0.70018112415E+03 0.  0.
    5000001    2    3    3    0    0 -0.69468602331E+02  0.83926243198E+02  0.35276992758E+03  0.40877984312E+03  0.17545608376E+03 0.  0.
        -13    1    4    4    0    0 -0.24426758640E+02  0.13193974608E+03  0.22965078066E+03  0.26597792268E+03  0.10566000000E+00 0. -1.
     200003    1    4    4    0    0 -0.45041843691E+02 -0.48013502878E+02  0.12311914693E+03  0.14280192044E+03  0.30000000000E+02 0. -1.
     200000    1    3    3    0    0 -0.34670502056E+02  0.43848235546E+02  0.12858438341E+04  0.13807675682E+04  0.50000000000E+03 0. -1.
    -200001    1    1    2    0    0  0.10413910439E+03 -0.12777447874E+03  0.15201664132E+03  0.73503763830E+03  0.70000000000E+03 0.  1.
<mgrwt>
<rscale>  0 0.17796551E+04</rscale>
<asrwt>0</asrwt>
<pdfrwt beam="1">  1        3 0.52425331E-01 0.17796551E+04</pdfrwt>
<pdfrwt beam="2">  1       -3 0.30822968E+00 0.17796551E+04</pdfrwt>
<totfact> 0.30691092E-01</totfact>
</mgrwt>
</event>
<event>
 8    1  0.1714417E-029  0.2136810E+04  0.7818608E-02  0.8545200E-01
          3   -1    0    0  501    0  0.00000000000E+00  0.00000000000E+00  0.13768704901E+04  0.13768704938E+04  0.10100000000E+00 0.  1.
         -3   -1    0    0    0  501 -0.00000000000E+00 -0.00000000000E+00 -0.82904597933E+03  0.82904598548E+03  0.10100000000E+00 0. -1.
     200001    2    1    2    0    0  0.29336930880E+03 -0.62331810424E+03 -0.16125558263E+03  0.99455955862E+03  0.69896662460E+03 0.  0.
    5000001    2    3    3    0    0  0.74226023149E+02 -0.23625620023E+03 -0.67620772335E+02  0.31883167339E+03  0.18908879514E+03 0.  0.
        -13    1    4    4    0    0 -0.30666189927E+02 -0.22895479620E+02  0.40686439848E+02  0.55857101099E+02  0.10566000000E+00 0. -1.
     200003    1    4    4    0    0  0.10489221308E+03 -0.21336072061E+03 -0.10830721218E+03  0.26297457229E+03  0.30000000000E+02 0. -1.
     200000    1    3    3    0    0  0.21914328565E+03 -0.38706190401E+03 -0.93634810292E+02  0.67572788523E+03  0.50000000000E+03 0. -1.
    -200001    1    1    2    0    0 -0.29336930880E+03  0.62331810424E+03  0.70908009344E+03  0.12113569207E+04  0.70000000000E+03 0.  1.
<mgrwt>
<rscale>  0 0.21368097E+04</rscale>
<asrwt>0</asrwt>
<pdfrwt beam="1">  1        3 0.19669578E+00 0.21368097E+04</pdfrwt>
<pdfrwt beam="2">  1       -3 0.11843514E+00 0.21368097E+04</pdfrwt>
<totfact> 0.21826697E-01</totfact>
</mgrwt>
</event>
<event>
 8    1  0.1714417E-029  0.1630175E+04  0.7818608E-02  0.8802222E-01
          3   -1    0    0  501    0  0.00000000000E+00  0.00000000000E+00  0.89364377673E+03  0.89364378244E+03  0.10100000000E+00 0.  1.
         -3   -1    0    0    0  501 -0.00000000000E+00 -0.00000000000E+00 -0.74343649282E+03  0.74343649968E+03  0.10100000000E+00 0. -1.
     200001    2    1    2    0    0  0.51260814875E+02  0.32235897328E+03 -0.18561089844E+03  0.79487078894E+03  0.70058917113E+03 0.  0.
    5000001    2    3    3    0    0  0.49563985929E+02  0.13147866118E+03 -0.19832608380E+02  0.23458459937E+03  0.18679768429E+03 0.  0.
        -13    1    4    4    0    0 -0.50266928657E+02  0.91636815347E+02  0.35029890823E+02  0.11023236575E+03  0.10566000000E+00 0. -1.
     200003    1    4    4    0    0  0.99830914586E+02  0.39841845835E+02 -0.54862499203E+02  0.12435223362E+03  0.30000000000E+02 0. -1.
     200000    1    3    3    0    0  0.16968289468E+01  0.19088031210E+03 -0.16577829006E+03  0.56028618958E+03  0.50000000000E+03 0. -1.
    -200001    1    1    2    0    0 -0.51260814875E+02 -0.32235897328E+03  0.33581818235E+03  0.84220949318E+03  0.70000000000E+03 0.  1.
<mgrwt>
<rscale>  0 0.16301747E+04</rscale>
<asrwt>0</asrwt>
<pdfrwt beam="1">  1        3 0.12766340E+00 0.16301747E+04</pdfrwt>
<pdfrwt beam="2">  1       -3 0.10620521E+00 0.16301747E+04</pdfrwt>
<totfact> 0.92964360E-01</totfact>
</mgrwt>
</event>
<event>
 8    1  0.1714417E-029  0.1744523E+04  0.7818608E-02  0.8736371E-01
         -3   -1    0    0    0  501 -0.00000000000E+00  0.00000000000E+00  0.23167595838E+04  0.23167595860E+04  0.10100000000E+00 0. -1.
          3   -1    0    0  501    0  0.00000000000E+00 -0.00000000000E+00 -0.32840711748E+03  0.32840713301E+03  0.10100000000E+00 0.  1.
     200001    2    1    2    0    0  0.88716772275E+02 -0.44551316231E+03  0.13781650387E+04  0.16113962704E+04  0.70064714596E+03 0.  0.
    5000001    2    3    3    0    0  0.14231179943E+03 -0.93510127076E+02  0.39349162825E+03  0.45106860598E+03  0.14010864954E+03 0.  0.
        -13    1    4    4    0    0  0.15455960305E+02 -0.35487699571E+01 -0.92107546678E+01  0.18339292319E+02  0.10566000000E+00 0. -1.
     200003    1    4    4    0    0  0.12685583912E+03 -0.89961357119E+02  0.40270238292E+03  0.43272931366E+03  0.30000000000E+02 0. -1.
     200000    1    3    3    0    0 -0.53595027151E+02 -0.35200303523E+03  0.98467341042E+03  0.11603276645E+04  0.50000000000E+03 0.  1.
    -200001    1    1    2    0    0 -0.88716772275E+02  0.44551316231E+03  0.61018742769E+03  0.10337704486E+04  0.70000000000E+03 0.  1.
<mgrwt>
<rscale>  0 0.17445233E+04</rscale>
<asrwt>0</asrwt>
<pdfrwt beam="1">  1        3 0.46915304E-01 0.17445233E+04</pdfrwt>
<pdfrwt beam="2">  1       -3 0.33096565E+00 0.17445233E+04</pdfrwt>
<totfact> 0.28881013E-01</totfact>
</mgrwt>
</event>
<event>
 8    1  0.1714417E-029  0.1751445E+04  0.7818608E-02  0.8732555E-01
         -3   -1    0    0    0  501 -0.00000000000E+00  0.00000000000E+00  0.37386866011E+03  0.37386867375E+03  0.10100000000E+00 0.  1.
          3   -1    0    0  501    0  0.00000000000E+00 -0.00000000000E+00 -0.20512279193E+04  0.20512279218E+04  0.10100000000E+00 0. -1.
     200001    2    1    2    0    0  0.46087654719E+03  0.23698929802E+03 -0.70252907689E+03  0.11178609613E+04  0.69820835413E+03 0.  0.
    5000001    2    3    3    0    0  0.97692119497E+02 -0.43444118678E+02 -0.15676274703E+03  0.24699546276E+03  0.15811722900E+03 0.  0.
        -13    1    4    4    0    0  0.50585845136E+02 -0.85644339538E+02 -0.32983080464E+02  0.10479396635E+03  0.10566000000E+00 0. -1.
     200003    1    4    4    0    0  0.47106274361E+02  0.42200220860E+02 -0.12377966657E+03  0.14220149641E+03  0.30000000000E+02 0. -1.
     200000    1    3    3    0    0  0.36318442770E+03  0.28043341670E+03 -0.54576632985E+03  0.87086549853E+03  0.50000000000E+03 0.  1.
    -200001    1    1    2    0    0 -0.46087654719E+03 -0.23698929802E+03 -0.97483018234E+03  0.13072356343E+04  0.70000000000E+03 0.  1.
<mgrwt>
<rscale>  0 0.17514450E+04</rscale>
<asrwt>0</asrwt>
<pdfrwt beam="1">  1        3 0.29303256E+00 0.17514450E+04</pdfrwt>
<pdfrwt beam="2">  1       -3 0.53409811E-01 0.17514450E+04</pdfrwt>
<totfact> 0.36603869E-01</totfact>
</mgrwt>
</event>
<event>
 8    1  0.1714417E-029  0.1440415E+04  0.7818608E-02  0.8925073E-01
         -3   -1    0    0    0  501 -0.00000000000E+00  0.00000000000E+00  0.13869037743E+04  0.13869037780E+04  0.10100000000E+00 0. -1.
          3   -1    0    0  501    0  0.00000000000E+00 -0.00000000000E+00 -0.37399765064E+03  0.37399766428E+03  0.10100000000E+00 0.  1.
     200001    2    1    2    0    0  0.14895748770E+03  0.37131672156E+02  0.60363768718E+03  0.93563315420E+03  0.69818611246E+03 0.  0.
    5000001    2    3    3    0    0  0.64335371617E+02  0.41081118563E+02  0.17535019868E+03  0.27185105632E+03  0.19320612387E+03 0.  0.
        -13    1    4    4    0    0 -0.11180258687E+02  0.10312395849E+03  0.70566850650E+02  0.12545613008E+03  0.10566000000E+00 0. -1.
     200003    1    4    4    0    0  0.75515630304E+02 -0.62042839926E+02  0.10478334803E+03  0.14639492624E+03  0.30000000000E+02 0. -1.
     200000    1    3    3    0    0  0.84622116084E+02 -0.39494464072E+01  0.42828748850E+03  0.66378209788E+03  0.50000000000E+03 0.  1.
    -200001    1    1    2    0    0 -0.14895748770E+03 -0.37131672156E+02  0.40926843652E+03  0.82526828811E+03  0.70000000000E+03 0.  1.
<mgrwt>
<rscale>  0 0.14404149E+04</rscale>
<asrwt>0</asrwt>
<pdfrwt beam="1">  1        3 0.53428237E-01 0.14404149E+04</pdfrwt>
<pdfrwt beam="2">  1       -3 0.19812911E+00 0.14404149E+04</pdfrwt>
<totfact> 0.13312464E+00</totfact>
</mgrwt>
</event>
<event>
 8    1  0.1714417E-029  0.2212823E+04  0.7818608E-02  0.8513110E-01
          3   -1    0    0  501    0  0.00000000000E+00  0.00000000000E+00  0.79085813293E+03  0.79085813938E+03  0.10100000000E+00 0.  1.
         -3   -1    0    0    0  501 -0.00000000000E+00 -0.00000000000E+00 -0.15478713493E+04  0.15478713526E+04  0.10100000000E+00 0. -1.
     200001    2    1    2    0    0  0.24308370491E+03 -0.59708045932E+03  0.21842431531E+03  0.97598478342E+03  0.69945861453E+03 0.  0.
    5000001    2    3    3    0    0  0.71957485341E+01 -0.65458350928E+02 -0.38236194865E+02  0.16719568137E+03  0.14884829448E+03 0.  0.
        -13    1    4    4    0    0 -0.57755251830E+02 -0.27294283596E+02 -0.55115330193E+02  0.84370361012E+02  0.10566000000E+00 0. -1.
     200003    1    4    4    0    0  0.64951000364E+02 -0.38164067331E+02  0.16879135329E+02  0.82825320361E+02  0.30000000000E+02 0. -1.
     200000    1    3    3    0    0  0.23588795638E+03 -0.53162210839E+03  0.25666051018E+03  0.80878910204E+03  0.50000000000E+03 0.  1.
    -200001    1    1    2    0    0 -0.24308370491E+03  0.59708045932E+03 -0.97543753168E+03  0.13627447086E+04  0.70000000000E+03 0. -1.
<mgrwt>
<rscale>  0 0.22128232E+04</rscale>
<asrwt>0</asrwt>
<pdfrwt beam="1">  1        3 0.11297973E+00 0.22128232E+04</pdfrwt>
<pdfrwt beam="2">  1       -3 0.22112448E+00 0.22128232E+04</pdfrwt>
<totfact> 0.17057558E-01</totfact>
</mgrwt>
</event>
<event>
 8    1  0.1714417E-029  0.1806441E+04  0.7818608E-02  0.8702882E-01
          3   -1    0    0  501    0  0.00000000000E+00  0.00000000000E+00  0.23517480069E+04  0.23517480090E+04  0.10100000000E+00 0. -1.
         -3   -1    0    0    0  501 -0.00000000000E+00 -0.00000000000E+00 -0.34689392754E+03  0.34689394225E+03  0.10100000000E+00 0.  1.
     200001    2    1    2    0    0 -0.40923723624E+01 -0.30056959975E+03  0.27548622244E+03  0.80891392423E+03  0.69863455845E+03 0.  0.
    5000001    2    3    3    0    0  0.77288353337E+02  0.31905368680E+02  0.67164634031E+02  0.16816412022E+03  0.12952467391E+03 0.  0.
        -13    1    4    4    0    0  0.14001504212E+02 -0.62476000997E+00 -0.36384304226E+02  0.38990527097E+02  0.10566000000E+00 0. -1.
     200003    1    4    4    0    0  0.63286849125E+02  0.32530128690E+02  0.10354893826E+03  0.12917359312E+03  0.30000000000E+02 0. -1.
     200000    1    3    3    0    0 -0.81380725700E+02 -0.33247496843E+03  0.20832158841E+03  0.64074980401E+03  0.50000000000E+03 0.  1.
    -200001    1    1    2    0    0  0.40923723624E+01  0.30056959975E+03  0.17293678569E+04  0.18897280271E+04  0.70000000000E+03 0. -1.
<mgrwt>
<rscale>  0 0.18064408E+04</rscale>
<asrwt>0</asrwt>
<pdfrwt beam="1">  1        3 0.33596401E+00 0.18064408E+04</pdfrwt>
<pdfrwt beam="2">  1       -3 0.49556276E-01 0.18064408E+04</pdfrwt>
<totfact> 0.24745168E-01</totfact>
</mgrwt>
</event>
<event>
 8    1  0.1714417E-029  0.1671064E+04  0.7818608E-02  0.8778042E-01
          3   -1    0    0  501    0  0.00000000000E+00  0.00000000000E+00  0.20859646669E+04  0.20859646693E+04  0.10100000000E+00 0.  1.
         -3   -1    0    0    0  501 -0.00000000000E+00 -0.00000000000E+00 -0.33467171675E+03  0.33467173199E+03  0.10100000000E+00 0. -1.
     200001    2    1    2    0    0 -0.23433400704E+03  0.59007600629E+02  0.14362463230E+04  0.16158701613E+04  0.69988467190E+03 0.  0.
    5000001    2    3    3    0    0 -0.64937473232E+02  0.11841587088E+01  0.48503691830E+03  0.52644918309E+03  0.19408671413E+03 0.  0.
        -13    1    4    4    0    0 -0.27531696360E+01 -0.71633564348E+02  0.72782412721E+02  0.10215790841E+03  0.10566000000E+00 0. -1.
     200003    1    4    4    0    0 -0.62184303596E+02  0.72817723057E+02  0.41225450558E+03  0.42429127469E+03  0.30000000000E+02 0. -1.
     200000    1    3    3    0    0 -0.16939653381E+03  0.57823441920E+02  0.95120940474E+03  0.10894209782E+04  0.50000000000E+03 0.  1.
    -200001    1    1    2    0    0  0.23433400704E+03 -0.59007600629E+02  0.31504662707E+03  0.80476623998E+03  0.70000000000E+03 0. -1.
<mgrwt>
<rscale>  0 0.16710636E+04</rscale>
<asrwt>0</asrwt>
<pdfrwt beam="1">  1        3 0.29799496E+00 0.16710636E+04</pdfrwt>
<pdfrwt beam="2">  1       -3 0.47810245E-01 0.16710636E+04</pdfrwt>
<totfact> 0.43435498E-01</totfact>
</mgrwt>
</event>
<event>
 8    1  0.1714417E-029  0.1513369E+04  0.7818608E-02  0.8875611E-01
         -3   -1    0    0    0  501 -0.00000000000E+00  0.00000000000E+00  0.27591516142E+03  0.27591517990E+03  0.10100000000E+00 0. -1.
          3   -1    0    0  501    0  0.00000000000E+00 -0.00000000000E+00 -0.20751716821E+04  0.20751716845E+04  0.10100000000E+00 0.  1.
     200001    2    1    2    0    0 -0.16280487307E+03  0.20626397671E+02 -0.12663085259E+04  0.14561206974E+04  0.69987093648E+03 0.  0.
    5000001    2    3    3    0    0 -0.10936865094E+02 -0.78699234784E+02 -0.16935104180E+03  0.23700413408E+03  0.14552662862E+03 0.  0.
        -13    1    4    4    0    0 -0.49268065574E+02  0.18376306019E+02 -0.30706932461E+02  0.60893002665E+02  0.10566000000E+00 0. -1.
     200003    1    4    4    0    0  0.38331200480E+02 -0.97075540803E+02 -0.13864410934E+03  0.17611113141E+03  0.30000000000E+02 0. -1.
     200000    1    3    3    0    0 -0.15186800797E+03  0.99325632456E+02 -0.10969574841E+04  0.12191165633E+04  0.50000000000E+03 0. -1.
    -200001    1    1    2    0    0  0.16280487307E+03 -0.20626397671E+02 -0.53294799476E+03  0.89496616701E+03  0.70000000000E+03 0. -1.
<mgrwt>
<rscale>  0 0.15133689E+04</rscale>
<asrwt>0</asrwt>
<pdfrwt beam="1">  1        3 0.29645309E+00 0.15133689E+04</pdfrwt>
<pdfrwt beam="2">  1       -3 0.39416454E-01 0.15133689E+04</pdfrwt>
<totfact> 0.66088428E-01</totfact>
</mgrwt>
</event>
<event>
 8    1  0.1714417E-029  0.1595538E+04  0.7818608E-02  0.8823294E-01
          3   -1    0    0  501    0  0.00000000000E+00  0.00000000000E+00  0.19513526936E+03  0.19513529550E+03  0.10100000000E+00 0. -1.
         -3   -1    0    0    0  501 -0.00000000000E+00 -0.00000000000E+00 -0.32615103628E+04  0.32615103644E+04  0.10100000000E+00 0.  1.
     200001    2    1    2    0    0  0.36652393360E+03 -0.74762300783E+02 -0.13596474681E+04  0.15744000907E+04  0.70011799902E+03 0.  0.
    5000001    2    3    3    0    0  0.64151271888E+02  0.12153577902E+01 -0.39014781144E+03  0.43988194831E+03  0.19277953961E+03 0.  0.
        -13    1    4    4    0    0 -0.21971254004E+02  0.76818541598E+02 -0.11218377656E+03  0.13772812067E+03  0.10566000000E+00 0. -1.
     200003    1    4    4    0    0  0.86122525891E+02 -0.75603183808E+02 -0.27796403488E+03  0.30215382764E+03  0.30000000000E+02 0. -1.
     200000    1    3    3    0    0  0.30237266172E+03 -0.75977658573E+02 -0.96949965661E+03  0.11345181424E+04  0.50000000000E+03 0.  1.
    -200001    1    1    2    0    0 -0.36652393360E+03  0.74762300783E+02 -0.17067276254E+04  0.18822455692E+04  0.70000000000E+03 0.  1.
<mgrwt>
<rscale>  0 0.15955385E+04</rscale>
<asrwt>0</asrwt>
<pdfrwt beam="1">  1        3 0.27876471E-01 0.15955385E+04</pdfrwt>
<pdfrwt beam="2">  1       -3 0.46593002E+00 0.15955385E+04</pdfrwt>
<totfact> 0.14688246E-01</totfact>
</mgrwt>
</event>
<event>
 8    1  0.1714417E-029  0.1816637E+04  0.7818608E-02  0.8697502E-01
          3   -1    0    0  501    0  0.00000000000E+00  0.00000000000E+00  0.35519162441E+03  0.35519163877E+03  0.10100000000E+00 0.  1.
         -3   -1    0    0    0  501 -0.00000000000E+00 -0.00000000000E+00 -0.23228083425E+04  0.23228083447E+04  0.10100000000E+00 0. -1.
     200001    2    1    2    0    0 -0.56040587740E+03 -0.11971243387E+03 -0.86519662957E+03  0.12519158815E+04  0.70024449472E+03 0.  0.
    5000001    2    3    3    0    0 -0.12012198537E+03  0.23236066963E+02 -0.32089259835E+03  0.37982009673E+03  0.16224068550E+03 0.  0.
        -13    1    4    4    0    0 -0.11543409451E+03  0.96491870245E+01 -0.90392004753E+02  0.14693148972E+03  0.10566000000E+00 0. -1.
     200003    1    4    4    0    0 -0.46878908649E+01  0.13586879939E+02 -0.23050059360E+03  0.23288860701E+03  0.30000000000E+02 0. -1.
     200000    1    3    3    0    0 -0.44028389202E+03 -0.14294850083E+03 -0.54430403122E+03  0.87209578480E+03  0.50000000000E+03 0. -1.
    -200001    1    1    2    0    0  0.56040587740E+03  0.11971243387E+03 -0.11024200886E+04  0.14260841020E+04  0.70000000000E+03 0.  1.
<mgrwt>
<rscale>  0 0.18166366E+04</rscale>
<asrwt>0</asrwt>
<pdfrwt beam="1">  1        3 0.50741663E-01 0.18166366E+04</pdfrwt>
<pdfrwt beam="2">  1       -3 0.33182975E+00 0.18166366E+04</pdfrwt>
<totfact> 0.24187154E-01</totfact>
</mgrwt>
</event>
<event>
 8    1  0.1714417E-029  0.1511928E+04  0.7818608E-02  0.8876559E-01
          3   -1    0    0  501    0  0.00000000000E+00  0.00000000000E+00  0.62696828534E+03  0.62696829348E+03  0.10100000000E+00 0.  1.
         -3   -1    0    0    0  501 -0.00000000000E+00 -0.00000000000E+00 -0.91149995350E+03  0.91149995909E+03  0.10100000000E+00 0. -1.
     200001    2    1    2    0    0  0.16229522775E+03 -0.23106517710E+03 -0.18740577394E+03  0.77743980610E+03  0.69968626611E+03 0.  0.
    5000001    2    3    3    0    0  0.50249376434E+02 -0.10849784524E+03 -0.14110645408E+02  0.22281540598E+03  0.18748549963E+03 0.  0.
        -13    1    4    4    0    0  0.91263508399E+02 -0.10422860913E+03 -0.62983774373E+02  0.15218277801E+03  0.10566000000E+00 0. -1.
     200003    1    4    4    0    0 -0.41014131965E+02 -0.42692361165E+01  0.48873128965E+02  0.70632627961E+02  0.30000000000E+02 0. -1.
     200000    1    3    3    0    0  0.11204585132E+03 -0.12256733185E+03 -0.17329512853E+03  0.55462440012E+03  0.50000000000E+03 0.  1.
    -200001    1    1    2    0    0 -0.16229522775E+03  0.23106517710E+03 -0.97125894213E+02  0.76102844648E+03  0.70000000000E+03 0.  1.
<mgrwt>
<rscale>  0 0.15119280E+04</rscale>
<asrwt>0</asrwt>
<pdfrwt beam="1">  1        3 0.89566899E-01 0.15119280E+04</pdfrwt>
<pdfrwt beam="2">  1       -3 0.13021428E+00 0.15119280E+04</pdfrwt>
<totfact> 0.13257692E+00</totfact>
</mgrwt>
</event>
<event>
 8    1  0.1714417E-029  0.2074675E+04  0.7818608E-02  0.8572482E-01
          3   -1    0    0  501    0  0.00000000000E+00  0.00000000000E+00  0.68472383581E+03  0.68472384326E+03  0.10100000000E+00 0.  1.
         -3   -1    0    0    0  501 -0.00000000000E+00 -0.00000000000E+00 -0.15715369759E+04  0.15715369791E+04  0.10100000000E+00 0. -1.
     200001    2    1    2    0    0  0.38616702471E+03 -0.61542664610E+03 -0.70541143871E+03  0.12311844813E+04  0.70023924593E+03 0.  0.
    5000001    2    3    3    0    0  0.21186827102E+03 -0.22261047219E+03 -0.33446128489E+03  0.47468688146E+03  0.13791192023E+03 0.  0.
        -13    1    4    4    0    0  0.19709023965E+03 -0.21745244296E+03 -0.32819278525E+03  0.44027337300E+03  0.10566000000E+00 0. -1.
     200003    1    4    4    0    0  0.14778031373E+02 -0.51580292269E+01 -0.62684996411E+01  0.34413508460E+02  0.30000000000E+02 0.  1.
     200000    1    3    3    0    0  0.17429875369E+03 -0.39281617391E+03 -0.37095015381E+03  0.75649759989E+03  0.50000000000E+03 0.  1.
    -200001    1    1    2    0    0 -0.38616702471E+03  0.61542664610E+03 -0.18140170136E+03  0.10250763410E+04  0.70000000000E+03 0.  1.
<mgrwt>
<rscale>  0 0.20746748E+04</rscale>
<asrwt>0</asrwt>
<pdfrwt beam="1">  1        3 0.97817692E-01 0.20746748E+04</pdfrwt>
<pdfrwt beam="2">  1       -3 0.22450528E+00 0.20746748E+04</pdfrwt>
<totfact> 0.23146208E-01</totfact>
</mgrwt>
</event>
<event>
 8    1  0.1714417E-029  0.1482396E+04  0.7818608E-02  0.8896245E-01
         -3   -1    0    0    0  501 -0.00000000000E+00  0.00000000000E+00  0.90253830950E+03  0.90253831515E+03  0.10100000000E+00 0. -1.
          3   -1    0    0  501    0  0.00000000000E+00 -0.00000000000E+00 -0.60869896612E+03  0.60869897450E+03  0.10100000000E+00 0.  1.
     200001    2    1    2    0    0 -0.19720086204E+03 -0.12619415796E+03  0.77199404606E+02  0.74198699972E+03  0.69983699115E+03 0.  0.
    5000001    2    3    3    0    0 -0.27655051378E+02  0.41598687228E+02  0.16010582040E+01  0.18286685986E+03  0.17590472536E+03 0.  0.
        -13    1    4    4    0    0  0.31456276898E+02  0.89131391831E+02  0.25444703476E+02  0.97884352504E+02  0.10566000000E+00 0. -1.
     200003    1    4    4    0    0 -0.59111328276E+02 -0.47532704604E+02 -0.23843645272E+02  0.84982507361E+02  0.30000000000E+02 0. -1.
     200000    1    3    3    0    0 -0.16954581067E+03 -0.16779284518E+03  0.75598346403E+02  0.55912013985E+03  0.50000000000E+03 0.  1.
    -200001    1    1    2    0    0  0.19720086204E+03  0.12619415796E+03  0.21663993877E+03  0.76925028993E+03  0.70000000000E+03 0.  1.
<mgrwt>
<rscale>  0 0.14823956E+04</rscale>
<asrwt>0</asrwt>
<pdfrwt beam="1">  1        3 0.86956997E-01 0.14823956E+04</pdfrwt>
<pdfrwt beam="2">  1       -3 0.12893404E+00 0.14823956E+04</pdfrwt>
<totfact> 0.14563256E+00</totfact>
</mgrwt>
</event>
<event>
 8    1  0.1714417E-029  0.1631569E+04  0.7818608E-02  0.8801385E-01
         -3   -1    0    0    0  501 -0.00000000000E+00  0.00000000000E+00  0.25127657377E+03  0.25127659406E+03  0.10100000000E+00 0.  1.
          3   -1    0    0  501    0  0.00000000000E+00 -0.00000000000E+00 -0.26484945060E+04  0.26484945079E+04  0.10100000000E+00 0. -1.
     200001    2    1    2    0    0  0.18850694591E+03 -0.24452305722E+02 -0.56390617723E+03  0.92818169876E+03  0.71231896316E+03 0.  0.
    5000001    2    3    3    0    0  0.26881317921E+02  0.20191843708E+01 -0.15619548834E+03  0.26256049323E+03  0.20931865580E+03 0.  0.
        -13    1    4    4    0    0 -0.46932378399E+02 -0.26983160157E+02 -0.16840668970E+03  0.17689421520E+03  0.10566000000E+00 0. -1.
     200003    1    4    4    0    0  0.73813696320E+02  0.29002344528E+02  0.12211201352E+02  0.85666278027E+02  0.30000000000E+02 0. -1.
     200000    1    3    3    0    0  0.16162562799E+03 -0.26471490093E+02 -0.40771068889E+03  0.66562120552E+03  0.50000000000E+03 0.  1.
    -200001    1    1    2    0    0 -0.18850694591E+03  0.24452305722E+02 -0.18333117550E+04  0.19715894032E+04  0.70000000000E+03 0.  1.
<mgrwt>
<rscale>  0 0.16315694E+04</rscale>
<asrwt>0</asrwt>
<pdfrwt beam="1">  1        3 0.37835634E+00 0.16315694E+04</pdfrwt>
<pdfrwt beam="2">  1       -3 0.35896657E-01 0.16315694E+04</pdfrwt>
<totfact> 0.28275257E-01</totfact>
</mgrwt>
</event>
<event>
 8    1  0.1714417E-029  0.1792170E+04  0.7818608E-02  0.8710475E-01
         -3   -1    0    0    0  501 -0.00000000000E+00  0.00000000000E+00  0.40434735519E+03  0.40434736781E+03  0.10100000000E+00 0. -1.
          3   -1    0    0  501    0  0.00000000000E+00 -0.00000000000E+00 -0.19858374521E+04  0.19858374546E+04  0.10100000000E+00 0.  1.
     200001    2    1    2    0    0  0.59518296134E+02 -0.52940295678E+03 -0.56467506436E+03  0.10456690254E+04  0.70053969486E+03 0.  0.
    5000001    2    3    3    0    0  0.64085991044E+02 -0.16159872526E+03 -0.12748853317E+03  0.28643725600E+03  0.18860491320E+03 0.  0.
        -13    1    4    4    0    0  0.42700971915E+02 -0.12812466639E+03  0.14639747357E+02  0.13584416258E+03  0.10566000000E+00 0. -1.
     200003    1    4    4    0    0  0.21385019129E+02 -0.33474058867E+02 -0.14212828052E+03  0.15059309342E+03  0.30000000000E+02 0. -1.
     200000    1    3    3    0    0 -0.45676949095E+01 -0.36780423152E+03 -0.43718653119E+03  0.75923176937E+03  0.50000000000E+03 0.  1.
    -200001    1    1    2    0    0 -0.59518296134E+02  0.52940295678E+03 -0.10168150325E+04  0.13445157971E+04  0.70000000000E+03 0.  1.
<mgrwt>
<rscale>  0 0.17921698E+04</rscale>
<asrwt>0</asrwt>
<pdfrwt beam="1">  1        3 0.28369106E+00 0.17921698E+04</pdfrwt>
<pdfrwt beam="2">  1       -3 0.57763910E-01 0.17921698E+04</pdfrwt>
<totfact> 0.34903555E-01</totfact>
</mgrwt>
</event>
<event>
 8    1  0.1714417E-029  0.1479957E+04  0.7818608E-02  0.8897892E-01
         -3   -1    0    0    0  501 -0.00000000000E+00  0.00000000000E+00  0.26862100458E+04  0.26862100477E+04  0.10100000000E+00 0. -1.
          3   -1    0    0  501    0  0.00000000000E+00 -0.00000000000E+00 -0.20384406663E+03  0.20384409165E+03  0.10100000000E+00 0.  1.
     200001    2    1    2    0    0 -0.14582888119E+03  0.96004610122E+02  0.15636608557E+04  0.17219351164E+04  0.69967301354E+03 0.  0.
    5000001    2    3    3    0    0  0.26666280085E+02  0.51789645517E+02  0.24014019085E+03  0.29595598125E+03  0.16287840157E+03 0.  0.
        -13    1    4    4    0    0  0.73456482483E+02  0.62687766744E+02  0.21146330746E+03  0.23247011095E+03  0.10566000000E+00 0. -1.
     200003    1    4    4    0    0 -0.46790202398E+02 -0.10898121227E+02  0.28676883391E+02  0.63485870300E+02  0.30000000000E+02 0. -1.
     200000    1    3    3    0    0 -0.17249516127E+03  0.44214964605E+02  0.13235206648E+04  0.14259791352E+04  0.50000000000E+03 0. -1.
    -200001    1    1    2    0    0  0.14582888119E+03 -0.96004610122E+02  0.91870512350E+03  0.11681190229E+04  0.70000000000E+03 0. -1.
<mgrwt>
<rscale>  0 0.14799568E+04</rscale>
<asrwt>0</asrwt>
<pdfrwt beam="1">  1        3 0.29120582E-01 0.14799568E+04</pdfrwt>
<pdfrwt beam="2">  1       -3 0.38374431E+00 0.14799568E+04</pdfrwt>
<totfact> 0.38415019E-01</totfact>
</mgrwt>
</event>
<event>
 8    1  0.1714417E-029  0.2629643E+04  0.7818608E-02  0.8358201E-01
         -3   -1    0    0    0  501 -0.00000000000E+00  0.00000000000E+00  0.38432250001E+03  0.38432251328E+03  0.10100000000E+00 0.  1.
          3   -1    0    0  501    0  0.00000000000E+00 -0.00000000000E+00 -0.44981884242E+04  0.44981884254E+04  0.10100000000E+00 0. -1.
     200001    2    1    2    0    0 -0.94880960061E+03 -0.37439510292E+03 -0.12260294172E+04  0.17408535668E+04  0.69786220536E+03 0.  0.
    5000001    2    3    3    0    0 -0.11299407628E+03 -0.43416283094E+02 -0.23086895526E+03  0.30960274494E+03  0.16703517671E+03 0.  0.
        -13    1    4    4    0    0 -0.12911965350E+03 -0.17843203650E+02 -0.80231752963E+02  0.15306015218E+03  0.10566000000E+00 0. -1.
     200003    1    4    4    0    0  0.16125577221E+02 -0.25573079444E+02 -0.15063720229E+03  0.15654259276E+03  0.30000000000E+02 0. -1.
     200000    1    3    3    0    0 -0.83581552433E+03 -0.33097881983E+03 -0.99516046199E+03  0.14312508218E+04  0.50000000000E+03 0.  1.
    -200001    1    1    2    0    0  0.94880960061E+03  0.37439510292E+03 -0.28878365070E+04  0.31416573719E+04  0.70000000000E+03 0. -1.
<mgrwt>
<rscale>  0 0.26296426E+04</rscale>
<asrwt>0</asrwt>
<pdfrwt beam="1">  1        3 0.64259832E+00 0.26296426E+04</pdfrwt>
<pdfrwt beam="2">  1       -3 0.54903218E-01 0.26296426E+04</pdfrwt>
<totfact> 0.52281008E-03</totfact>
</mgrwt>
</event>
<event>
 8    1  0.1714417E-029  0.1734175E+04  0.7818608E-02  0.8742110E-01
          3   -1    0    0  501    0  0.00000000000E+00  0.00000000000E+00  0.12535559608E+04  0.12535559649E+04  0.10100000000E+00 0.  1.
         -3   -1    0    0    0  501 -0.00000000000E+00 -0.00000000000E+00 -0.59976637441E+03  0.59976638292E+03  0.10100000000E+00 0. -1.
     200001    2    1    2    0    0 -0.72109116550E+02  0.74811747787E+02 -0.20591209235E+03  0.73982178707E+03  0.70295089768E+03 0.  0.
    5000001    2    3    3    0    0 -0.10846352987E+03  0.82919518472E+02 -0.50102033997E+02  0.21478449925E+03  0.15805753210E+03 0.  0.
        -13    1    4    4    0    0 -0.23512630672E+02  0.10601437027E+03  0.11411102400E+01  0.10859651836E+03  0.10566000000E+00 0. -1.
     200003    1    4    4    0    0 -0.84950899195E+02 -0.23094851793E+02 -0.51243144237E+02  0.10618798089E+03  0.30000000000E+02 0. -1.
     200000    1    3    3    0    0  0.36354413316E+02 -0.81077706853E+01 -0.15581005836E+03  0.52503728782E+03  0.50000000000E+03 0. -1.
    -200001    1    1    2    0    0  0.72109116550E+02 -0.74811747787E+02  0.85970167874E+03  0.11135005607E+04  0.70000000000E+03 0.  1.
<mgrwt>
<rscale>  0 0.17341750E+04</rscale>
<asrwt>0</asrwt>
<pdfrwt beam="1">  1        3 0.17907942E+00 0.17341750E+04</pdfrwt>
<pdfrwt beam="2">  1       -3 0.85680911E-01 0.17341750E+04</pdfrwt>
<totfact> 0.62759531E-01</totfact>
</mgrwt>
</event>
<event>
 8    1  0.1714417E-029  0.1660506E+04  0.7818608E-02  0.8784215E-01
          3   -1    0    0  501    0  0.00000000000E+00  0.00000000000E+00  0.99202873869E+03  0.99202874383E+03  0.10100000000E+00 0. -1.
         -3   -1    0    0    0  501 -0.00000000000E+00 -0.00000000000E+00 -0.69485926600E+03  0.69485927334E+03  0.10100000000E+00 0.  1.
     200001    2    1    2    0    0  0.27022620995E+03  0.20984747539E+03 -0.14280334695E+03  0.79210634017E+03  0.69998677899E+03 0.  0.
    5000001    2    3    3    0    0  0.13303185005E+03  0.73473987322E+02 -0.67002854615E+02  0.25065852618E+03  0.18773495753E+03 0.  0.
        -13    1    4    4    0    0 -0.28738989025E+02 -0.30592293093E+02 -0.32180315176E+02  0.52890469233E+02  0.10566000000E+00 0. -1.
     200003    1    4    4    0    0  0.16177083908E+03  0.10406628042E+03 -0.34822539439E+02  0.19776805695E+03  0.30000000000E+02 0. -1.
     200000    1    3    3    0    0  0.13719435990E+03  0.13637348807E+03 -0.75800492338E+02  0.54144781399E+03  0.50000000000E+03 0.  1.
    -200001    1    1    2    0    0 -0.27022620995E+03 -0.20984747539E+03  0.43997281964E+03  0.89478167700E+03  0.70000000000E+03 0. -1.
<mgrwt>
<rscale>  0 0.16605064E+04</rscale>
<asrwt>0</asrwt>
<pdfrwt beam="1">  1        3 0.14171839E+00 0.16605064E+04</pdfrwt>
<pdfrwt beam="2">  1       -3 0.99265611E-01 0.16605064E+04</pdfrwt>
<totfact> 0.83696226E-01</totfact>
</mgrwt>
</event>
<event>
 8    1  0.1714417E-029  0.1796552E+04  0.7818608E-02  0.8708135E-01
          3   -1    0    0  501    0  0.00000000000E+00  0.00000000000E+00  0.54232494391E+03  0.54232495331E+03  0.10100000000E+00 0.  1.
         -3   -1    0    0    0  501 -0.00000000000E+00 -0.00000000000E+00 -0.14878527336E+04  0.14878527370E+04  0.10100000000E+00 0. -1.
     200001    2    1    2    0    0 -0.14647842742E+02 -0.27690542726E+03  0.81716450010E+02  0.75655219478E+03  0.69914409837E+03 0.  0.
    5000001    2    3    3    0    0 -0.18815363909E+02 -0.77321835045E+02 -0.65213739317E+02  0.19848458324E+03  0.16973689609E+03 0.  0.
        -13    1    4    4    0    0 -0.21653875915E+02  0.72108945490E+01 -0.99748248708E+02  0.10232600660E+03  0.10566000000E+00 0. -1.
     200003    1    4    4    0    0  0.28385120052E+01 -0.84532729594E+02  0.34534509391E+02  0.96158576642E+02  0.30000000000E+02 0. -1.
     200000    1    3    3    0    0  0.41675211668E+01 -0.19958359222E+03  0.14693018933E+03  0.55806761154E+03  0.50000000000E+03 0.  1.
    -200001    1    1    2    0    0  0.14647842742E+02  0.27690542726E+03 -0.10272442397E+04  0.12736254956E+04  0.70000000000E+03 0. -1.
<mgrwt>
<rscale>  0 0.17965519E+04</rscale>
<asrwt>0</asrwt>
<pdfrwt beam="1">  1        3 0.77474993E-01 0.17965519E+04</pdfrwt>
<pdfrwt beam="2">  1       -3 0.21255039E+00 0.17965519E+04</pdfrwt>
<totfact> 0.47499703E-01</totfact>
</mgrwt>
</event>
<event>
 8    1  0.1714417E-029  0.2219799E+04  0.7818608E-02  0.8510232E-01
         -3   -1    0    0    0  501 -0.00000000000E+00  0.00000000000E+00  0.14172779769E+04  0.14172779805E+04  0.10100000000E+00 0.  1.
          3   -1    0    0  501    0  0.00000000000E+00 -0.00000000000E+00 -0.86918531334E+03  0.86918531920E+03  0.10100000000E+00 0. -1.
     200001    2    1    2    0    0 -0.49856570260E+03  0.43323137935E+03 -0.29486743384E+03  0.10070732444E+04  0.70070859002E+03 0.  0.
    5000001    2    3    3    0    0 -0.94539356684E+02  0.12216454809E+03 -0.71451761232E+02  0.25879894676E+03  0.19496069832E+03 0.  0.
        -13    1    4    4    0    0 -0.31429423085E+02  0.10776243931E+03  0.46051591491E+02  0.12133141475E+03  0.10566000000E+00 0. -1.
     200003    1    4    4    0    0 -0.63109933599E+02  0.14402108778E+02 -0.11750335272E+03  0.13746753201E+03  0.30000000000E+02 0. -1.
     200000    1    3    3    0    0 -0.40402634592E+03  0.31106683126E+03 -0.22341567260E+03  0.74827429762E+03  0.50000000000E+03 0. -1.
    -200001    1    1    2    0    0  0.49856570260E+03 -0.43323137935E+03  0.84296009740E+03  0.12793900553E+04  0.70000000000E+03 0.  1.
<mgrwt>
<rscale>  0 0.22197993E+04</rscale>
<asrwt>0</asrwt>
<pdfrwt beam="1">  1        3 0.12416933E+00 0.22197993E+04</pdfrwt>
<pdfrwt beam="2">  1       -3 0.20246828E+00 0.22197993E+04</pdfrwt>
<totfact> 0.17673618E-01</totfact>
</mgrwt>
</event>
<event>
 8    1  0.1714417E-029  0.1896360E+04  0.7818608E-02  0.8656670E-01
          3   -1    0    0  501    0  0.00000000000E+00  0.00000000000E+00  0.11773751017E+04  0.11773751060E+04  0.10100000000E+00 0.  1.
         -3   -1    0    0    0  501 -0.00000000000E+00 -0.00000000000E+00 -0.76360129281E+03  0.76360129949E+03  0.10100000000E+00 0. -1.
     200001    2    1    2    0    0 -0.26074086762E+02  0.24407981266E+03  0.81281980585E+03  0.10986626156E+04  0.69722929750E+03 0.  0.
    5000001    2    3    3    0    0  0.79070925245E+02  0.85489034612E+02  0.22742780967E+03  0.30563657722E+03  0.16771917739E+03 0.  0.
        -13    1    4    4    0    0  0.97700791875E+02  0.11024074184E+03  0.12040515783E+03  0.19025214608E+03  0.10566000000E+00 0. -1.
     200003    1    4    4    0    0 -0.18629866630E+02 -0.24751707225E+02  0.10702265184E+03  0.11538443113E+03  0.30000000000E+02 0. -1.
     200000    1    3    3    0    0 -0.10514501201E+03  0.15859077805E+03  0.58539199618E+03  0.79302603843E+03  0.50000000000E+03 0.  1.
    -200001    1    1    2    0    0  0.26074086762E+02 -0.24407981266E+03 -0.39904599695E+03  0.84231378989E+03  0.70000000000E+03 0. -1.
<mgrwt>
<rscale>  0 0.18963598E+04</rscale>
<asrwt>0</asrwt>
<pdfrwt beam="1">  1        3 0.16819644E+00 0.18963598E+04</pdfrwt>
<pdfrwt beam="2">  1       -3 0.10908590E+00 0.18963598E+04</pdfrwt>
<totfact> 0.41953574E-01</totfact>
</mgrwt>
</event>
<event>
 8    1  0.1714417E-029  0.1560422E+04  0.7818608E-02  0.8845238E-01
         -3   -1    0    0    0  501 -0.00000000000E+00  0.00000000000E+00  0.98411441388E+03  0.98411441906E+03  0.10100000000E+00 0. -1.
          3   -1    0    0  501    0  0.00000000000E+00 -0.00000000000E+00 -0.61855499339E+03  0.61855500164E+03  0.10100000000E+00 0.  1.
     200001    2    1    2    0    0 -0.33738127268E+03 -0.30900332100E+02  0.10855960017E+03  0.78362738190E+03  0.69821610780E+03 0.  0.
    5000001    2    3    3    0    0 -0.94255659277E+02 -0.54728144731E+02  0.44412499150E+01  0.21748388471E+03  0.18814945197E+03 0.  0.
        -13    1    4    4    0    0  0.43649963599E+02  0.28802788632E+02 -0.84712381159E+01  0.52978231327E+02  0.10566000000E+00 0. -1.
     200003    1    4    4    0    0 -0.13790562288E+03 -0.83530933363E+02  0.12912488031E+02  0.16450565339E+03  0.30000000000E+02 0. -1.
     200000    1    3    3    0    0 -0.24312561340E+03  0.23827812631E+02  0.10411835026E+03  0.56614349719E+03  0.50000000000E+03 0.  1.
    -200001    1    1    2    0    0  0.33738127268E+03  0.30900332100E+02  0.25699982032E+03  0.81904203880E+03  0.70000000000E+03 0. -1.
<mgrwt>
<rscale>  0 0.15604216E+04</rscale>
<asrwt>0</asrwt>
<pdfrwt beam="1">  1        3 0.88365000E-01 0.15604216E+04</pdfrwt>
<pdfrwt beam="2">  1       -3 0.14058777E+00 0.15604216E+04</pdfrwt>
<totfact> 0.11230924E+00</totfact>
</mgrwt>
</event>
<event>
 8    1  0.1714417E-029  0.1453198E+04  0.7818608E-02  0.8916187E-01
          3   -1    0    0  501    0  0.00000000000E+00  0.00000000000E+00  0.46633329046E+03  0.46633330140E+03  0.10100000000E+00 0. -1.
         -3   -1    0    0    0  501 -0.00000000000E+00 -0.00000000000E+00 -0.11321214053E+04  0.11321214098E+04  0.10100000000E+00 0.  1.
     200001    2    1    2    0    0  0.25652566564E+02  0.17731440114E+03 -0.25929014865E+03  0.76939557729E+03  0.70188298323E+03 0.  0.
    5000001    2    3    3    0    0  0.50762057479E+01  0.12343551195E+03 -0.81524770226E+02  0.23561017932E+03  0.18331332456E+03 0.  0.
        -13    1    4    4    0    0 -0.57557800773E+02 -0.20497717374E+02 -0.26397975909E+02  0.66557652779E+02  0.10566000000E+00 0. -1.
     200003    1    4    4    0    0  0.62634006521E+02  0.14393322933E+03 -0.55126794317E+02  0.16905252654E+03  0.30000000000E+02 0. -1.
     200000    1    3    3    0    0  0.20576360816E+02  0.53878889189E+02 -0.17776537842E+03  0.53378539797E+03  0.50000000000E+03 0. -1.
    -200001    1    1    2    0    0 -0.25652566564E+02 -0.17731440114E+03 -0.40649796622E+03  0.82905913394E+03  0.70000000000E+03 0.  1.
<mgrwt>
<rscale>  0 0.14531977E+04</rscale>
<asrwt>0</asrwt>
<pdfrwt beam="1">  1        3 0.66619043E-01 0.14531977E+04</pdfrwt>
<pdfrwt beam="2">  1       -3 0.16173163E+00 0.14531977E+04</pdfrwt>
<totfact> 0.14671457E+00</totfact>
</mgrwt>
</event>
<event>
 8    1  0.1714417E-029  0.1711239E+04  0.7818608E-02  0.8754980E-01
          3   -1    0    0  501    0  0.00000000000E+00  0.00000000000E+00  0.70294113581E+03  0.70294114307E+03  0.10100000000E+00 0.  1.
         -3   -1    0    0    0  501 -0.00000000000E+00 -0.00000000000E+00 -0.10414591161E+04  0.10414591210E+04  0.10100000000E+00 0. -1.
     200001    2    1    2    0    0 -0.31040474507E+03  0.34459188044E+03 -0.33565765500E+03  0.90469623804E+03  0.70051020831E+03 0.  0.
    5000001    2    3    3    0    0 -0.57509803878E+02  0.46212411669E+02 -0.12419746458E+03  0.23559118591E+03  0.18610543285E+03 0.  0.
        -13    1    4    4    0    0 -0.64659522679E+02  0.52060550219E+02  0.22148275314E+02  0.85916890223E+02  0.10566000000E+00 0. -1.
     200003    1    4    4    0    0  0.71497188016E+01 -0.58481385505E+01 -0.14634573989E+03  0.14967429568E+03  0.30000000000E+02 0. -1.
     200000    1    3    3    0    0 -0.25289494119E+03  0.29837946877E+03 -0.21146019042E+03  0.66910505214E+03  0.50000000000E+03 0.  1.
    -200001    1    1    2    0    0  0.31040474507E+03 -0.34459188044E+03 -0.28603252623E+01  0.83970402600E+03  0.70000000000E+03 0. -1.
<mgrwt>
<rscale>  0 0.17112387E+04</rscale>
<asrwt>0</asrwt>
<pdfrwt beam="1">  1        3 0.10042016E+00 0.17112387E+04</pdfrwt>
<pdfrwt beam="2">  1       -3 0.14877987E+00 0.17112387E+04</pdfrwt>
<totfact> 0.71472666E-01</totfact>
</mgrwt>
</event>
<event>
 8    1  0.1714417E-029  0.1753053E+04  0.7818608E-02  0.8731671E-01
          3   -1    0    0  501    0  0.00000000000E+00  0.00000000000E+00  0.18941866294E+04  0.18941866321E+04  0.10100000000E+00 0.  1.
         -3   -1    0    0    0  501 -0.00000000000E+00 -0.00000000000E+00 -0.40560892633E+03  0.40560893891E+03  0.10100000000E+00 0. -1.
     200001    2    1    2    0    0  0.28817054563E+03 -0.19405560706E+03  0.22502754496E+03  0.81411093284E+03  0.70102736964E+03 0.  0.
    5000001    2    3    3    0    0  0.38954494223E+02 -0.83125426592E+02 -0.42892267459E+02  0.18467056942E+03  0.15438971286E+03 0.  0.
        -13    1    4    4    0    0  0.50452646360E+02  0.28165747262E+02  0.76536275423E+01  0.58286945555E+02  0.10566000000E+00 0. -1.
     200003    1    4    4    0    0 -0.11498152137E+02 -0.11129117385E+03 -0.50545895001E+02  0.12638362387E+03  0.30000000000E+02 0. -1.
     200000    1    3    3    0    0  0.24921605141E+03 -0.11093018047E+03  0.26791981242E+03  0.62944036342E+03  0.50000000000E+03 0. -1.
    -200001    1    1    2    0    0 -0.28817054563E+03  0.19405560706E+03  0.12635501581E+04  0.14856846381E+04  0.70000000000E+03 0.  1.
<mgrwt>
<rscale>  0 0.17530534E+04</rscale>
<asrwt>0</asrwt>
<pdfrwt beam="1">  1        3 0.27059809E+00 0.17530534E+04</pdfrwt>
<pdfrwt beam="2">  1       -3 0.57944134E-01 0.17530534E+04</pdfrwt>
<totfact> 0.41177894E-01</totfact>
</mgrwt>
</event>
<event>
 8    1  0.1714417E-029  0.1606559E+04  0.7818608E-02  0.8816529E-01
         -3   -1    0    0    0  501 -0.00000000000E+00  0.00000000000E+00  0.74669771490E+03  0.74669772173E+03  0.10100000000E+00 0.  1.
          3   -1    0    0  501    0  0.00000000000E+00 -0.00000000000E+00 -0.86414853957E+03  0.86414854548E+03  0.10100000000E+00 0. -1.
     200001    2    1    2    0    0 -0.38228125883E+03  0.71043039574E+02 -0.12351455668E+03  0.81008235495E+03  0.69985105684E+03 0.  0.
    5000001    2    3    3    0    0 -0.82406379501E-01 -0.12824033905E+02  0.94332037607E+02  0.13883963620E+03  0.10106160806E+03 0.  0.
        -13    1    4    4    0    0  0.43138282600E+02  0.70232829391E+00  0.22143418280E+02  0.48494812381E+02  0.10566000000E+00 0. -1.
     200003    1    4    4    0    0 -0.43220688980E+02 -0.13526362199E+02  0.72188619327E+02  0.90344823817E+02  0.30000000000E+02 0. -1.
     200000    1    3    3    0    0 -0.38219885245E+03  0.83867073479E+02 -0.21784659428E+03  0.67124271875E+03  0.50000000000E+03 0. -1.
    -200001    1    1    2    0    0  0.38228125883E+03 -0.71043039574E+02  0.60637319987E+01  0.80076391226E+03  0.70000000000E+03 0. -1.
<mgrwt>
<rscale>  0 0.16065587E+04</rscale>
<asrwt>0</asrwt>
<pdfrwt beam="1">  1        3 0.12344979E+00 0.16065587E+04</pdfrwt>
<pdfrwt beam="2">  1       -3 0.10667110E+00 0.16065587E+04</pdfrwt>
<totfact> 0.10012468E+00</totfact>
</mgrwt>
</event>
<event>
 8    1  0.1714417E-029  0.2513272E+04  0.7818608E-02  0.8398272E-01
          3   -1    0    0  501    0  0.00000000000E+00  0.00000000000E+00  0.17291446121E+04  0.17291446150E+04  0.10100000000E+00 0.  1.
         -3   -1    0    0    0  501 -0.00000000000E+00 -0.00000000000E+00 -0.91324584734E+03  0.91324585292E+03  0.10100000000E+00 0. -1.
     200001    2    1    2    0    0  0.25616152014E+03 -0.28340524962E+03  0.14290256721E+04  0.16364770202E+04  0.70000386149E+03 0.  0.
    5000001    2    3    3    0    0  0.27586567634E+02 -0.18182402478E+03  0.50232286894E+03  0.55419085674E+03  0.14483869075E+03 0.  0.
        -13    1    4    4    0    0 -0.43225420812E+02 -0.80522387821E+01  0.10066223721E+03  0.10984613201E+03  0.10566000000E+00 0. -1.
     200003    1    4    4    0    0  0.70811988446E+02 -0.17377178599E+03  0.40166063173E+03  0.44434472473E+03  0.30000000000E+02 0. -1.
     200000    1    3    3    0    0  0.22857495250E+03 -0.10158122485E+03  0.92670280317E+03  0.10822861634E+04  0.50000000000E+03 0.  1.
    -200001    1    1    2    0    0 -0.25616152014E+03  0.28340524962E+03 -0.61312690736E+03  0.10059134478E+04  0.70000000000E+03 0. -1.
<mgrwt>
<rscale>  0 0.25132721E+04</rscale>
<asrwt>0</asrwt>
<pdfrwt beam="1">  1        3 0.24702066E+00 0.25132721E+04</pdfrwt>
<pdfrwt beam="2">  1       -3 0.13046369E+00 0.25132721E+04</pdfrwt>
<totfact> 0.82799036E-02</totfact>
</mgrwt>
</event>
<event>
 8    1  0.1714417E-029  0.1645843E+04  0.7818608E-02  0.8792870E-01
          3   -1    0    0  501    0  0.00000000000E+00  0.00000000000E+00  0.48128421270E+03  0.48128422330E+03  0.10100000000E+00 0.  1.
         -3   -1    0    0    0  501 -0.00000000000E+00 -0.00000000000E+00 -0.14070682962E+04  0.14070682998E+04  0.10100000000E+00 0. -1.
     200001    2    1    2    0    0 -0.23494355830E+03 -0.28922292414E+03 -0.71593418534E+03  0.10680566282E+04  0.69952471572E+03 0.  0.
    5000001    2    3    3    0    0 -0.69600217047E+02 -0.10176296206E+03 -0.34325316802E+03  0.39621527898E+03  0.15480284001E+03 0.  0.
        -13    1    4    4    0    0 -0.77253937158E+02  0.12075995503E+02 -0.11180723815E+03  0.13643632266E+03  0.10566000000E+00 0. -1.
     200003    1    4    4    0    0  0.76537201109E+01 -0.11383895757E+03 -0.23144592987E+03  0.25977895632E+03  0.30000000000E+02 0. -1.
     200000    1    3    3    0    0 -0.16534334125E+03 -0.18745996207E+03 -0.37268101732E+03  0.67184134924E+03  0.50000000000E+03 0. -1.
    -200001    1    1    2    0    0  0.23494355830E+03  0.28922292414E+03 -0.20984989813E+03  0.82029589489E+03  0.70000000000E+03 0.  1.
<mgrwt>
<rscale>  0 0.16458430E+04</rscale>
<asrwt>0</asrwt>
<pdfrwt beam="1">  1        3 0.68754889E-01 0.16458430E+04</pdfrwt>
<pdfrwt beam="2">  1       -3 0.20100976E+00 0.16458430E+04</pdfrwt>
<totfact> 0.73683151E-01</totfact>
</mgrwt>
</event>
<event>
 8    1  0.1714417E-029  0.1883053E+04  0.7818608E-02  0.8663339E-01
         -3   -1    0    0    0  501 -0.00000000000E+00  0.00000000000E+00  0.23521123329E+04  0.23521123351E+04  0.10100000000E+00 0. -1.
          3   -1    0    0  501    0  0.00000000000E+00 -0.00000000000E+00 -0.37688321739E+03  0.37688323092E+03  0.10100000000E+00 0.  1.
     200001    2    1    2    0    0 -0.36488852962E+02 -0.46792263610E+03  0.37919873380E+03  0.92411440393E+03  0.69993765585E+03 0.  0.
    5000001    2    3    3    0    0 -0.56706884252E+02 -0.29271471286E+03  0.14545154815E+03  0.34467991070E+03  0.93544182772E+02 0.  0.
        -13    1    4    4    0    0 -0.19100041994E+02 -0.85692064260E+01 -0.18715129893E+01  0.21018007229E+02  0.10566000000E+00 0. -1.
     200003    1    4    4    0    0 -0.37606842257E+02 -0.28414550644E+03  0.14732306114E+03  0.32366190347E+03  0.30000000000E+02 0. -1.
     200000    1    3    3    0    0  0.20218031290E+02 -0.17520792324E+03  0.23374718564E+03  0.57943449324E+03  0.50000000000E+03 0.  1.
    -200001    1    1    2    0    0  0.36488852962E+02  0.46792263610E+03  0.15960303817E+04  0.18048811620E+04  0.70000000000E+03 0. -1.
<mgrwt>
<rscale>  0 0.18830525E+04</rscale>
<asrwt>0</asrwt>
<pdfrwt beam="1">  1        3 0.53840458E-01 0.18830525E+04</pdfrwt>
<pdfrwt beam="2">  1       -3 0.33601607E+00 0.18830525E+04</pdfrwt>
<totfact> 0.20169913E-01</totfact>
</mgrwt>
</event>
<event>
 8    1  0.1714417E-029  0.1726232E+04  0.7818608E-02  0.8746543E-01
         -3   -1    0    0    0  501 -0.00000000000E+00  0.00000000000E+00  0.10141098482E+04  0.10141098533E+04  0.10100000000E+00 0. -1.
          3   -1    0    0  501    0  0.00000000000E+00 -0.00000000000E+00 -0.73460373121E+03  0.73460373815E+03  0.10100000000E+00 0.  1.
     200001    2    1    2    0    0 -0.37901573827E+03  0.30251035906E+03  0.24283305748E+03  0.89635782034E+03  0.71366939200E+03 0.  0.
    5000001    2    3    3    0    0 -0.16187567110E+03  0.13277283405E+03  0.36232297827E+02  0.28919679552E+03  0.19618778957E+03 0.  0.
        -13    1    4    4    0    0  0.28137731188E+02  0.43904918854E+02  0.55822688465E+02  0.76390820963E+02  0.10566000000E+00 0. -1.
     200003    1    4    4    0    0 -0.19001340229E+03  0.88867915197E+02 -0.19590390638E+02  0.21280597456E+03  0.30000000000E+02 0. -1.
     200000    1    3    3    0    0 -0.21714006716E+03  0.16973752501E+03  0.20660075966E+03  0.60716102482E+03  0.50000000000E+03 0.  1.
    -200001    1    1    2    0    0  0.37901573827E+03 -0.30251035906E+03  0.36673059539E+02  0.85235577108E+03  0.70000000000E+03 0. -1.
<mgrwt>
<rscale>  0 0.17262316E+04</rscale>
<asrwt>0</asrwt>
<pdfrwt beam="1">  1        3 0.10494339E+00 0.17262316E+04</pdfrwt>
<pdfrwt beam="2">  1       -3 0.14487283E+00 0.17262316E+04</pdfrwt>
<totfact> 0.68927551E-01</totfact>
</mgrwt>
</event>
<event>
 8    1  0.1714417E-029  0.1814302E+04  0.7818608E-02  0.8698730E-01
          3   -1    0    0  501    0  0.00000000000E+00  0.00000000000E+00  0.25092778220E+04  0.25092778240E+04  0.10100000000E+00 0. -1.
         -3   -1    0    0    0  501 -0.00000000000E+00 -0.00000000000E+00 -0.32795216773E+03  0.32795218329E+03  0.10100000000E+00 0.  1.
     200001    2    1    2    0    0  0.19967838959E+03 -0.45157700509E+03  0.62339644702E+03  0.10593276856E+04  0.69982766773E+03 0.  0.
    5000001    2    3    3    0    0 -0.12148543164E+02 -0.21703972146E+03  0.81934296196E+02  0.25741768589E+03  0.11089097494E+03 0.  0.
        -13    1    4    4    0    0  0.33605526839E+02 -0.10321950138E+03  0.32047737391E+01  0.10859962540E+03  0.10566000000E+00 0. -1.
     200003    1    4    4    0    0 -0.45754070003E+02 -0.11382022009E+03  0.78729522457E+02  0.14881806049E+03  0.30000000000E+02 0. -1.
     200000    1    3    3    0    0  0.21182693275E+03 -0.23453728363E+03  0.54146215083E+03  0.80190999971E+03  0.50000000000E+03 0.  1.
    -200001    1    1    2    0    0 -0.19967838959E+03  0.45157700509E+03  0.15579292073E+04  0.17779023217E+04  0.70000000000E+03 0. -1.
<mgrwt>
<rscale>  0 0.18143022E+04</rscale>
<asrwt>0</asrwt>
<pdfrwt beam="1">  1        3 0.35846824E+00 0.18143022E+04</pdfrwt>
<pdfrwt beam="2">  1       -3 0.46850314E-01 0.18143022E+04</pdfrwt>
<totfact> 0.20950242E-01</totfact>
</mgrwt>
</event>
<event>
 8    1  0.1714417E-029  0.1471367E+04  0.7818608E-02  0.8903720E-01
         -3   -1    0    0    0  501 -0.00000000000E+00  0.00000000000E+00  0.86074407309E+03  0.86074407902E+03  0.10100000000E+00 0. -1.
          3   -1    0    0  501    0  0.00000000000E+00 -0.00000000000E+00 -0.62879362966E+03  0.62879363777E+03  0.10100000000E+00 0.  1.
     200001    2    1    2    0    0 -0.54144740734E+02 -0.21621866147E+03  0.76172748513E+02  0.73857243613E+03  0.70000342376E+03 0.  0.
    5000001    2    3    3    0    0  0.65035365322E+02 -0.11082205612E+03  0.60354904822E+01  0.20920339939E+03  0.16498032702E+03 0.  0.
        -13    1    4    4    0    0  0.36242446449E+02 -0.76943476017E+02  0.80717493276E+02  0.11725671968E+03  0.10566000000E+00 0. -1.
     200003    1    4    4    0    0  0.28792918873E+02 -0.33878580105E+02 -0.74682002794E+02  0.91946679703E+02  0.30000000000E+02 0. -1.
     200000    1    3    3    0    0 -0.11918010606E+03 -0.10539660534E+03  0.70137258031E+02  0.52936903674E+03  0.50000000000E+03 0.  1.
    -200001    1    1    2    0    0  0.54144740734E+02  0.21621866147E+03  0.15577769492E+03  0.75096528066E+03  0.70000000000E+03 0.  1.
<mgrwt>
<rscale>  0 0.14713673E+04</rscale>
<asrwt>0</asrwt>
<pdfrwt beam="1">  1        3 0.89827662E-01 0.14713673E+04</pdfrwt>
<pdfrwt beam="2">  1       -3 0.12296344E+00 0.14713673E+04</pdfrwt>
<totfact> 0.15222288E+00</totfact>
</mgrwt>
</event>
<event>
 8    1  0.1714417E-029  0.1586003E+04  0.7818608E-02  0.8829193E-01
         -3   -1    0    0    0  501 -0.00000000000E+00  0.00000000000E+00  0.61805470919E+03  0.61805471744E+03  0.10100000000E+00 0. -1.
          3   -1    0    0  501    0  0.00000000000E+00 -0.00000000000E+00 -0.10174690052E+04  0.10174690102E+04  0.10100000000E+00 0.  1.
     200001    2    1    2    0    0  0.11762813191E+03  0.35355962735E+03 -0.20703009150E+03  0.81952589082E+03  0.69994316871E+03 0.  0.
    5000001    2    3    3    0    0  0.54521266534E+02  0.41526907870E+02 -0.25005198191E+02  0.19946141331E+03  0.18564089765E+03 0.  0.
        -13    1    4    4    0    0  0.50815966426E+02 -0.39475518298E+02 -0.75607615848E+02  0.99282937743E+02  0.10566000000E+00 0. -1.
     200003    1    4    4    0    0  0.37053001076E+01  0.81002426168E+02  0.50602417657E+02  0.10017847557E+03  0.30000000000E+02 0. -1.
     200000    1    3    3    0    0  0.63106865374E+02  0.31203271948E+03 -0.18202489331E+03  0.62006447751E+03  0.50000000000E+03 0.  1.
    -200001    1    1    2    0    0 -0.11762813191E+03 -0.35355962735E+03 -0.19238420447E+03  0.81599783679E+03  0.70000000000E+03 0. -1.
<mgrwt>
<rscale>  0 0.15860032E+04</rscale>
<asrwt>0</asrwt>
<pdfrwt beam="1">  1        3 0.14535272E+00 0.15860032E+04</pdfrwt>
<pdfrwt beam="2">  1       -3 0.88293531E-01 0.15860032E+04</pdfrwt>
<totfact> 0.10332848E+00</totfact>
</mgrwt>
</event>
<event>
 8    1  0.1714417E-029  0.1713309E+04  0.7818608E-02  0.8753810E-01
         -3   -1    0    0    0  501 -0.00000000000E+00  0.00000000000E+00  0.30184558255E+03  0.30184559945E+03  0.10100000000E+00 0.  1.
          3   -1    0    0  501    0  0.00000000000E+00 -0.00000000000E+00 -0.24312324866E+04  0.24312324887E+04  0.10100000000E+00 0. -1.
     200001    2    1    2    0    0 -0.59353728510E+02  0.68999355074E+02 -0.18393096681E+04  0.19699080030E+04  0.69942384070E+03 0.  0.
    5000001    2    3    3    0    0 -0.47005054864E+02  0.43142646458E+02 -0.36395525979E+03  0.41186702494E+03  0.18193474649E+03 0.  0.
        -13    1    4    4    0    0 -0.45121890366E+02 -0.58237325394E+02 -0.22814639374E+03  0.23974644773E+03  0.10566000000E+00 0. -1.
     200003    1    4    4    0    0 -0.18831644975E+01  0.10137997185E+03 -0.13580886605E+03  0.17212057721E+03  0.30000000000E+02 0. -1.
     200000    1    3    3    0    0 -0.12348673646E+02  0.25856708616E+02 -0.14753544084E+04  0.15580409781E+04  0.50000000000E+03 0. -1.
    -200001    1    1    2    0    0  0.59353728510E+02 -0.68999355074E+02 -0.29007723595E+03  0.76317008517E+03  0.70000000000E+03 0.  1.
<mgrwt>
<rscale>  0 0.17133089E+04</rscale>
<asrwt>0</asrwt>
<pdfrwt beam="1">  1        3 0.34731892E+00 0.17133089E+04</pdfrwt>
<pdfrwt beam="2">  1       -3 0.43120800E-01 0.17133089E+04</pdfrwt>
<totfact> 0.28696455E-01</totfact>
</mgrwt>
</event>
<event>
 8    1  0.1714417E-029  0.2409662E+04  0.7818608E-02  0.8435895E-01
         -3   -1    0    0    0  501 -0.00000000000E+00  0.00000000000E+00  0.73135979077E+03  0.73135979774E+03  0.10100000000E+00 0.  1.
          3   -1    0    0  501    0  0.00000000000E+00 -0.00000000000E+00 -0.19848199169E+04  0.19848199195E+04  0.10100000000E+00 0. -1.
     200001    2    1    2    0    0 -0.20325491555E+03 -0.78757929878E+03 -0.12442222900E+04  0.16430166121E+04  0.69987196552E+03 0.  0.
    5000001    2    3    3    0    0  0.29418690818E+02 -0.15017254755E+03 -0.34854414541E+03  0.41311266775E+03  0.16050483341E+03 0.  0.
        -13    1    4    4    0    0  0.11259621653E+02 -0.40283487548E+01 -0.20478969905E+03  0.20513858407E+03  0.10566000000E+00 0. -1.
     200003    1    4    4    0    0  0.18159069165E+02 -0.14614419880E+03 -0.14375444637E+03  0.20797408369E+03  0.30000000000E+02 0. -1.
     200000    1    3    3    0    0 -0.23267360637E+03 -0.63740675123E+03 -0.89567814463E+03  0.12299039444E+04  0.50000000000E+03 0. -1.
    -200001    1    1    2    0    0  0.20325491555E+03  0.78757929878E+03 -0.92378361157E+01  0.10731631051E+04  0.70000000000E+03 0.  1.
<mgrwt>
<rscale>  0 0.24096618E+04</rscale>
<asrwt>0</asrwt>
<pdfrwt beam="1">  1        3 0.28354570E+00 0.24096618E+04</pdfrwt>
<pdfrwt beam="2">  1       -3 0.10447997E+00 0.24096618E+04</pdfrwt>
<totfact> 0.88868518E-02</totfact>
</mgrwt>
</event>
<event>
 8    1  0.1714417E-029  0.1415872E+04  0.7818608E-02  0.8942409E-01
         -3   -1    0    0    0  501 -0.00000000000E+00  0.00000000000E+00  0.14513168356E+04  0.14513168391E+04  0.10100000000E+00 0. -1.
          3   -1    0    0  501    0  0.00000000000E+00 -0.00000000000E+00 -0.34532322127E+03  0.34532323604E+03  0.10100000000E+00 0.  1.
     200001    2    1    2    0    0  0.91529983120E+02 -0.33101075600E+02  0.60397946563E+03  0.92975390933E+03  0.70012692991E+03 0.  0.
    5000001    2    3    3    0    0  0.16710780918E+02  0.21699296305E+02  0.21445739941E+03  0.28918507318E+03  0.19205707674E+03 0.  0.
        -13    1    4    4    0    0  0.52422080180E+02 -0.31451340672E+02  0.20956905798E+03  0.21830360177E+03  0.10566000000E+00 0. -1.
     200003    1    4    4    0    0 -0.35711299261E+02  0.53150636977E+02  0.48883414325E+01  0.70881471401E+02  0.30000000000E+02 0. -1.
     200000    1    3    3    0    0  0.74819202202E+02 -0.54800371905E+02  0.38952206622E+03  0.64056883615E+03  0.50000000000E+03 0. -1.
    -200001    1    1    2    0    0 -0.91529983120E+02  0.33101075600E+02  0.50201414871E+03  0.86688616584E+03  0.70000000000E+03 0. -1.
<mgrwt>
<rscale>  0 0.14158721E+04</rscale>
<asrwt>0</asrwt>
<pdfrwt beam="1">  1        3 0.49331890E-01 0.14158721E+04</pdfrwt>
<pdfrwt beam="2">  1       -3 0.20733098E+00 0.14158721E+04</pdfrwt>
<totfact> 0.13754559E+00</totfact>
</mgrwt>
</event>
<event>
 8    1  0.1714417E-029  0.1407977E+04  0.7818608E-02  0.8948065E-01
         -3   -1    0    0    0  501 -0.00000000000E+00  0.00000000000E+00  0.37197032596E+03  0.37197033967E+03  0.10100000000E+00 0. -1.
          3   -1    0    0  501    0  0.00000000000E+00 -0.00000000000E+00 -0.13323638204E+04  0.13323638243E+04  0.10100000000E+00 0.  1.
     200001    2    1    2    0    0  0.20483278066E+02  0.11439960427E+02 -0.55186824017E+03  0.89350537758E+03  0.70231251440E+03 0.  0.
    5000001    2    3    3    0    0  0.49663678643E+02 -0.35007076559E+02 -0.16400837435E+03  0.25833288248E+03  0.19011879162E+03 0.  0.
        -13    1    4    4    0    0  0.44046055821E+02 -0.56808841754E+02  0.16678851676E+02  0.73793595874E+02  0.10566000000E+00 0. -1.
     200003    1    4    4    0    0  0.56176228222E+01  0.21801765195E+02 -0.18068722602E+03  0.18453928660E+03  0.30000000000E+02 0. -1.
     200000    1    3    3    0    0 -0.29180400577E+02  0.46447036986E+02 -0.38785986582E+03  0.63517249511E+03  0.50000000000E+03 0.  1.
    -200001    1    1    2    0    0 -0.20483278066E+02 -0.11439960427E+02 -0.40852525431E+03  0.81082878635E+03  0.70000000000E+03 0. -1.
<mgrwt>
<rscale>  0 0.14079770E+04</rscale>
<asrwt>0</asrwt>
<pdfrwt beam="1">  1        3 0.19033769E+00 0.14079770E+04</pdfrwt>
<pdfrwt beam="2">  1       -3 0.53138620E-01 0.14079770E+04</pdfrwt>
<totfact> 0.15230572E+00</totfact>
</mgrwt>
</event>
<event>
 8    1  0.1714417E-029  0.1446110E+04  0.7818608E-02  0.8921102E-01
         -3   -1    0    0    0  501 -0.00000000000E+00  0.00000000000E+00  0.23915914469E+04  0.23915914490E+04  0.10100000000E+00 0.  1.
          3   -1    0    0  501    0  0.00000000000E+00 -0.00000000000E+00 -0.21860284934E+03  0.21860287267E+03  0.10100000000E+00 0. -1.
     200001    2    1    2    0    0 -0.12063560556E+03 -0.81915938538E+02  0.89610090842E+03  0.11467376804E+04  0.70053358180E+03 0.  0.
    5000001    2    3    3    0    0 -0.28902800134E+02 -0.74156895323E+02  0.19221036014E+03  0.27844221552E+03  0.18506925152E+03 0.  0.
        -13    1    4    4    0    0  0.37829693432E+02  0.58682801094E+01  0.16117245197E+03  0.16565655090E+03  0.10566000000E+00 0. -1.
     200003    1    4    4    0    0 -0.66732493567E+02 -0.80025175432E+02  0.31037908164E+02  0.11278566462E+03  0.30000000000E+02 0. -1.
     200000    1    3    3    0    0 -0.91732805429E+02 -0.77590432150E+01  0.70389054829E+03  0.86829546487E+03  0.50000000000E+03 0. -1.
    -200001    1    1    2    0    0  0.12063560556E+03  0.81915938538E+02  0.12768876891E+04  0.14634566413E+04  0.70000000000E+03 0. -1.
<mgrwt>
<rscale>  0 0.14461103E+04</rscale>
<asrwt>0</asrwt>
<pdfrwt beam="1">  1        3 0.31228980E-01 0.14461103E+04</pdfrwt>
<pdfrwt beam="2">  1       -3 0.34165593E+00 0.14461103E+04</pdfrwt>
<totfact> 0.57601425E-01</totfact>
</mgrwt>
</event>
<event>
 8    1  0.1714417E-029  0.1554943E+04  0.7818608E-02  0.8848716E-01
         -3   -1    0    0    0  501 -0.00000000000E+00  0.00000000000E+00  0.14586641601E+04  0.14586641636E+04  0.10100000000E+00 0. -1.
          3   -1    0    0  501    0  0.00000000000E+00 -0.00000000000E+00 -0.41439431842E+03  0.41439433073E+03  0.10100000000E+00 0.  1.
     200001    2    1    2    0    0  0.26661195753E+03 -0.63994017994E+02  0.28509469165E+03  0.80463719229E+03  0.70070311671E+03 0.  0.
    5000001    2    3    3    0    0  0.13878123662E+03 -0.46889833013E+02  0.59649753577E+02  0.24120248759E+03  0.18210342897E+03 0.  0.
        -13    1    4    4    0    0 -0.12512659035E+02 -0.56029866421E+02 -0.27664678840E+02  0.63728001590E+02  0.10566000000E+00 0. -1.
     200003    1    4    4    0    0  0.15129389566E+03  0.91400334079E+01  0.87314432416E+02  0.17747448600E+03  0.30000000000E+02 0. -1.
     200000    1    3    3    0    0  0.12783072091E+03 -0.17104184981E+02  0.22544493808E+03  0.56343470470E+03  0.50000000000E+03 0.  1.
    -200001    1    1    2    0    0 -0.26661195753E+03  0.63994017994E+02  0.75917515002E+03  0.10684213020E+04  0.70000000000E+03 0. -1.
<mgrwt>
<rscale>  0 0.15549433E+04</rscale>
<asrwt>0</asrwt>
<pdfrwt beam="1">  1        3 0.59199188E-01 0.15549433E+04</pdfrwt>
<pdfrwt beam="2">  1       -3 0.20838060E+00 0.15549433E+04</pdfrwt>
<totfact> 0.91855302E-01</totfact>
</mgrwt>
</event>
<event>
 8    1  0.1714417E-029  0.1476823E+04  0.7818608E-02  0.8900013E-01
          3   -1    0    0  501    0  0.00000000000E+00  0.00000000000E+00  0.67534013034E+03  0.67534013790E+03  0.10100000000E+00 0. -1.
         -3   -1    0    0    0  501 -0.00000000000E+00 -0.00000000000E+00 -0.80737310931E+03  0.80737311562E+03  0.10100000000E+00 0.  1.
     200001    2    1    2    0    0 -0.15814301935E+03  0.10127029998E+03 -0.20682920346E+03  0.75411229042E+03  0.70045852050E+03 0.  0.
    5000001    2    3    3    0    0  0.76607152640E+02  0.47741981666E+02 -0.42022650808E+02  0.17520459147E+03  0.14416238428E+03 0.  0.
        -13    1    4    4    0    0  0.13481615798E+02 -0.42156898681E+02  0.16424700432E+02  0.47209533140E+02  0.10566000000E+00 0. -1.
     200003    1    4    4    0    0  0.63125536842E+02  0.89898880348E+02 -0.58447351240E+02  0.12799505833E+03  0.30000000000E+02 0. -1.
     200000    1    3    3    0    0 -0.23475017199E+03  0.53528318311E+02 -0.16480655265E+03  0.57890769895E+03  0.50000000000E+03 0. -1.
    -200001    1    1    2    0    0  0.15814301935E+03 -0.10127029998E+03  0.74796224500E+02  0.72860096310E+03  0.70000000000E+03 0. -1.
<mgrwt>
<rscale>  0 0.14768229E+04</rscale>
<asrwt>0</asrwt>
<pdfrwt beam="1">  1        3 0.96477162E-01 0.14768229E+04</pdfrwt>
<pdfrwt beam="2">  1       -3 0.11533902E+00 0.14768229E+04</pdfrwt>
<totfact> 0.15092414E+00</totfact>
</mgrwt>
</event>
<event>
 8    1  0.1714417E-029  0.1449031E+04  0.7818608E-02  0.8919072E-01
         -3   -1    0    0    0  501 -0.00000000000E+00  0.00000000000E+00  0.21938463572E+03  0.21938465897E+03  0.10100000000E+00 0. -1.
          3   -1    0    0  501    0  0.00000000000E+00 -0.00000000000E+00 -0.23927050913E+04  0.23927050934E+04  0.10100000000E+00 0.  1.
     200001    2    1    2    0    0  0.14890748288E+02 -0.47299475056E+02 -0.76457267188E+03  0.10382316607E+04  0.70063873427E+03 0.  0.
    5000001    2    3    3    0    0  0.95620356018E+02 -0.87208938173E+02 -0.34174592232E+03  0.37725322310E+03  0.93707350508E+02 0.  0.
        -13    1    4    4    0    0 -0.13231960039E+02  0.43076270793E+01 -0.22110927582E+02  0.26125556455E+02  0.10566000000E+00 0. -1.
     200003    1    4    4    0    0  0.10885231606E+03 -0.91516565252E+02 -0.31963499474E+03  0.35112766665E+03  0.30000000000E+02 0. -1.
     200000    1    3    3    0    0 -0.80729607731E+02  0.39909463117E+02 -0.42282674956E+03  0.66097843758E+03  0.50000000000E+03 0. -1.
    -200001    1    1    2    0    0 -0.14890748288E+02  0.47299475056E+02 -0.14087477837E+04  0.15738580917E+04  0.70000000000E+03 0.  1.
<mgrwt>
<rscale>  0 0.14490311E+04</rscale>
<asrwt>0</asrwt>
<pdfrwt beam="1">  1        3 0.34181500E+00 0.14490311E+04</pdfrwt>
<pdfrwt beam="2">  1       -3 0.31340665E-01 0.14490311E+04</pdfrwt>
<totfact> 0.58695933E-01</totfact>
</mgrwt>
</event>
<event>
 8    1  0.1714417E-029  0.1566378E+04  0.7818608E-02  0.8841474E-01
         -3   -1    0    0    0  501 -0.00000000000E+00  0.00000000000E+00  0.48642240925E+03  0.48642241973E+03  0.10100000000E+00 0. -1.
          3   -1    0    0  501    0  0.00000000000E+00 -0.00000000000E+00 -0.12610125072E+04  0.12610125112E+04  0.10100000000E+00 0.  1.
     200001    2    1    2    0    0 -0.23045049158E+03  0.41995789456E+02 -0.67936115742E+03  0.10031637260E+04  0.69995342954E+03 0.  0.
    5000001    2    3    3    0    0  0.77852749882E+02  0.93655773196E+01 -0.71232324853E+02  0.15703353716E+03  0.11591687965E+03 0.  0.
        -13    1    4    4    0    0 -0.26777665160E+02 -0.54934313767E+01 -0.27553582775E+02  0.38812784331E+02  0.10566000000E+00 0. -1.
     200003    1    4    4    0    0  0.10463041504E+03  0.14859008696E+02 -0.43678742078E+02  0.11822075283E+03  0.30000000000E+02 0. -1.
     200000    1    3    3    0    0 -0.30830324146E+03  0.32630212136E+02 -0.60812883257E+03  0.84613018882E+03  0.50000000000E+03 0.  1.
    -200001    1    1    2    0    0  0.23045049158E+03 -0.41995789456E+02 -0.95228940487E+02  0.74427120494E+03  0.70000000000E+03 0. -1.
<mgrwt>
<rscale>  0 0.15663777E+04</rscale>
<asrwt>0</asrwt>
<pdfrwt beam="1">  1        3 0.18014464E+00 0.15663777E+04</pdfrwt>
<pdfrwt beam="2">  1       -3 0.69488917E-01 0.15663777E+04</pdfrwt>
<totfact> 0.99477997E-01</totfact>
</mgrwt>
</event>
<event>
 8    1  0.1714417E-029  0.1512559E+04  0.7818608E-02  0.8876144E-01
          3   -1    0    0  501    0  0.00000000000E+00  0.00000000000E+00  0.15230931541E+04  0.15230931574E+04  0.10100000000E+00 0. -1.
         -3   -1    0    0    0  501 -0.00000000000E+00 -0.00000000000E+00 -0.37552462532E+03  0.37552463891E+03  0.10100000000E+00 0.  1.
     200001    2    1    2    0    0  0.11846973830E+03 -0.19879481851E+03  0.78612919727E+03  0.10775253234E+04  0.69964794647E+03 0.  0.
    5000001    2    3    3    0    0  0.44744158049E+02  0.12742366801E+02  0.21320703508E+03  0.28479381407E+03  0.18299144552E+03 0.  0.
        -13    1    4    4    0    0  0.92153361979E+02  0.10666658842E+01  0.36667338228E+02  0.99186111714E+02  0.10566000000E+00 0. -1.
     200003    1    4    4    0    0 -0.47409203930E+02  0.11675700917E+02  0.17653969685E+03  0.18560770235E+03  0.30000000000E+02 0. -1.
     200000    1    3    3    0    0  0.73725580252E+02 -0.21153718531E+03  0.57292216220E+03  0.79273150933E+03  0.50000000000E+03 0.  1.
    -200001    1    1    2    0    0 -0.11846973830E+03  0.19879481851E+03  0.36143933147E+03  0.82109247293E+03  0.70000000000E+03 0. -1.
<mgrwt>
<rscale>  0 0.15125594E+04</rscale>
<asrwt>0</asrwt>
<pdfrwt beam="1">  1        3 0.21758473E+00 0.15125594E+04</pdfrwt>
<pdfrwt beam="2">  1       -3 0.53646377E-01 0.15125594E+04</pdfrwt>
<totfact> 0.10013556E+00</totfact>
</mgrwt>
</event>
<event>
 8    1  0.1714417E-029  0.1757342E+04  0.7818608E-02  0.8729319E-01
          3   -1    0    0  501    0  0.00000000000E+00  0.00000000000E+00  0.12714834427E+04  0.12714834467E+04  0.10100000000E+00 0.  1.
         -3   -1    0    0    0  501 -0.00000000000E+00 -0.00000000000E+00 -0.60721441766E+03  0.60721442606E+03  0.10100000000E+00 0. -1.
     200001    2    1    2    0    0 -0.30759536366E+03  0.41588275720E+03  0.45943707349E+03  0.98453373576E+03  0.70046475777E+03 0.  0.
    5000001    2    3    3    0    0 -0.11326716661E+03  0.16470314090E+03  0.11988192163E+03  0.30178023049E+03  0.19168478481E+03 0.  0.
        -13    1    4    4    0    0 -0.63894759833E+02  0.52244370452E+02  0.15054455684E+03  0.17168485471E+03  0.10566000000E+00 0. -1.
     200003    1    4    4    0    0 -0.49372406779E+02  0.11245877044E+03 -0.30662635212E+02  0.13009537578E+03  0.30000000000E+02 0. -1.
     200000    1    3    3    0    0 -0.19432819705E+03  0.25117961631E+03  0.33955515186E+03  0.68275350528E+03  0.50000000000E+03 0. -1.
    -200001    1    1    2    0    0  0.30759536366E+03 -0.41588275720E+03  0.20483195151E+03  0.89416413697E+03  0.70000000000E+03 0.  1.
<mgrwt>
<rscale>  0 0.17573424E+04</rscale>
<asrwt>0</asrwt>
<pdfrwt beam="1">  1        3 0.18164049E+00 0.17573424E+04</pdfrwt>
<pdfrwt beam="2">  1       -3 0.86744917E-01 0.17573424E+04</pdfrwt>
<totfact> 0.58563985E-01</totfact>
</mgrwt>
</event>
<event>
 8    1  0.1714417E-029  0.1918739E+04  0.7818608E-02  0.8645585E-01
         -3   -1    0    0    0  501 -0.00000000000E+00  0.00000000000E+00  0.11224420480E+04  0.11224420525E+04  0.10100000000E+00 0.  1.
          3   -1    0    0  501    0  0.00000000000E+00 -0.00000000000E+00 -0.81998854075E+03  0.81998854697E+03  0.10100000000E+00 0. -1.
     200001    2    1    2    0    0  0.18513641841E+03  0.66853858242E+02  0.78501128669E+03  0.10697296528E+04  0.69952403682E+03 0.  0.
    5000001    2    3    3    0    0  0.33577514246E+02  0.13334699475E+02  0.18149187180E+03  0.26968585030E+03  0.19617822165E+03 0.  0.
        -13    1    4    4    0    0 -0.40852682115E+02  0.74629502630E+02  0.13246408882E+03  0.15743332014E+03  0.10566000000E+00 0. -1.
     200003    1    4    4    0    0  0.74430196361E+02 -0.61294803155E+02  0.49027782983E+02  0.11225253016E+03  0.30000000000E+02 0. -1.
     200000    1    3    3    0    0  0.15155890416E+03  0.53519158766E+02  0.60351941489E+03  0.80004380251E+03  0.50000000000E+03 0.  1.
    -200001    1    1    2    0    0 -0.18513641841E+03 -0.66853858242E+02 -0.48255777947E+03  0.87270094667E+03  0.70000000000E+03 0. -1.
<mgrwt>
<rscale>  0 0.19187388E+04</rscale>
<asrwt>0</asrwt>
<pdfrwt beam="1">  1        3 0.11714122E+00 0.19187388E+04</pdfrwt>
<pdfrwt beam="2">  1       -3 0.16034886E+00 0.19187388E+04</pdfrwt>
<totfact> 0.40037235E-01</totfact>
</mgrwt>
</event>
<event>
 8    1  0.1714417E-029  0.1953576E+04  0.7818608E-02  0.8628638E-01
         -3   -1    0    0    0  501 -0.00000000000E+00  0.00000000000E+00  0.62517963745E+03  0.62517964561E+03  0.10100000000E+00 0. -1.
          3   -1    0    0  501    0  0.00000000000E+00 -0.00000000000E+00 -0.15261456900E+04  0.15261456934E+04  0.10100000000E+00 0.  1.
     200001    2    1    2    0    0  0.22307462858E+03  0.64338337504E+03 -0.46540125145E+03  0.10820166122E+04  0.70032647177E+03 0.  0.
    5000001    2    3    3    0    0 -0.49236359939E+01  0.21288956017E+03 -0.56456539044E+02  0.27297773113E+03  0.16119334314E+03 0.  0.
        -13    1    4    4    0    0 -0.35854196400E+02  0.36473287121E+02  0.42200216833E+02  0.66307567726E+02  0.10566000000E+00 0. -1.
     200003    1    4    4    0    0  0.30930560406E+02  0.17641627305E+03 -0.98656755877E+02  0.20667016341E+03  0.30000000000E+02 0. -1.
     200000    1    3    3    0    0  0.22799826457E+03  0.43049381487E+03 -0.40894471241E+03  0.80903888108E+03  0.50000000000E+03 0. -1.
    -200001    1    1    2    0    0 -0.22307462858E+03 -0.64338337504E+03 -0.43556480115E+03  0.10693087268E+04  0.70000000000E+03 0. -1.
<mgrwt>
<rscale>  0 0.19535764E+04</rscale>
<asrwt>0</asrwt>
<pdfrwt beam="1">  1        3 0.21802081E+00 0.19535764E+04</pdfrwt>
<pdfrwt beam="2">  1       -3 0.89311378E-01 0.19535764E+04</pdfrwt>
<totfact> 0.31754411E-01</totfact>
</mgrwt>
</event>
<event>
 8    1  0.1714417E-029  0.1676974E+04  0.7818608E-02  0.8774607E-01
         -3   -1    0    0    0  501 -0.00000000000E+00  0.00000000000E+00  0.10190431660E+04  0.10190431710E+04  0.10100000000E+00 0. -1.
          3   -1    0    0  501    0  0.00000000000E+00 -0.00000000000E+00 -0.68992234824E+03  0.68992235563E+03  0.10100000000E+00 0.  1.
     200001    2    1    2    0    0 -0.38465717060E+03  0.22477778647E+03  0.28864399541E+03  0.87822816418E+03  0.69963073124E+03 0.  0.
    5000001    2    3    3    0    0 -0.29265967721E+02  0.57832627205E+02  0.20074615994E+02  0.18808100245E+03  0.17541483301E+03 0.  0.
        -13    1    4    4    0    0 -0.21772098927E+02 -0.58184709571E+02  0.27165120743E+02  0.67804422191E+02  0.10566000000E+00 0. -1.
     200003    1    4    4    0    0 -0.74938687940E+01  0.11601733678E+03 -0.70905047488E+01  0.12027658026E+03  0.30000000000E+02 0. -1.
     200000    1    3    3    0    0 -0.35539120288E+03  0.16694515927E+03  0.26856937941E+03  0.69014716173E+03  0.50000000000E+03 0. -1.
    -200001    1    1    2    0    0  0.38465717060E+03 -0.22477778647E+03  0.40476822329E+02  0.83073736243E+03  0.70000000000E+03 0. -1.
<mgrwt>
<rscale>  0 0.16769743E+04</rscale>
<asrwt>0</asrwt>
<pdfrwt beam="1">  1        3 0.98560336E-01 0.16769743E+04</pdfrwt>
<pdfrwt beam="2">  1       -3 0.14557760E+00 0.16769743E+04</pdfrwt>
<totfact> 0.79188589E-01</totfact>
</mgrwt>
</event>
<event>
 8    1  0.1714417E-029  0.1529262E+04  0.7818608E-02  0.8865224E-01
          3   -1    0    0  501    0  0.00000000000E+00  0.00000000000E+00  0.66138842424E+03  0.66138843195E+03  0.10100000000E+00 0.  1.
         -3   -1    0    0    0  501 -0.00000000000E+00 -0.00000000000E+00 -0.88398939612E+03  0.88398940189E+03  0.10100000000E+00 0. -1.
     200001    2    1    2    0    0 -0.19357238988E+03  0.10617619466E+03  0.10751543239E+03  0.74056698972E+03  0.69866747714E+03 0.  0.
    5000001    2    3    3    0    0 -0.10854128126E+03  0.12782092682E+03  0.21600953733E+02  0.22570770651E+03  0.14952581216E+03 0.  0.
        -13    1    4    4    0    0 -0.39566388173E+02  0.79455076452E+02  0.79513698564E+02  0.11916814872E+03  0.10566000000E+00 0. -1.
     200003    1    4    4    0    0 -0.68974893088E+02  0.48365850372E+02 -0.57912744831E+02  0.10653955778E+03  0.30000000000E+02 0. -1.
     200000    1    3    3    0    0 -0.85031108623E+02 -0.21644732167E+02  0.85914478661E+02  0.51485928321E+03  0.50000000000E+03 0.  1.
    -200001    1    1    2    0    0  0.19357238988E+03 -0.10617619466E+03 -0.33011640428E+03  0.80481084412E+03  0.70000000000E+03 0. -1.
<mgrwt>
<rscale>  0 0.15292617E+04</rscale>
<asrwt>0</asrwt>
<pdfrwt beam="1">  1        3 0.94484061E-01 0.15292617E+04</pdfrwt>
<pdfrwt beam="2">  1       -3 0.12628420E+00 0.15292617E+04</pdfrwt>
<totfact> 0.12640406E+00</totfact>
</mgrwt>
</event>
<event>
 8    1  0.1714417E-029  0.1973874E+04  0.7818608E-02  0.8618934E-01
          3   -1    0    0  501    0  0.00000000000E+00  0.00000000000E+00  0.32826596434E+03  0.32826597988E+03  0.10100000000E+00 0. -1.
         -3   -1    0    0    0  501 -0.00000000000E+00 -0.00000000000E+00 -0.29672417662E+04  0.29672417680E+04  0.10100000000E+00 0.  1.
     200001    2    1    2    0    0  0.21867871550E+03  0.58127916147E+03 -0.18336251702E+04  0.20608841274E+04  0.70665145409E+03 0.  0.
    5000001    2    3    3    0    0  0.12198327988E+02  0.17150048307E+03 -0.52410955823E+03  0.58596587416E+03  0.19774721682E+03 0.  0.
        -13    1    4    4    0    0  0.51251601726E+02  0.19788762378E+03 -0.38173880967E+03  0.43302513587E+03  0.10566000000E+00 0. -1.
     200003    1    4    4    0    0 -0.39053273738E+02 -0.26387140712E+02 -0.14237074856E+03  0.15294073829E+03  0.30000000000E+02 0. -1.
     200000    1    3    3    0    0  0.20648038751E+03  0.40977867840E+03 -0.13095156120E+04  0.14749182532E+04  0.50000000000E+03 0. -1.
    -200001    1    1    2    0    0 -0.21867871550E+03 -0.58127916147E+03 -0.80535063169E+03  0.12346236204E+04  0.70000000000E+03 0. -1.
<mgrwt>
<rscale>  0 0.19738739E+04</rscale>
<asrwt>0</asrwt>
<pdfrwt beam="1">  1        3 0.46895141E-01 0.19738739E+04</pdfrwt>
<pdfrwt beam="2">  1       -3 0.42389167E+00 0.19738739E+04</pdfrwt>
<totfact> 0.86874950E-02</totfact>
</mgrwt>
</event>
<event>
 8    1  0.1714417E-029  0.1471192E+04  0.7818608E-02  0.8903839E-01
         -3   -1    0    0    0  501 -0.00000000000E+00  0.00000000000E+00  0.50705956285E+03  0.50705957291E+03  0.10100000000E+00 0.  1.
          3   -1    0    0  501    0  0.00000000000E+00 -0.00000000000E+00 -0.10671355266E+04  0.10671355313E+04  0.10100000000E+00 0. -1.
     200001    2    1    2    0    0 -0.89201515524E+02 -0.19815912935E+03 -0.33058789411E+03  0.80615296672E+03  0.70240323113E+03 0.  0.
    5000001    2    3    3    0    0 -0.11210463240E+02 -0.79249046444E+02 -0.10066153878E+03  0.23774436287E+03  0.19995887287E+03 0.  0.
        -13    1    4    4    0    0 -0.72058374877E+02  0.34641032997E+02 -0.56939206822E+02  0.98155463396E+02  0.10566000000E+00 0. -1.
     200003    1    4    4    0    0  0.60847911637E+02 -0.11389007944E+03 -0.43722331957E+02  0.13958889948E+03  0.30000000000E+02 0. -1.
     200000    1    3    3    0    0 -0.77991052284E+02 -0.11891008291E+03 -0.22992635533E+03  0.56840860385E+03  0.50000000000E+03 0.  1.
    -200001    1    1    2    0    0  0.89201515524E+02  0.19815912935E+03 -0.22948806959E+03  0.76804213752E+03  0.70000000000E+03 0. -1.
<mgrwt>
<rscale>  0 0.14711917E+04</rscale>
<asrwt>0</asrwt>
<pdfrwt beam="1">  1        3 0.15244793E+00 0.14711917E+04</pdfrwt>
<pdfrwt beam="2">  1       -3 0.72437082E-01 0.14711917E+04</pdfrwt>
<totfact> 0.14328325E+00</totfact>
</mgrwt>
</event>
<event>
 8    1  0.1714417E-029  0.1573744E+04  0.7818608E-02  0.8836843E-01
         -3   -1    0    0    0  501 -0.00000000000E+00  0.00000000000E+00  0.14204363388E+04  0.14204363424E+04  0.10100000000E+00 0.  1.
          3   -1    0    0  501    0  0.00000000000E+00 -0.00000000000E+00 -0.43589930197E+03  0.43589931367E+03  0.10100000000E+00 0. -1.
     200001    2    1    2    0    0 -0.19042910964E+03 -0.29383102880E+03  0.58800905554E+03  0.97893360496E+03  0.69996888091E+03 0.  0.
    5000001    2    3    3    0    0 -0.14575321809E+02 -0.93213746969E+02  0.54787008966E+01  0.16621381158E+03  0.13673248468E+03 0.  0.
        -13    1    4    4    0    0 -0.15277013355E+02 -0.50975068669E+02  0.67141290216E+02  0.85672683971E+02  0.10566000000E+00 0. -1.
     200003    1    4    4    0    0  0.70169154658E+00 -0.42238678300E+02 -0.61662589319E+02  0.80541127613E+02  0.30000000000E+02 0. -1.
     200000    1    3    3    0    0 -0.17585378783E+03 -0.20061728183E+03  0.58253035464E+03  0.81271979338E+03  0.50000000000E+03 0.  1.
    -200001    1    1    2    0    0  0.19042910964E+03  0.29383102880E+03  0.39652798125E+03  0.87740205106E+03  0.70000000000E+03 0.  1.
<mgrwt>
<rscale>  0 0.15737436E+04</rscale>
<asrwt>0</asrwt>
<pdfrwt beam="1">  1        3 0.62271329E-01 0.15737436E+04</pdfrwt>
<pdfrwt beam="2">  1       -3 0.20291948E+00 0.15737436E+04</pdfrwt>
<totfact> 0.89136115E-01</totfact>
</mgrwt>
</event>
<event>
 8    1  0.1714417E-029  0.1896541E+04  0.7818608E-02  0.8656580E-01
          3   -1    0    0  501    0  0.00000000000E+00  0.00000000000E+00  0.67729237380E+03  0.67729238133E+03  0.10100000000E+00 0.  1.
         -3   -1    0    0    0  501 -0.00000000000E+00 -0.00000000000E+00 -0.13276647702E+04  0.13276647740E+04  0.10100000000E+00 0. -1.
     200001    2    1    2    0    0 -0.15041702138E+02 -0.63476224518E+03 -0.24319534421E+03  0.97590783071E+03  0.70007339464E+03 0.  0.
    5000001    2    3    3    0    0  0.63048341124E+02 -0.10658459849E+03 -0.33758604906E+02  0.21503108045E+03  0.17252058486E+03 0.  0.
        -13    1    4    4    0    0  0.90417137145E+02 -0.13457974863E+03 -0.34225517523E+02  0.16570565664E+03  0.10566000000E+00 0. -1.
     200003    1    4    4    0    0 -0.27368796021E+02  0.27995150131E+02  0.46691261708E+00  0.49325423808E+02  0.30000000000E+02 0. -1.
     200000    1    3    3    0    0 -0.78090043262E+02 -0.52817764669E+03 -0.20943673930E+03  0.76087675026E+03  0.50000000000E+03 0. -1.
    -200001    1    1    2    0    0  0.15041702138E+02  0.63476224518E+03 -0.40717705217E+03  0.10290493246E+04  0.70000000000E+03 0. -1.
<mgrwt>
<rscale>  0 0.18965413E+04</rscale>
<asrwt>0</asrwt>
<pdfrwt beam="1">  1        3 0.96756054E-01 0.18965413E+04</pdfrwt>
<pdfrwt beam="2">  1       -3 0.18966640E+00 0.18965413E+04</pdfrwt>
<totfact> 0.39758273E-01</totfact>
</mgrwt>
</event>
<event>
 8    1  0.1714417E-029  0.1596588E+04  0.7818608E-02  0.8822647E-01
          3   -1    0    0  501    0  0.00000000000E+00  0.00000000000E+00  0.35595550651E+03  0.35595552083E+03  0.10100000000E+00 0.  1.
         -3   -1    0    0    0  501 -0.00000000000E+00 -0.00000000000E+00 -0.17903181209E+04  0.17903181238E+04  0.10100000000E+00 0. -1.
     200001    2    1    2    0    0  0.19810880645E+02  0.37370394163E+03 -0.84678614893E+03  0.11587043003E+04  0.69677956813E+03 0.  0.
    5000001    2    3    3    0    0 -0.31506094612E+02  0.15318570157E+03 -0.28846537244E+03  0.37577147075E+03  0.18312136404E+03 0.  0.
        -13    1    4    4    0    0 -0.28338128294E+02  0.16603633237E+03 -0.29739985193E+03  0.34178618502E+03  0.10566000000E+00 0. -1.
     200003    1    4    4    0    0 -0.31679663187E+01 -0.12850630800E+02  0.89344794828E+01  0.33985285731E+02  0.30000000000E+02 0. -1.
     200000    1    3    3    0    0  0.51316975257E+02  0.22051824007E+03 -0.55832077648E+03  0.78293282956E+03  0.50000000000E+03 0. -1.
    -200001    1    1    2    0    0 -0.19810880645E+02 -0.37370394163E+03 -0.58757646548E+03  0.98756934429E+03  0.70000000000E+03 0.  1.
<mgrwt>
<rscale>  0 0.15965884E+04</rscale>
<asrwt>0</asrwt>
<pdfrwt beam="1">  1        3 0.50850789E-01 0.15965884E+04</pdfrwt>
<pdfrwt beam="2">  1       -3 0.25575973E+00 0.15965884E+04</pdfrwt>
<totfact> 0.65638457E-01</totfact>
</mgrwt>
</event>
<event>
 8    1  0.1714417E-029  0.1496866E+04  0.7818608E-02  0.8886540E-01
          3   -1    0    0  501    0  0.00000000000E+00  0.00000000000E+00  0.71338679653E+03  0.71338680368E+03  0.10100000000E+00 0. -1.
         -3   -1    0    0    0  501 -0.00000000000E+00 -0.00000000000E+00 -0.78520055571E+03  0.78520056221E+03  0.10100000000E+00 0.  1.
     200001    2    1    2    0    0  0.23838542113E+03 -0.10585374848E+03  0.11377578902E+02  0.74695352963E+03  0.69984105413E+03 0.  0.
    5000001    2    3    3    0    0 -0.11446409775E+02  0.11682723357E+03 -0.31875129804E+02  0.14373419944E+03  0.76575932175E+02 0.  0.
        -13    1    4    4    0    0 -0.33711543976E+02  0.29787825794E+02 -0.49196622152E+01  0.45254800885E+02  0.10566000000E+00 0. -1.
     200003    1    4    4    0    0  0.22265134201E+02  0.87039407775E+02 -0.26955467589E+02  0.98479398555E+02  0.30000000000E+02 0. -1.
     200000    1    3    3    0    0  0.24983183091E+03 -0.22268098205E+03  0.43252708706E+02  0.60321933019E+03  0.50000000000E+03 0. -1.
    -200001    1    1    2    0    0 -0.23838542113E+03  0.10585374848E+03 -0.83191338085E+02  0.75163383626E+03  0.70000000000E+03 0. -1.
<mgrwt>
<rscale>  0 0.14968657E+04</rscale>
<asrwt>0</asrwt>
<pdfrwt beam="1">  1        3 0.10191240E+00 0.14968657E+04</pdfrwt>
<pdfrwt beam="2">  1       -3 0.11217151E+00 0.14968657E+04</pdfrwt>
<totfact> 0.14178959E+00</totfact>
</mgrwt>
</event>
<event>
 8    1  0.1714417E-029  0.1613972E+04  0.7818608E-02  0.8812010E-01
         -3   -1    0    0    0  501 -0.00000000000E+00  0.00000000000E+00  0.62784910721E+03  0.62784911533E+03  0.10100000000E+00 0. -1.
          3   -1    0    0  501    0  0.00000000000E+00 -0.00000000000E+00 -0.10372344255E+04  0.10372344304E+04  0.10100000000E+00 0.  1.
     200001    2    1    2    0    0 -0.96969872645E+02  0.38746155261E+03 -0.24277926121E+03  0.84210894757E+03  0.70048276136E+03 0.  0.
    5000001    2    3    3    0    0  0.10757623056E+03  0.12166156102E+03 -0.12617467147E+03  0.22885094786E+03  0.10039187121E+03 0.  0.
        -13    1    4    4    0    0  0.32108415256E+02  0.80163477895E+02 -0.19544482638E+02  0.88538869905E+02  0.10566000000E+00 0. -1.
     200003    1    4    4    0    0  0.75467815300E+02  0.41498083130E+02 -0.10663018884E+03  0.14031207796E+03  0.30000000000E+02 0. -1.
     200000    1    3    3    0    0 -0.20454610320E+03  0.26579999159E+03 -0.11660458973E+03  0.61325799971E+03  0.50000000000E+03 0. -1.
    -200001    1    1    2    0    0  0.96969872645E+02 -0.38746155261E+03 -0.16660605707E+03  0.82297459815E+03  0.70000000000E+03 0.  1.
<mgrwt>
<rscale>  0 0.16139724E+04</rscale>
<asrwt>0</asrwt>
<pdfrwt beam="1">  1        3 0.14817635E+00 0.16139724E+04</pdfrwt>
<pdfrwt beam="2">  1       -3 0.89692730E-01 0.16139724E+04</pdfrwt>
<totfact> 0.94669909E-01</totfact>
</mgrwt>
</event>
<event>
 8    1  0.1714417E-029  0.1514177E+04  0.7818608E-02  0.8875079E-01
         -3   -1    0    0    0  501 -0.00000000000E+00  0.00000000000E+00  0.93809141622E+03  0.93809142166E+03  0.10100000000E+00 0. -1.
          3   -1    0    0  501    0  0.00000000000E+00 -0.00000000000E+00 -0.61101003841E+03  0.61101004676E+03  0.10100000000E+00 0.  1.
     200001    2    1    2    0    0  0.25288399906E+01 -0.25342259977E+03  0.30365147269E+03  0.80426701059E+03  0.70029407991E+03 0.  0.
    5000001    2    3    3    0    0 -0.72363797783E+02 -0.13121640779E+03  0.45529818822E+02  0.22360355493E+03  0.15959736987E+03 0.  0.
        -13    1    4    4    0    0 -0.71949572373E+02 -0.16810911390E+02 -0.33735406981E+02  0.81224605599E+02  0.10566000000E+00 0. -1.
     200003    1    4    4    0    0 -0.41422541021E+00 -0.11440549640E+03  0.79265225803E+02  0.14237894933E+03  0.30000000000E+02 0. -1.
     200000    1    3    3    0    0  0.74892637774E+02 -0.12220619198E+03  0.25812165387E+03  0.58066345567E+03  0.50000000000E+03 0. -1.
    -200001    1    1    2    0    0 -0.25288399906E+01  0.25342259977E+03  0.23429905125E+02  0.74483445782E+03  0.70000000000E+03 0.  1.
<mgrwt>
<rscale>  0 0.15141774E+04</rscale>
<asrwt>0</asrwt>
<pdfrwt beam="1">  1        3 0.87287149E-01 0.15141774E+04</pdfrwt>
<pdfrwt beam="2">  1       -3 0.13401306E+00 0.15141774E+04</pdfrwt>
<totfact> 0.13081208E+00</totfact>
</mgrwt>
</event>
<event>
 8    1  0.1714417E-029  0.1483302E+04  0.7818608E-02  0.8895634E-01
         -3   -1    0    0    0  501 -0.00000000000E+00  0.00000000000E+00  0.41466907854E+03  0.41466909084E+03  0.10100000000E+00 0. -1.
          3   -1    0    0  501    0  0.00000000000E+00 -0.00000000000E+00 -0.13264697676E+04  0.13264697715E+04  0.10100000000E+00 0.  1.
     200001    2    1    2    0    0  0.83890107724E+02 -0.22602664038E+03 -0.54000302619E+03  0.91267094231E+03  0.69515421908E+03 0.  0.
    5000001    2    3    3    0    0  0.62417898485E+02 -0.63954176559E+02 -0.26626062877E+03  0.31965876752E+03  0.15264623962E+03 0.  0.
        -13    1    4    4    0    0 -0.44556135612E+02 -0.45101002470E+02 -0.81673952899E+02  0.10339243391E+03  0.10566000000E+00 0. -1.
     200003    1    4    4    0    0  0.10697403410E+03 -0.18853174088E+02 -0.18458667587E+03  0.21626633361E+03  0.30000000000E+02 0. -1.
     200000    1    3    3    0    0  0.21472209239E+02 -0.16207246382E+03 -0.27374239742E+03  0.59301217478E+03  0.50000000000E+03 0. -1.
    -200001    1    1    2    0    0 -0.83890107724E+02  0.22602664038E+03 -0.37179766291E+03  0.82846792001E+03  0.70000000000E+03 0.  1.
<mgrwt>
<rscale>  0 0.14833017E+04</rscale>
<asrwt>0</asrwt>
<pdfrwt beam="1">  1        3 0.18949568E+00 0.14833017E+04</pdfrwt>
<pdfrwt beam="2">  1       -3 0.59238442E-01 0.14833017E+04</pdfrwt>
<totfact> 0.12223340E+00</totfact>
</mgrwt>
</event>
<event>
 8    1  0.1714417E-029  0.1775073E+04  0.7818608E-02  0.8719669E-01
         -3   -1    0    0    0  501 -0.00000000000E+00  0.00000000000E+00  0.12209553229E+04  0.12209553271E+04  0.10100000000E+00 0.  1.
          3   -1    0    0  501    0  0.00000000000E+00 -0.00000000000E+00 -0.64516770121E+03  0.64516770912E+03  0.10100000000E+00 0. -1.
     200001    2    1    2    0    0  0.27622291235E+03  0.37482113369E+03 -0.12292725570E+02  0.84014619709E+03  0.69921709205E+03 0.  0.
    5000001    2    3    3    0    0  0.88528274500E+02  0.16167196461E+03  0.33491263626E+01  0.26490145536E+03  0.19022745563E+03 0.  0.
        -13    1    4    4    0    0 -0.31577049666E+02  0.12620679377E+03  0.29732017853E+02  0.13345137282E+03  0.10566000000E+00 0. -1.
     200003    1    4    4    0    0  0.12010532417E+03  0.35465170850E+02 -0.26382891490E+02  0.13145008254E+03  0.30000000000E+02 0. -1.
     200000    1    3    3    0    0  0.18769463785E+03  0.21314916908E+03 -0.15641851932E+02  0.57524474173E+03  0.50000000000E+03 0. -1.
    -200001    1    1    2    0    0 -0.27622291235E+03 -0.37482113369E+03  0.58808034728E+03  0.10259768391E+04  0.70000000000E+03 0.  1.
<mgrwt>
<rscale>  0 0.17750729E+04</rscale>
<asrwt>0</asrwt>
<pdfrwt beam="1">  1        3 0.92166816E-01 0.17750729E+04</pdfrwt>
<pdfrwt beam="2">  1       -3 0.17442219E+00 0.17750729E+04</pdfrwt>
<totfact> 0.56761678E-01</totfact>
</mgrwt>
</event>
<event>
 8    1  0.1714417E-029  0.2255859E+04  0.7818608E-02  0.8495531E-01
         -3   -1    0    0    0  501 -0.00000000000E+00  0.00000000000E+00  0.43875636861E+03  0.43875638024E+03  0.10100000000E+00 0. -1.
          3   -1    0    0  501    0  0.00000000000E+00 -0.00000000000E+00 -0.28996169637E+04  0.28996169654E+04  0.10100000000E+00 0.  1.
     200001    2    1    2    0    0 -0.67214195484E+03 -0.27139995710E+02 -0.37800085222E+03  0.10403707140E+04  0.69783607777E+03 0.  0.
    5000001    2    3    3    0    0 -0.29488165273E+03 -0.26386547885E+02 -0.22607887763E+03  0.39585059050E+03  0.13392009580E+03 0.  0.
        -13    1    4    4    0    0 -0.15872430873E+02  0.25920723444E+02  0.20156687147E+01  0.30461320557E+02  0.10566000000E+00 0. -1.
     200003    1    4    4    0    0 -0.27900922186E+03 -0.52307271329E+02 -0.22809454634E+03  0.36538926994E+03  0.30000000000E+02 0. -1.
     200000    1    3    3    0    0 -0.37726030211E+03 -0.75344782514E+00 -0.15192197459E+03  0.64452012350E+03  0.50000000000E+03 0. -1.
    -200001    1    1    2    0    0  0.67214195484E+03  0.27139995710E+02 -0.20828597429E+04  0.22980026317E+04  0.70000000000E+03 0.  1.
<mgrwt>
<rscale>  0 0.22558594E+04</rscale>
<asrwt>0</asrwt>
<pdfrwt beam="1">  1        3 0.41423098E+00 0.22558594E+04</pdfrwt>
<pdfrwt beam="2">  1       -3 0.62679484E-01 0.22558594E+04</pdfrwt>
<totfact> 0.55488965E-02</totfact>
</mgrwt>
</event>
<event>
 8    1  0.1714417E-029  0.1567210E+04  0.7818608E-02  0.8840949E-01
          3   -1    0    0  501    0  0.00000000000E+00  0.00000000000E+00  0.18358038207E+04  0.18358038235E+04  0.10100000000E+00 0.  1.
         -3   -1    0    0    0  501 -0.00000000000E+00 -0.00000000000E+00 -0.33447852442E+03  0.33447853967E+03  0.10100000000E+00 0. -1.
     200001    2    1    2    0    0  0.28602203017E+03 -0.20438744178E+03  0.78925543933E+03  0.11116859768E+04  0.69952750790E+03 0.  0.
    5000001    2    3    3    0    0  0.99821835330E+02 -0.77067097268E+02  0.40204112528E+03  0.44025771723E+03  0.12761682834E+03 0.  0.
        -13    1    4    4    0    0 -0.12428659645E+02  0.22707723979E+02  0.68791677654E+02  0.73501145483E+02  0.10566000000E+00 0. -1.
     200003    1    4    4    0    0  0.11225049497E+03 -0.99774821247E+02  0.33324944763E+03  0.36675657175E+03  0.30000000000E+02 0. -1.
     200000    1    3    3    0    0  0.18620019484E+03 -0.12732034451E+03  0.38721431405E+03  0.67142825952E+03  0.50000000000E+03 0. -1.
    -200001    1    1    2    0    0 -0.28602203017E+03  0.20438744178E+03  0.71206985693E+03  0.10585963864E+04  0.70000000000E+03 0. -1.
<mgrwt>
<rscale>  0 0.15672102E+04</rscale>
<asrwt>0</asrwt>
<pdfrwt beam="1">  1        3 0.26225769E+00 0.15672102E+04</pdfrwt>
<pdfrwt beam="2">  1       -3 0.47782648E-01 0.15672102E+04</pdfrwt>
<totfact> 0.69412571E-01</totfact>
</mgrwt>
</event>
<event>
 8    1  0.1714417E-029  0.1431971E+04  0.7818608E-02  0.8930996E-01
          3   -1    0    0  501    0  0.00000000000E+00  0.00000000000E+00  0.49269095033E+03  0.49269096068E+03  0.10100000000E+00 0.  1.
         -3   -1    0    0    0  501 -0.00000000000E+00 -0.00000000000E+00 -0.10404801570E+04  0.10404801619E+04  0.10100000000E+00 0. -1.
     200001    2    1    2    0    0  0.64977739675E+02  0.78169742514E+02 -0.39028081318E+03  0.80850464118E+03  0.70073391982E+03 0.  0.
    5000001    2    3    3    0    0  0.70297070676E+02  0.71965445082E+02 -0.19711801842E+03  0.27242754424E+03  0.15887274858E+03 0.  0.
        -13    1    4    4    0    0  0.88534381951E+02  0.10436004619E+03 -0.16717610995E+03  0.21604911231E+03  0.10566000000E+00 0. -1.
     200003    1    4    4    0    0 -0.18237311276E+02 -0.32394601112E+02 -0.29941908476E+02  0.56378431930E+02  0.30000000000E+02 0. -1.
     200000    1    3    3    0    0 -0.53193310011E+01  0.62042974326E+01 -0.19316279476E+03  0.53607709694E+03  0.50000000000E+03 0.  1.
    -200001    1    1    2    0    0 -0.64977739675E+02 -0.78169742514E+02 -0.15750839353E+03  0.72466648145E+03  0.70000000000E+03 0.  1.
<mgrwt>
<rscale>  0 0.14319709E+04</rscale>
<asrwt>0</asrwt>
<pdfrwt beam="1">  1        3 0.70384423E-01 0.14319709E+04</pdfrwt>
<pdfrwt beam="2">  1       -3 0.14864002E+00 0.14319709E+04</pdfrwt>
<totfact> 0.16287712E+00</totfact>
</mgrwt>
</event>
<event>
 8    1  0.1714417E-029  0.1481327E+04  0.7818608E-02  0.8896966E-01
         -3   -1    0    0    0  501 -0.00000000000E+00  0.00000000000E+00  0.41744366074E+03  0.41744367296E+03  0.10100000000E+00 0. -1.
          3   -1    0    0  501    0  0.00000000000E+00 -0.00000000000E+00 -0.13141469266E+04  0.13141469305E+04  0.10100000000E+00 0.  1.
     200001    2    1    2    0    0 -0.46796283709E+02  0.44336354085E+02 -0.17567550029E+03  0.72459673892E+03  0.70001639137E+03 0.  0.
    5000001    2    3    3    0    0  0.81225484954E+01  0.92795007272E+01 -0.16705012068E+02  0.19590337106E+03  0.19479986765E+03 0.  0.
        -13    1    4    4    0    0 -0.14960361637E+02  0.95194067323E+02  0.13448044679E+02  0.97296371687E+02  0.10566000000E+00 0. -1.
     200003    1    4    4    0    0  0.23082910133E+02 -0.85914566596E+02 -0.30153056747E+02  0.98606999370E+02  0.30000000000E+02 0. -1.
     200000    1    3    3    0    0 -0.54918832205E+02  0.35056853358E+02 -0.15897048823E+03  0.52869336787E+03  0.50000000000E+03 0. -1.
    -200001    1    1    2    0    0  0.46796283709E+02 -0.44336354085E+02 -0.72102776560E+03  0.10069938645E+04  0.70000000000E+03 0.  1.
<mgrwt>
<rscale>  0 0.14813269E+04</rscale>
<asrwt>0</asrwt>
<pdfrwt beam="1">  1        3 0.18773528E+00 0.14813269E+04</pdfrwt>
<pdfrwt beam="2">  1       -3 0.59634810E-01 0.14813269E+04</pdfrwt>
<totfact> 0.12376068E+00</totfact>
</mgrwt>
</event>
<event>
 8    1  0.1714417E-029  0.1945783E+04  0.7818608E-02  0.8632397E-01
         -3   -1    0    0    0  501 -0.00000000000E+00  0.00000000000E+00  0.49073813888E+03  0.49073814927E+03  0.10100000000E+00 0. -1.
          3   -1    0    0  501    0  0.00000000000E+00 -0.00000000000E+00 -0.19287636668E+04  0.19287636694E+04  0.10100000000E+00 0.  1.
     200001    2    1    2    0    0  0.19566274490E+03 -0.64058419110E+03 -0.60394428742E+03  0.11410951810E+04  0.69908332417E+03 0.  0.
    5000001    2    3    3    0    0  0.66219885452E+02 -0.18752760895E+03 -0.17879818584E+03  0.33315649013E+03  0.19867757375E+03 0.  0.
        -13    1    4    4    0    0  0.11043834666E+03 -0.17078646356E+03 -0.18733657326E+03  0.27651337652E+03  0.10566000000E+00 0. -1.
     200003    1    4    4    0    0 -0.44218461206E+02 -0.16741145384E+02  0.85383874173E+01  0.56643113614E+02  0.30000000000E+02 0. -1.
     200000    1    3    3    0    0  0.12944285945E+03 -0.45305658215E+03 -0.42514610157E+03  0.80793869085E+03  0.50000000000E+03 0. -1.
    -200001    1    1    2    0    0 -0.19566274490E+03  0.64058419110E+03 -0.83408124048E+03  0.12784066377E+04  0.70000000000E+03 0.  1.
<mgrwt>
<rscale>  0 0.19457830E+04</rscale>
<asrwt>0</asrwt>
<pdfrwt beam="1">  1        3 0.27553766E+00 0.19457830E+04</pdfrwt>
<pdfrwt beam="2">  1       -3 0.70105450E-01 0.19457830E+04</pdfrwt>
<totfact> 0.25295200E-01</totfact>
</mgrwt>
</event>
<event>
 8    1  0.1714417E-029  0.1970730E+04  0.7818608E-02  0.8620429E-01
         -3   -1    0    0    0  501 -0.00000000000E+00  0.00000000000E+00  0.23321780186E+04  0.23321780208E+04  0.10100000000E+00 0. -1.
          3   -1    0    0  501    0  0.00000000000E+00 -0.00000000000E+00 -0.41632526289E+03  0.41632527514E+03  0.10100000000E+00 0.  1.
     200001    2    1    2    0    0  0.58273626651E+03 -0.84943372749E+02  0.44908260571E+03  0.10198588542E+04  0.70117042360E+03 0.  0.
    5000001    2    3    3    0    0  0.22155415768E+03 -0.10097310195E+03  0.23655625169E+03  0.36726639404E+03  0.14015681173E+03 0.  0.
        -13    1    4    4    0    0  0.89663564235E+01 -0.21686832729E+02 -0.14469484981E+02  0.27569755548E+02  0.10566000000E+00 0. -1.
     200003    1    4    4    0    0  0.21258780126E+03 -0.79286269219E+02  0.25102573667E+03  0.33969663849E+03  0.30000000000E+02 0. -1.
     200000    1    3    3    0    0  0.36118210883E+03  0.16029729198E+02  0.21252635402E+03  0.65259246020E+03  0.50000000000E+03 0.  1.
    -200001    1    1    2    0    0 -0.58273626651E+03  0.84943372749E+02  0.14667701500E+04  0.17286444417E+04  0.70000000000E+03 0. -1.
<mgrwt>
<rscale>  0 0.19707305E+04</rscale>
<asrwt>0</asrwt>
<pdfrwt beam="1">  1        3 0.59475037E-01 0.19707305E+04</pdfrwt>
<pdfrwt beam="2">  1       -3 0.33316830E+00 0.19707305E+04</pdfrwt>
<totfact> 0.16856060E-01</totfact>
</mgrwt>
</event>
<event>
 8    1  0.1714417E-029  0.1799465E+04  0.7818608E-02  0.8706584E-01
         -3   -1    0    0    0  501 -0.00000000000E+00  0.00000000000E+00  0.23233035444E+04  0.23233035466E+04  0.10100000000E+00 0.  1.
          3   -1    0    0  501    0  0.00000000000E+00 -0.00000000000E+00 -0.34843428223E+03  0.34843429687E+03  0.10100000000E+00 0. -1.
     200001    2    1    2    0    0 -0.29201866412E+03  0.23248793120E+03  0.16181509365E+04  0.18019255061E+04  0.69942657790E+03 0.  0.
    5000001    2    3    3    0    0 -0.10964009763E+03  0.88682768171E+02  0.41828922749E+03  0.48146725716E+03  0.19224790638E+03 0.  0.
        -13    1    4    4    0    0 -0.89673808611E+02  0.14253654126E+03  0.25289174383E+03  0.30382939753E+03  0.10566000000E+00 0. -1.
     200003    1    4    4    0    0 -0.19966289022E+02 -0.53853773085E+02  0.16539748366E+03  0.17763785963E+03  0.30000000000E+02 0. -1.
     200000    1    3    3    0    0 -0.18237856648E+03  0.14380516303E+03  0.11998617090E+04  0.13204582489E+04  0.50000000000E+03 0.  1.
    -200001    1    1    2    0    0  0.29201866412E+03 -0.23248793120E+03  0.35671832564E+03  0.86981233734E+03  0.70000000000E+03 0. -1.
<mgrwt>
<rscale>  0 0.17994651E+04</rscale>
<asrwt>0</asrwt>
<pdfrwt beam="1">  1        3 0.49776327E-01 0.17994651E+04</pdfrwt>
<pdfrwt beam="2">  1       -3 0.33190051E+00 0.17994651E+04</pdfrwt>
<totfact> 0.25173974E-01</totfact>
</mgrwt>
</event>
<event>
 8    1  0.1714417E-029  0.1545620E+04  0.7818608E-02  0.8854671E-01
          3   -1    0    0  501    0  0.00000000000E+00  0.00000000000E+00  0.29493126344E+03  0.29493128074E+03  0.10100000000E+00 0.  1.
         -3   -1    0    0    0  501 -0.00000000000E+00 -0.00000000000E+00 -0.20249972941E+04  0.20249972967E+04  0.10100000000E+00 0. -1.
     200001    2    1    2    0    0  0.14008522450E+03  0.58916002722E+02 -0.12951763555E+04  0.14819405136E+04  0.70396798819E+03 0.  0.
    5000001    2    3    3    0    0  0.53520915978E+02  0.58425899340E+02 -0.41436238926E+03  0.46541365075E+03  0.19655941216E+03 0.  0.
        -13    1    4    4    0    0 -0.10637696098E+02 -0.42816718860E+02 -0.27767819059E+03  0.28116120053E+03  0.10566000000E+00 0. -1.
     200003    1    4    4    0    0  0.64158612076E+02  0.10124261820E+03 -0.13668419867E+03  0.18425245021E+03  0.30000000000E+02 0. -1.
     200000    1    3    3    0    0  0.86564308525E+02  0.49010338197E+00 -0.88081396629E+03  0.10165268629E+04  0.50000000000E+03 0. -1.
    -200001    1    1    2    0    0 -0.14008522450E+03 -0.58916002722E+02 -0.43488967515E+03  0.83798806379E+03  0.70000000000E+03 0.  1.
<mgrwt>
<rscale>  0 0.15456197E+04</rscale>
<asrwt>0</asrwt>
<pdfrwt beam="1">  1        3 0.42133040E-01 0.15456197E+04</pdfrwt>
<pdfrwt beam="2">  1       -3 0.28928532E+00 0.15456197E+04</pdfrwt>
<totfact> 0.62240963E-01</totfact>
</mgrwt>
</event>
<event>
 8    1  0.1714417E-029  0.1861138E+04  0.7818608E-02  0.8674446E-01
          3   -1    0    0  501    0  0.00000000000E+00  0.00000000000E+00  0.17893902655E+04  0.17893902683E+04  0.10100000000E+00 0.  1.
         -3   -1    0    0    0  501 -0.00000000000E+00 -0.00000000000E+00 -0.48394083821E+03  0.48394084875E+03  0.10100000000E+00 0. -1.
     200001    2    1    2    0    0 -0.23996336111E+03 -0.53806232366E+02  0.13386965593E+04  0.15306448461E+04  0.70020542809E+03 0.  0.
    5000001    2    3    3    0    0 -0.29069407419E+02  0.34302781937E+02  0.46984959762E+03  0.50247438308E+03  0.17233731449E+03 0.  0.
        -13    1    4    4    0    0 -0.32000933333E+02 -0.63685386996E+02  0.24881264997E+03  0.25881969438E+03  0.10566000000E+00 0. -1.
     200003    1    4    4    0    0  0.29315259139E+01  0.97988168933E+02  0.22103694765E+03  0.24365468869E+03  0.30000000000E+02 0. -1.
     200000    1    3    3    0    0 -0.21089395369E+03 -0.88109014303E+02  0.86884696171E+03  0.10281704630E+04  0.50000000000E+03 0.  1.
    -200001    1    1    2    0    0  0.23996336111E+03  0.53806232366E+02 -0.33247132085E+02  0.74268627098E+03  0.70000000000E+03 0. -1.
<mgrwt>
<rscale>  0 0.18611384E+04</rscale>
<asrwt>0</asrwt>
<pdfrwt beam="1">  1        3 0.25562718E+00 0.18611384E+04</pdfrwt>
<pdfrwt beam="2">  1       -3 0.69134408E-01 0.18611384E+04</pdfrwt>
<totfact> 0.34029717E-01</totfact>
</mgrwt>
</event>
<event>
 8    1  0.1714417E-029  0.1721356E+04  0.7818608E-02  0.8749277E-01
          3   -1    0    0  501    0  0.00000000000E+00  0.00000000000E+00  0.66514548188E+03  0.66514548954E+03  0.10100000000E+00 0. -1.
         -3   -1    0    0    0  501 -0.00000000000E+00 -0.00000000000E+00 -0.11136908197E+04  0.11136908243E+04  0.10100000000E+00 0.  1.
     200001    2    1    2    0    0 -0.55960664891E+02  0.43209236651E+02 -0.73746187621E+03  0.10182632403E+04  0.69857810837E+03 0.  0.
    5000001    2    3    3    0    0  0.42455058074E+02  0.11953852355E+03 -0.13125753851E+03  0.22265308850E+03  0.12749104217E+03 0.  0.
        -13    1    4    4    0    0 -0.11462439225E+02  0.10481854762E+03 -0.11725465453E+03  0.15769267774E+03  0.10566000000E+00 0. -1.
     200003    1    4    4    0    0  0.53917497299E+02  0.14719975931E+02 -0.14002883976E+02  0.64960410759E+02  0.30000000000E+02 0. -1.
     200000    1    3    3    0    0 -0.98415722964E+02 -0.76329286903E+02 -0.60620433770E+03  0.79561015178E+03  0.50000000000E+03 0.  1.
    -200001    1    1    2    0    0  0.55960664891E+02 -0.43209236651E+02  0.28891653834E+03  0.76057307359E+03  0.70000000000E+03 0. -1.
<mgrwt>
<rscale>  0 0.17213558E+04</rscale>
<asrwt>0</asrwt>
<pdfrwt beam="1">  1        3 0.95020785E-01 0.17213558E+04</pdfrwt>
<pdfrwt beam="2">  1       -3 0.15909869E+00 0.17213558E+04</pdfrwt>
<totfact> 0.68106514E-01</totfact>
</mgrwt>
</event>
<event>
 8    1  0.1714417E-029  0.2464265E+04  0.7818608E-02  0.8415828E-01
         -3   -1    0    0    0  501 -0.00000000000E+00  0.00000000000E+00  0.94681463563E+03  0.94681464102E+03  0.10100000000E+00 0. -1.
          3   -1    0    0  501    0  0.00000000000E+00 -0.00000000000E+00 -0.16034294850E+04  0.16034294882E+04  0.10100000000E+00 0.  1.
     200001    2    1    2    0    0 -0.91508285099E+02 -0.41381392180E+03  0.62514628490E+03  0.10295445095E+04  0.69967013036E+03 0.  0.
    5000001    2    3    3    0    0 -0.41559395164E+01 -0.92241107446E+02  0.12470392264E+03  0.24757132248E+03  0.19291137255E+03 0.  0.
        -13    1    4    4    0    0  0.51369258814E+01 -0.12659172006E+03  0.14857770175E+03  0.19526186575E+03  0.10566000000E+00 0. -1.
     200003    1    4    4    0    0 -0.92928653978E+01  0.34350612610E+02 -0.23873779118E+02  0.52309456730E+02  0.30000000000E+02 0. -1.
     200000    1    3    3    0    0 -0.87352345583E+02 -0.32157281436E+03  0.50044236227E+03  0.78197318699E+03  0.50000000000E+03 0. -1.
    -200001    1    1    2    0    0  0.91508285099E+02  0.41381392180E+03 -0.12817611343E+04  0.15206996197E+04  0.70000000000E+03 0.  1.
<mgrwt>
<rscale>  0 0.24642650E+04</rscale>
<asrwt>0</asrwt>
<pdfrwt beam="1">  1        3 0.22906135E+00 0.24642650E+04</pdfrwt>
<pdfrwt beam="2">  1       -3 0.13525923E+00 0.24642650E+04</pdfrwt>
<totfact> 0.96774528E-02</totfact>
</mgrwt>
</event>
<event>
 8    1  0.1714417E-029  0.1642896E+04  0.7818608E-02  0.8794620E-01
         -3   -1    0    0    0  501 -0.00000000000E+00  0.00000000000E+00  0.40778397395E+03  0.40778398646E+03  0.10100000000E+00 0. -1.
          3   -1    0    0  501    0  0.00000000000E+00 -0.00000000000E+00 -0.16547402777E+04  0.16547402808E+04  0.10100000000E+00 0.  1.
     200001    2    1    2    0    0  0.25481103329E+03  0.32525956966E+03 -0.49321255020E+03  0.95398825232E+03  0.70435255061E+03 0.  0.
    5000001    2    3    3    0    0 -0.46449395928E+02  0.11712391385E+03 -0.18815393762E+03  0.26323572461E+03  0.13422214754E+03 0.  0.
        -13    1    4    4    0    0 -0.63905559329E+01  0.13123403223E+03 -0.14489462891E+03  0.19559569288E+03  0.10566000000E+00 0. -1.
     200003    1    4    4    0    0 -0.40058839995E+02 -0.14110118381E+02 -0.43259308708E+02  0.67640031730E+02  0.30000000000E+02 0. -1.
     200000    1    3    3    0    0  0.30126042922E+03  0.20813565582E+03 -0.30505861258E+03  0.69075252771E+03  0.50000000000E+03 0. -1.
    -200001    1    1    2    0    0 -0.25481103329E+03 -0.32525956966E+03 -0.75374375353E+03  0.11085360149E+04  0.70000000000E+03 0.  1.
<mgrwt>
<rscale>  0 0.16428957E+04</rscale>
<asrwt>0</asrwt>
<pdfrwt beam="1">  1        3 0.23639146E+00 0.16428957E+04</pdfrwt>
<pdfrwt beam="2">  1       -3 0.58254856E-01 0.16428957E+04</pdfrwt>
<totfact> 0.64502976E-01</totfact>
</mgrwt>
</event>
<event>
 8    1  0.1714417E-029  0.1830347E+04  0.7818608E-02  0.8690326E-01
          3   -1    0    0  501    0  0.00000000000E+00  0.00000000000E+00  0.72189218914E+03  0.72189219621E+03  0.10100000000E+00 0. -1.
         -3   -1    0    0    0  501 -0.00000000000E+00 -0.00000000000E+00 -0.11602038890E+04  0.11602038934E+04  0.10100000000E+00 0.  1.
     200001    2    1    2    0    0 -0.56612866487E+03 -0.11809184068E+03 -0.10232768439E+03  0.91393669847E+03  0.70025851354E+03 0.  0.
    5000001    2    3    3    0    0 -0.26446914842E+03 -0.54816904974E+02  0.91684324946E+00  0.31756297852E+03  0.16702269663E+03 0.  0.
        -13    1    4    4    0    0 -0.83800349455E+02 -0.77098670214E+01 -0.76020883216E+02  0.11340690661E+03  0.10566000000E+00 0. -1.
     200003    1    4    4    0    0 -0.18066879896E+03 -0.47107037952E+02  0.76937726465E+02  0.20415607191E+03  0.30000000000E+02 0. -1.
     200000    1    3    3    0    0 -0.30165951645E+03 -0.63274935704E+02 -0.10324452764E+03  0.59637371995E+03  0.50000000000E+03 0.  1.
    -200001    1    1    2    0    0  0.56612866487E+03  0.11809184068E+03 -0.33598401548E+03  0.96815939116E+03  0.70000000000E+03 0.  1.
<mgrwt>
<rscale>  0 0.18303466E+04</rscale>
<asrwt>0</asrwt>
<pdfrwt beam="1">  1        3 0.10312746E+00 0.18303466E+04</pdfrwt>
<pdfrwt beam="2">  1       -3 0.16574341E+00 0.18303466E+04</pdfrwt>
<totfact> 0.50001901E-01</totfact>
</mgrwt>
</event>
<event>
 8    1  0.1714417E-029  0.2274798E+04  0.7818608E-02  0.8487925E-01
          3   -1    0    0  501    0  0.00000000000E+00  0.00000000000E+00  0.14635520052E+04  0.14635520086E+04  0.10100000000E+00 0. -1.
         -3   -1    0    0    0  501 -0.00000000000E+00 -0.00000000000E+00 -0.88392946736E+03  0.88392947313E+03  0.10100000000E+00 0.  1.
     200001    2    1    2    0    0  0.21775839063E+03  0.60850854210E+03 -0.35114488753E+03  0.10155545459E+04  0.70024777124E+03 0.  0.
    5000001    2    3    3    0    0 -0.48434445546E+02  0.19930554098E+03 -0.32845836557E+02  0.24768736465E+03  0.13491325899E+03 0.  0.
        -13    1    4    4    0    0 -0.81551787772E+02  0.84149342212E+02 -0.40355978856E+02  0.12393716988E+03  0.10566000000E+00 0. -1.
     200003    1    4    4    0    0  0.33117342226E+02  0.11515619877E+03  0.75101422988E+01  0.12375019478E+03  0.30000000000E+02 0. -1.
     200000    1    3    3    0    0  0.26619283618E+03  0.40920300112E+03 -0.31829905097E+03  0.76786718123E+03  0.50000000000E+03 0.  1.
    -200001    1    1    2    0    0 -0.21775839063E+03 -0.60850854210E+03  0.93076742532E+03  0.13319269359E+04  0.70000000000E+03 0. -1.
<mgrwt>
<rscale>  0 0.22747982E+04</rscale>
<asrwt>0</asrwt>
<pdfrwt beam="1">  1        3 0.20907886E+00 0.22747982E+04</pdfrwt>
<pdfrwt beam="2">  1       -3 0.12627564E+00 0.22747982E+04</pdfrwt>
<totfact> 0.15415438E-01</totfact>
</mgrwt>
</event>
<event>
 8    1  0.1714417E-029  0.1683461E+04  0.7818608E-02  0.8770854E-01
         -3   -1    0    0    0  501 -0.00000000000E+00  0.00000000000E+00  0.98132865939E+03  0.98132866458E+03  0.10100000000E+00 0. -1.
          3   -1    0    0  501    0  0.00000000000E+00 -0.00000000000E+00 -0.72199047011E+03  0.72199047718E+03  0.10100000000E+00 0.  1.
     200001    2    1    2    0    0 -0.28408319192E+03  0.21409736302E+03 -0.17873307163E+03  0.80418212750E+03  0.69872916249E+03 0.  0.
    5000001    2    3    3    0    0 -0.11399382821E+03  0.14295425024E+03 -0.89118025123E+02  0.26379098148E+03  0.16796770218E+03 0.  0.
        -13    1    4    4    0    0 -0.57932752533E+02  0.16485772909E+03 -0.89954964806E+02  0.19653544595E+03  0.10566000000E+00 0. -1.
     200003    1    4    4    0    0 -0.56061075674E+02 -0.21903478846E+02  0.83693968297E+00  0.67255535530E+02  0.30000000000E+02 0. -1.
     200000    1    3    3    0    0 -0.17008936371E+03  0.71143112777E+02 -0.89615046508E+02  0.54039114603E+03  0.50000000000E+03 0.  1.
    -200001    1    1    2    0    0  0.28408319192E+03 -0.21409736302E+03  0.43807126090E+03  0.89913701426E+03  0.70000000000E+03 0. -1.
<mgrwt>
<rscale>  0 0.16834607E+04</rscale>
<asrwt>0</asrwt>
<pdfrwt beam="1">  1        3 0.10314150E+00 0.16834607E+04</pdfrwt>
<pdfrwt beam="2">  1       -3 0.14018981E+00 0.16834607E+04</pdfrwt>
<totfact> 0.78375461E-01</totfact>
</mgrwt>
</event>
<event>
 8    1  0.1714417E-029  0.2117093E+04  0.7818608E-02  0.8553751E-01
          3   -1    0    0  501    0  0.00000000000E+00  0.00000000000E+00  0.13922401277E+04  0.13922401314E+04  0.10100000000E+00 0.  1.
         -3   -1    0    0    0  501 -0.00000000000E+00 -0.00000000000E+00 -0.80483301296E+03  0.80483301929E+03  0.10100000000E+00 0. -1.
     200001    2    1    2    0    0 -0.13693828770E+03  0.77047264989E+03  0.13319750489E+03  0.10530947555E+04  0.69201646653E+03 0.  0.
    5000001    2    3    3    0    0 -0.46456728939E+02  0.26627437654E+03 -0.31881726630E+02  0.31848331810E+03  0.16539319257E+03 0.  0.
        -13    1    4    4    0    0  0.15975381943E+02  0.24332428235E+03 -0.27279704532E+02  0.24536933927E+03  0.10566000000E+00 0. -1.
     200003    1    4    4    0    0 -0.62432110882E+02  0.22950094185E+02 -0.46020220981E+01  0.73113978826E+02  0.30000000000E+02 0. -1.
     200000    1    3    3    0    0 -0.90481558758E+02  0.50419827335E+03  0.16507923152E+03  0.73461143743E+03  0.50000000000E+03 0.  1.
    -200001    1    1    2    0    0  0.13693828770E+03 -0.77047264989E+03  0.45420960986E+03  0.11439783951E+04  0.70000000000E+03 0.  1.
<mgrwt>
<rscale>  0 0.21170931E+04</rscale>
<asrwt>0</asrwt>
<pdfrwt beam="1">  1        3 0.19889145E+00 0.21170931E+04</pdfrwt>
<pdfrwt beam="2">  1       -3 0.11497615E+00 0.21170931E+04</pdfrwt>
<totfact> 0.22740776E-01</totfact>
</mgrwt>
</event>
<event>
 8    1  0.1714417E-029  0.1629525E+04  0.7818608E-02  0.8802612E-01
          3   -1    0    0  501    0  0.00000000000E+00  0.00000000000E+00  0.22300844571E+03  0.22300846858E+03  0.10100000000E+00 0.  1.
         -3   -1    0    0    0  501 -0.00000000000E+00 -0.00000000000E+00 -0.29767376248E+04  0.29767376266E+04  0.10100000000E+00 0. -1.
     200001    2    1    2    0    0 -0.22954438241E+03 -0.31404956568E+03 -0.16699570829E+04  0.18522002853E+04  0.70040808441E+03 0.  0.
    5000001    2    3    3    0    0 -0.35389469694E+02 -0.14720575261E+02 -0.22058123701E+03  0.27803882043E+03  0.16486477381E+03 0.  0.
        -13    1    4    4    0    0  0.55344667495E+02 -0.41444723231E+02 -0.10477967493E+03  0.12553680236E+03  0.10566000000E+00 0. -1.
     200003    1    4    4    0    0 -0.90734137189E+02  0.26724147970E+02 -0.11580156208E+03  0.15250201807E+03  0.30000000000E+02 0. -1.
     200000    1    3    3    0    0 -0.19415491272E+03 -0.29932899042E+03 -0.14493758459E+04  0.15741614648E+04  0.50000000000E+03 0. -1.
    -200001    1    1    2    0    0  0.22954438241E+03  0.31404956568E+03 -0.10837720962E+04  0.13475458099E+04  0.70000000000E+03 0.  1.
<mgrwt>
<rscale>  0 0.16295247E+04</rscale>
<asrwt>0</asrwt>
<pdfrwt beam="1">  1        3 0.31858353E-01 0.16295247E+04</pdfrwt>
<pdfrwt beam="2">  1       -3 0.42524821E+00 0.16295247E+04</pdfrwt>
<totfact> 0.18885877E-01</totfact>
</mgrwt>
</event>
<event>
 8    1  0.1714417E-029  0.1787453E+04  0.7818608E-02  0.8713000E-01
         -3   -1    0    0    0  501 -0.00000000000E+00  0.00000000000E+00  0.80948104895E+03  0.80948105525E+03  0.10100000000E+00 0. -1.
          3   -1    0    0  501    0  0.00000000000E+00 -0.00000000000E+00 -0.98673997679E+03  0.98673998196E+03  0.10100000000E+00 0.  1.
     200001    2    1    2    0    0 -0.51652965110E+03  0.16825323394E+03  0.28494222257E+02  0.88658023449E+03  0.70007182510E+03 0.  0.
    5000001    2    3    3    0    0 -0.12422551729E+03  0.96749378425E+02  0.86539336275E+01  0.24672949267E+03  0.18975808445E+03 0.  0.
        -13    1    4    4    0    0 -0.33896168262E+02 -0.20893074878E+02 -0.66699920664E+02  0.77681152034E+02  0.10566000000E+00 0. -1.
     200003    1    4    4    0    0 -0.90329349025E+02  0.11764245330E+03  0.75353854291E+02  0.16904834063E+03  0.30000000000E+02 0. -1.
     200000    1    3    3    0    0 -0.39230413381E+03  0.71503855514E+02  0.19840288629E+02  0.63985074182E+03  0.50000000000E+03 0.  1.
    -200001    1    1    2    0    0  0.51652965110E+03 -0.16825323394E+03 -0.20575315010E+03  0.90964080272E+03  0.70000000000E+03 0.  1.
<mgrwt>
<rscale>  0 0.17874533E+04</rscale>
<asrwt>0</asrwt>
<pdfrwt beam="1">  1        3 0.14096285E+00 0.17874533E+04</pdfrwt>
<pdfrwt beam="2">  1       -3 0.11564015E+00 0.17874533E+04</pdfrwt>
<totfact> 0.58438077E-01</totfact>
</mgrwt>
</event>
<event>
 8    1  0.1714417E-029  0.1777923E+04  0.7818608E-02  0.8718129E-01
          3   -1    0    0  501    0  0.00000000000E+00  0.00000000000E+00  0.14727340281E+04  0.14727340316E+04  0.10100000000E+00 0.  1.
         -3   -1    0    0    0  501 -0.00000000000E+00 -0.00000000000E+00 -0.53658888899E+03  0.53658889850E+03  0.10100000000E+00 0. -1.
     200001    2    1    2    0    0 -0.32401324339E+03 -0.42204800191E+03  0.32054156518E+03  0.93597449735E+03  0.70013732001E+03 0.  0.
    5000001    2    3    3    0    0 -0.10954408979E+03 -0.15769377999E+03  0.75305091753E+02  0.28327157841E+03  0.19417696680E+03 0.  0.
        -13    1    4    4    0    0 -0.60744438889E+02 -0.19505859443E+03  0.49819152232E+02  0.21028480975E+03  0.10566000000E+00 0. -1.
     200003    1    4    4    0    0 -0.48799650902E+02  0.37364814444E+02  0.25485939522E+02  0.72986768663E+02  0.30000000000E+02 0. -1.
     200000    1    3    3    0    0 -0.21446915360E+03 -0.26435422192E+03  0.24523647343E+03  0.65270291894E+03  0.50000000000E+03 0. -1.
    -200001    1    1    2    0    0  0.32401324339E+03  0.42204800191E+03  0.61560357397E+03  0.10733484328E+04  0.70000000000E+03 0.  1.
<mgrwt>
<rscale>  0 0.17779232E+04</rscale>
<asrwt>0</asrwt>
<pdfrwt beam="1">  1        3 0.21039058E+00 0.17779232E+04</pdfrwt>
<pdfrwt beam="2">  1       -3 0.76655557E-01 0.17779232E+04</pdfrwt>
<totfact> 0.50542589E-01</totfact>
</mgrwt>
</event>
<event>
 8    1  0.1714417E-029  0.1720056E+04  0.7818608E-02  0.8750008E-01
         -3   -1    0    0    0  501 -0.00000000000E+00  0.00000000000E+00  0.23886153429E+04  0.23886153450E+04  0.10100000000E+00 0. -1.
          3   -1    0    0  501    0  0.00000000000E+00 -0.00000000000E+00 -0.30965557211E+03  0.30965558859E+03  0.10100000000E+00 0.  1.
     200001    2    1    2    0    0 -0.11852647001E+02  0.25962001254E+03  0.36814224552E+03  0.83160555361E+03  0.69892492280E+03 0.  0.
    5000001    2    3    3    0    0 -0.67556003768E+02  0.57338249429E+02  0.15644520829E+03  0.24950898842E+03  0.17299752487E+03 0.  0.
        -13    1    4    4    0    0 -0.22521142405E+02  0.24991625610E+02 -0.34642855380E+02  0.48289976173E+02  0.10566000000E+00 0. -1.
     200003    1    4    4    0    0 -0.45034861363E+02  0.32346623819E+02  0.19108806367E+03  0.20121901224E+03  0.30000000000E+02 0. -1.
     200000    1    3    3    0    0  0.55703356767E+02  0.20228176311E+03  0.21169703723E+03  0.58209656520E+03  0.50000000000E+03 0.  1.
    -200001    1    1    2    0    0  0.11852647001E+02 -0.25962001254E+03  0.17108175252E+04  0.18666653800E+04  0.70000000000E+03 0. -1.
<mgrwt>
<rscale>  0 0.17200559E+04</rscale>
<asrwt>0</asrwt>
<pdfrwt beam="1">  1        3 0.44236512E-01 0.17200559E+04</pdfrwt>
<pdfrwt beam="2">  1       -3 0.34123076E+00 0.17200559E+04</pdfrwt>
<totfact> 0.28588449E-01</totfact>
</mgrwt>
</event>
<event>
 8    1  0.1714417E-029  0.1552119E+04  0.7818608E-02  0.8850516E-01
         -3   -1    0    0    0  501 -0.00000000000E+00  0.00000000000E+00  0.14065114487E+04  0.14065114523E+04  0.10100000000E+00 0. -1.
          3   -1    0    0  501    0  0.00000000000E+00 -0.00000000000E+00 -0.42819989541E+03  0.42819990733E+03  0.10100000000E+00 0.  1.
     200001    2    1    2    0    0 -0.48464904658E+02  0.67942721284E+02  0.87244527898E+03  0.11218490108E+04  0.70029949151E+03 0.  0.
    5000001    2    3    3    0    0 -0.66405759609E+02 -0.97726051487E+02  0.34747952000E+03  0.37796927275E+03  0.90325236079E+02 0.  0.
        -13    1    4    4    0    0 -0.62609634683E+02 -0.67925739773E+02  0.15149567564E+03  0.17743963306E+03  0.10566000000E+00 0. -1.
     200003    1    4    4    0    0 -0.37961249267E+01 -0.29800311714E+02  0.19598384436E+03  0.20052963969E+03  0.30000000000E+02 0. -1.
     200000    1    3    3    0    0  0.17940854951E+02  0.16566877277E+03  0.52496575898E+03  0.74387973803E+03  0.50000000000E+03 0. -1.
    -200001    1    1    2    0    0  0.48464904658E+02 -0.67942721284E+02  0.10586627426E+03  0.71286234883E+03  0.70000000000E+03 0.  1.
<mgrwt>
<rscale>  0 0.15521186E+04</rscale>
<asrwt>0</asrwt>
<pdfrwt beam="1">  1        3 0.61171414E-01 0.15521186E+04</pdfrwt>
<pdfrwt beam="2">  1       -3 0.20093021E+00 0.15521186E+04</pdfrwt>
<totfact> 0.95443249E-01</totfact>
</mgrwt>
</event>
<event>
 8    1  0.1714417E-029  0.2812870E+04  0.7818608E-02  0.8299284E-01
         -3   -1    0    0    0  501 -0.00000000000E+00  0.00000000000E+00  0.33437887970E+04  0.33437887986E+04  0.10100000000E+00 0.  1.
          3   -1    0    0  501    0  0.00000000000E+00 -0.00000000000E+00 -0.59156212877E+03  0.59156213739E+03  0.10100000000E+00 0. -1.
     200001    2    1    2    0    0  0.39791279749E+03 -0.11516829680E+04  0.12960363003E+04  0.19116912213E+04  0.70010354995E+03 0.  0.
    5000001    2    3    3    0    0  0.12042408414E+03 -0.40728329309E+03  0.44837834596E+03  0.64691658934E+03  0.19255204899E+03 0.  0.
        -13    1    4    4    0    0 -0.33668329745E+01 -0.28566027185E+03  0.23263936557E+03  0.36842124267E+03  0.10566000000E+00 0. -1.
     200003    1    4    4    0    0  0.12379091712E+03 -0.12162302125E+03  0.21573898039E+03  0.27849534667E+03  0.30000000000E+02 0. -1.
     200000    1    3    3    0    0  0.27748871334E+03 -0.74439967488E+03  0.84765795437E+03  0.12647746319E+04  0.50000000000E+03 0. -1.
    -200001    1    1    2    0    0 -0.39791279749E+03  0.11516829680E+04  0.14561903679E+04  0.20236597147E+04  0.70000000000E+03 0.  1.
<mgrwt>
<rscale>  0 0.28128696E+04</rscale>
<asrwt>0</asrwt>
<pdfrwt beam="1">  1        3 0.84508876E-01 0.28128696E+04</pdfrwt>
<pdfrwt beam="2">  1       -3 0.47768412E+00 0.28128696E+04</pdfrwt>
<totfact> 0.11709836E-02</totfact>
</mgrwt>
</event>
<event>
 8    1  0.1714417E-029  0.1623025E+04  0.7818608E-02  0.8806526E-01
          3   -1    0    0  501    0  0.00000000000E+00  0.00000000000E+00  0.30976532070E+04  0.30976532086E+04  0.10100000000E+00 0.  1.
         -3   -1    0    0    0  501 -0.00000000000E+00 -0.00000000000E+00 -0.21259733900E+03  0.21259736299E+03  0.10100000000E+00 0. -1.
     200001    2    1    2    0    0  0.36459293514E+03 -0.20690773892E+02  0.10713930426E+04  0.13321886513E+04  0.70248660799E+03 0.  0.
    5000001    2    3    3    0    0 -0.63116645667E+01  0.29821875735E+02  0.15399864777E+03  0.22235342680E+03  0.15746835082E+03 0.  0.
        -13    1    4    4    0    0  0.40749785133E+02 -0.36722599205E+02  0.11446162598E+03  0.12692741732E+03  0.10566000000E+00 0. -1.
     200003    1    4    4    0    0 -0.47061449699E+02  0.66544474939E+02  0.39537021790E+02  0.95426009477E+02  0.30000000000E+02 0. -1.
     200000    1    3    3    0    0  0.37090459971E+03 -0.50512649626E+02  0.91739439480E+03  0.11098352245E+04  0.50000000000E+03 0. -1.
    -200001    1    1    2    0    0 -0.36459293514E+03  0.20690773892E+02  0.18136628254E+04  0.19780619203E+04  0.70000000000E+03 0.  1.
<mgrwt>
<rscale>  0 0.16230254E+04</rscale>
<asrwt>0</asrwt>
<pdfrwt beam="1">  1        3 0.44252188E+00 0.16230254E+04</pdfrwt>
<pdfrwt beam="2">  1       -3 0.30371051E-01 0.16230254E+04</pdfrwt>
<totfact> 0.17964090E-01</totfact>
</mgrwt>
</event>
<event>
 8    1  0.1714417E-029  0.1494894E+04  0.7818608E-02  0.8887856E-01
         -3   -1    0    0    0  501 -0.00000000000E+00  0.00000000000E+00  0.45230898676E+03  0.45230899804E+03  0.10100000000E+00 0.  1.
          3   -1    0    0  501    0  0.00000000000E+00 -0.00000000000E+00 -0.12351662909E+04  0.12351662950E+04  0.10100000000E+00 0. -1.
     200001    2    1    2    0    0 -0.42304471245E+02  0.20027292896E+03 -0.21473586330E+03  0.76299658269E+03  0.70296043975E+03 0.  0.
    5000001    2    3    3    0    0  0.60282512066E+02  0.10764109884E+03 -0.28443665677E+02  0.21180738832E+03  0.16980206185E+03 0.  0.
        -13    1    4    4    0    0  0.52672134594E+02  0.14769701945E+03 -0.73857136995E+01  0.15698192013E+03  0.10566000000E+00 0. -1.
     200003    1    4    4    0    0  0.76103774723E+01 -0.40055920607E+02 -0.21057951978E+02  0.54825468192E+02  0.30000000000E+02 0. -1.
     200000    1    3    3    0    0 -0.10258698331E+03  0.92631830127E+02 -0.18629219762E+03  0.55118919437E+03  0.50000000000E+03 0.  1.
    -200001    1    1    2    0    0  0.42304471245E+02 -0.20027292896E+03 -0.56812144079E+03  0.92447871033E+03  0.70000000000E+03 0. -1.
<mgrwt>
<rscale>  0 0.14948937E+04</rscale>
<asrwt>0</asrwt>
<pdfrwt beam="1">  1        3 0.17645233E+00 0.14948937E+04</pdfrwt>
<pdfrwt beam="2">  1       -3 0.64615571E-01 0.14948937E+04</pdfrwt>
<totfact> 0.12388029E+00</totfact>
</mgrwt>
</event>
<event>
 8    1  0.1714417E-029  0.2234678E+04  0.7818608E-02  0.8504132E-01
          3   -1    0    0  501    0  0.00000000000E+00  0.00000000000E+00  0.10837942323E+04  0.10837942370E+04  0.10100000000E+00 0. -1.
         -3   -1    0    0    0  501 -0.00000000000E+00 -0.00000000000E+00 -0.11519218720E+04  0.11519218764E+04  0.10100000000E+00 0.  1.
     200001    2    1    2    0    0  0.22038973897E+03  0.35292927596E+03 -0.79950559443E+03  0.11411639568E+04  0.69993947583E+03 0.  0.
    5000001    2    3    3    0    0  0.23271460295E+02  0.14332459954E+03 -0.26053579984E+03  0.35168427011E+03  0.18633148190E+03 0.  0.
        -13    1    4    4    0    0 -0.36734317938E+02 -0.29609938650E+02 -0.30513934925E+02  0.56189589515E+02  0.10566000000E+00 0. -1.
     200003    1    4    4    0    0  0.60005778232E+02  0.17293453819E+03 -0.23002186491E+03  0.29549468059E+03  0.30000000000E+02 0. -1.
     200000    1    3    3    0    0  0.19711827867E+03  0.20960467642E+03 -0.53896979459E+03  0.78947968666E+03  0.50000000000E+03 0.  1.
    -200001    1    1    2    0    0 -0.22038973897E+03 -0.35292927596E+03  0.73137795471E+03  0.10945521566E+04  0.70000000000E+03 0. -1.
<mgrwt>
<rscale>  0 0.22346779E+04</rscale>
<asrwt>0</asrwt>
<pdfrwt beam="1">  1        3 0.15482775E+00 0.22346779E+04</pdfrwt>
<pdfrwt beam="2">  1       -3 0.16456027E+00 0.22346779E+04</pdfrwt>
<totfact> 0.18049844E-01</totfact>
</mgrwt>
</event>
<event>
 8    1  0.1714417E-029  0.1717508E+04  0.7818608E-02  0.8751442E-01
         -3   -1    0    0    0  501 -0.00000000000E+00  0.00000000000E+00  0.80527213155E+03  0.80527213788E+03  0.10100000000E+00 0. -1.
          3   -1    0    0  501    0  0.00000000000E+00 -0.00000000000E+00 -0.91578769645E+03  0.91578770202E+03  0.10100000000E+00 0.  1.
     200001    2    1    2    0    0 -0.45745412871E+03 -0.18799290196E+03 -0.10742825213E+03  0.86396291274E+03  0.70020388043E+03 0.  0.
    5000001    2    3    3    0    0 -0.18160977276E+03  0.32968214995E+02  0.68702172531E+02  0.22683196042E+03  0.11253327061E+03 0.  0.
        -13    1    4    4    0    0 -0.97215251539E+02 -0.22801629029E+02  0.68904551740E+02  0.12132010482E+03  0.10566000000E+00 0. -1.
     200003    1    4    4    0    0 -0.84394521223E+02  0.55769844024E+02 -0.20237920912E+00  0.10551185560E+03  0.30000000000E+02 0. -1.
     200000    1    3    3    0    0 -0.27584435595E+03 -0.22096111696E+03 -0.17613042466E+03  0.63713095232E+03  0.50000000000E+03 0.  1.
    -200001    1    1    2    0    0  0.45745412871E+03  0.18799290196E+03 -0.30873127695E+01  0.85709692717E+03  0.70000000000E+03 0. -1.
<mgrwt>
<rscale>  0 0.17175079E+04</rscale>
<asrwt>0</asrwt>
<pdfrwt beam="1">  1        3 0.13082681E+00 0.17175079E+04</pdfrwt>
<pdfrwt beam="2">  1       -3 0.11503888E+00 0.17175079E+04</pdfrwt>
<totfact> 0.71788667E-01</totfact>
</mgrwt>
</event>
<event>
 8    1  0.1714417E-029  0.1506882E+04  0.7818608E-02  0.8879889E-01
          3   -1    0    0  501    0  0.00000000000E+00  0.00000000000E+00  0.11490937542E+04  0.11490937586E+04  0.10100000000E+00 0.  1.
         -3   -1    0    0    0  501 -0.00000000000E+00 -0.00000000000E+00 -0.49401833568E+03  0.49401834600E+03  0.10100000000E+00 0. -1.
     200001    2    1    2    0    0  0.23753022169E+03 -0.58407179597E+02  0.47185481686E+03  0.87930467228E+03  0.70049820389E+03 0.  0.
    5000001    2    3    3    0    0  0.10243397417E+03  0.67820234399E+01  0.10559518582E+03  0.24161607617E+03  0.19154443371E+03 0.  0.
        -13    1    4    4    0    0  0.12330403037E+03  0.58208858620E+02  0.23957940612E+02  0.13844186220E+03  0.10566000000E+00 0. -1.
     200003    1    4    4    0    0 -0.20870056198E+02 -0.51426835180E+02  0.81637245209E+02  0.10317421397E+03  0.30000000000E+02 0. -1.
     200000    1    3    3    0    0  0.13509624752E+03 -0.65189203037E+02  0.36625963104E+03  0.63768859612E+03  0.50000000000E+03 0.  1.
    -200001    1    1    2    0    0 -0.23753022169E+03  0.58407179597E+02  0.18322060165E+03  0.76380743235E+03  0.70000000000E+03 0. -1.
<mgrwt>
<rscale>  0 0.15068821E+04</rscale>
<asrwt>0</asrwt>
<pdfrwt beam="1">  1        3 0.16415625E+00 0.15068821E+04</pdfrwt>
<pdfrwt beam="2">  1       -3 0.70574050E-01 0.15068821E+04</pdfrwt>
<totfact> 0.12441955E+00</totfact>
</mgrwt>
</event>
<event>
 8    1  0.1714417E-029  0.1756379E+04  0.7818608E-02  0.8729847E-01
         -3   -1    0    0    0  501 -0.00000000000E+00  0.00000000000E+00  0.92855596477E+03  0.92855597026E+03  0.10100000000E+00 0. -1.
          3   -1    0    0  501    0  0.00000000000E+00 -0.00000000000E+00 -0.83055518044E+03  0.83055518658E+03  0.10100000000E+00 0.  1.
     200001    2    1    2    0    0  0.10337766516E+03  0.19275289571E+03 -0.43463522074E+03  0.85272176240E+03  0.70027566607E+03 0.  0.
    5000001    2    3    3    0    0  0.82023317744E+02 -0.15234724735E+01 -0.14413953729E+03  0.24232266550E+03  0.17667462292E+03 0.  0.
        -13    1    4    4    0    0  0.77887974511E+02 -0.59502766724E+02 -0.14719094493E+03  0.17683976152E+03  0.10566000000E+00 0. -1.
     200003    1    4    4    0    0  0.41353432334E+01  0.57979294251E+02  0.30514076343E+01  0.65482903983E+02  0.30000000000E+02 0. -1.
     200000    1    3    3    0    0  0.21354347415E+02  0.19427636819E+03 -0.29049568345E+03  0.61039909690E+03  0.50000000000E+03 0.  1.
    -200001    1    1    2    0    0 -0.10337766516E+03 -0.19275289571E+03  0.53263600507E+03  0.90638939444E+03  0.70000000000E+03 0. -1.
<mgrwt>
<rscale>  0 0.17563792E+04</rscale>
<asrwt>0</asrwt>
<pdfrwt beam="1">  1        3 0.11865074E+00 0.17563792E+04</pdfrwt>
<pdfrwt beam="2">  1       -3 0.13265085E+00 0.17563792E+04</pdfrwt>
<totfact> 0.64133889E-01</totfact>
</mgrwt>
</event>
<event>
 8    1  0.1714417E-029  0.1458113E+04  0.7818608E-02  0.8912795E-01
          3   -1    0    0  501    0  0.00000000000E+00  0.00000000000E+00  0.85298101331E+03  0.85298101929E+03  0.10100000000E+00 0. -1.
         -3   -1    0    0    0  501 -0.00000000000E+00 -0.00000000000E+00 -0.62313659464E+03  0.62313660282E+03  0.10100000000E+00 0.  1.
     200001    2    1    2    0    0  0.17234056751E+03  0.18260381109E+02  0.21720941295E+03  0.75487261790E+03  0.70186752842E+03 0.  0.
    5000001    2    3    3    0    0  0.76191070894E+02 -0.51560776975E+01  0.57134497869E+02  0.22062825931E+03  0.19894927378E+03 0.  0.
        -13    1    4    4    0    0  0.24787720717E+02 -0.40729464592E+02 -0.64744334382E+02  0.80406221046E+02  0.10566000000E+00 0. -1.
     200003    1    4    4    0    0  0.51403350177E+02  0.35573386895E+02  0.12187883225E+03  0.14022203827E+03  0.30000000000E+02 0. -1.
     200000    1    3    3    0    0  0.96149496616E+02  0.23416458806E+02  0.16007491508E+03  0.53424435859E+03  0.50000000000E+03 0. -1.
    -200001    1    1    2    0    0 -0.17234056751E+03 -0.18260381109E+02  0.12635005719E+02  0.72124500421E+03  0.70000000000E+03 0.  1.
<mgrwt>
<rscale>  0 0.14581134E+04</rscale>
<asrwt>0</asrwt>
<pdfrwt beam="1">  1        3 0.12185443E+00 0.14581134E+04</pdfrwt>
<pdfrwt beam="2">  1       -3 0.89019515E-01 0.14581134E+04</pdfrwt>
<totfact> 0.15923497E+00</totfact>
</mgrwt>
</event>
<event>
 8    1  0.1714417E-029  0.1613581E+04  0.7818608E-02  0.8812248E-01
         -3   -1    0    0    0  501 -0.00000000000E+00  0.00000000000E+00  0.45874750572E+03  0.45874751684E+03  0.10100000000E+00 0. -1.
          3   -1    0    0  501    0  0.00000000000E+00 -0.00000000000E+00 -0.14188868066E+04  0.14188868102E+04  0.10100000000E+00 0.  1.
     200001    2    1    2    0    0  0.21774715145E+03  0.77479775936E+02 -0.86185119547E+03  0.11339425298E+04  0.69972940490E+03 0.  0.
    5000001    2    3    3    0    0  0.25579178088E+02  0.54416145762E+02 -0.31888351233E+03  0.37087348576E+03  0.17956903054E+03 0.  0.
        -13    1    4    4    0    0 -0.54182168616E+02  0.71331594221E+02 -0.94261086484E+02  0.13003486963E+03  0.10566000000E+00 0. -1.
     200003    1    4    4    0    0  0.79761346704E+02 -0.16915448460E+02 -0.22462242585E+03  0.24083861613E+03  0.30000000000E+02 0. -1.
     200000    1    3    3    0    0  0.19216797336E+03  0.23063630174E+02 -0.54296768314E+03  0.76306904403E+03  0.50000000000E+03 0.  1.
    -200001    1    1    2    0    0 -0.21774715145E+03 -0.77479775936E+02 -0.98288105414E+02  0.74369179726E+03  0.70000000000E+03 0. -1.
<mgrwt>
<rscale>  0 0.16135809E+04</rscale>
<asrwt>0</asrwt>
<pdfrwt beam="1">  1        3 0.20269811E+00 0.16135809E+04</pdfrwt>
<pdfrwt beam="2">  1       -3 0.65535360E-01 0.16135809E+04</pdfrwt>
<totfact> 0.80420698E-01</totfact>
</mgrwt>
</event>
<event>
 8    1  0.1714417E-029  0.1488960E+04  0.7818608E-02  0.8891828E-01
          3   -1    0    0  501    0  0.00000000000E+00  0.00000000000E+00  0.27135303398E+03  0.27135305277E+03  0.10100000000E+00 0.  1.
         -3   -1    0    0    0  501 -0.00000000000E+00 -0.00000000000E+00 -0.20425426580E+04  0.20425426605E+04  0.10100000000E+00 0. -1.
     200001    2    1    2    0    0 -0.14787330947E+03  0.84023739478E+02 -0.11783813816E+04  0.13809712165E+04  0.69969444456E+03 0.  0.
    5000001    2    3    3    0    0 -0.43493933405E+02  0.10129606705E+03 -0.41880133610E+03  0.46546303356E+03  0.17061260518E+03 0.  0.
        -13    1    4    4    0    0 -0.68713165980E+02 -0.22799849084E+02 -0.16710226554E+03  0.18211125888E+03  0.10566000000E+00 0. -1.
     200003    1    4    4    0    0  0.25219232575E+02  0.12409591613E+03 -0.25169907056E+03  0.28335177468E+03  0.30000000000E+02 0. -1.
     200000    1    3    3    0    0 -0.10437937606E+03 -0.17272327570E+02 -0.75958004552E+03  0.91550818292E+03  0.50000000000E+03 0. -1.
    -200001    1    1    2    0    0  0.14787330947E+03 -0.84023739478E+02 -0.59280824240E+03  0.93292449678E+03  0.70000000000E+03 0.  1.
<mgrwt>
<rscale>  0 0.14889596E+04</rscale>
<asrwt>0</asrwt>
<pdfrwt beam="1">  1        3 0.38764722E-01 0.14889596E+04</pdfrwt>
<pdfrwt beam="2">  1       -3 0.29179180E+00 0.14889596E+04</pdfrwt>
<totfact> 0.71412431E-01</totfact>
</mgrwt>
</event>
<event>
 8    1  0.1714417E-029  0.1716894E+04  0.7818608E-02  0.8751787E-01
         -3   -1    0    0    0  501 -0.00000000000E+00  0.00000000000E+00  0.65037092639E+03  0.65037093423E+03  0.10100000000E+00 0.  1.
          3   -1    0    0  501    0  0.00000000000E+00 -0.00000000000E+00 -0.11330941950E+04  0.11330941995E+04  0.10100000000E+00 0. -1.
     200001    2    1    2    0    0  0.41533968006E+03 -0.24265302958E+03 -0.11089346691E+03  0.85629473730E+03  0.69968262343E+03 0.  0.
    5000001    2    3    3    0    0  0.43792681017E+02 -0.10042492222E+03 -0.49605269044E+02  0.21439735437E+03  0.17748965866E+03 0.  0.
        -13    1    4    4    0    0  0.50297103554E+02 -0.11133713487E+03 -0.97613738763E+02  0.15637841727E+03  0.10566000000E+00 0. -1.
     200003    1    4    4    0    0 -0.65044225375E+01  0.10912212655E+02  0.48008469719E+02  0.58018937101E+02  0.30000000000E+02 0. -1.
     200000    1    3    3    0    0  0.37154699904E+03 -0.14222810736E+03 -0.61288197865E+02  0.64189738293E+03  0.50000000000E+03 0.  1.
    -200001    1    1    2    0    0 -0.41533968006E+03  0.24265302958E+03 -0.37182980172E+03  0.92717039644E+03  0.70000000000E+03 0. -1.
<mgrwt>
<rscale>  0 0.17168943E+04</rscale>
<asrwt>0</asrwt>
<pdfrwt beam="1">  1        3 0.16187060E+00 0.17168943E+04</pdfrwt>
<pdfrwt beam="2">  1       -3 0.92910134E-01 0.17168943E+04</pdfrwt>
<totfact> 0.68715752E-01</totfact>
</mgrwt>
</event>
<event>
 8    1  0.1714417E-029  0.1462687E+04  0.7818608E-02  0.8909652E-01
         -3   -1    0    0    0  501 -0.00000000000E+00  0.00000000000E+00  0.33997684593E+03  0.33997686094E+03  0.10100000000E+00 0.  1.
          3   -1    0    0  501    0  0.00000000000E+00 -0.00000000000E+00 -0.15732355077E+04  0.15732355109E+04  0.10100000000E+00 0. -1.
     200001    2    1    2    0    0  0.87914249971E+02  0.94403847330E+02 -0.83735702042E+03  0.10987314873E+04  0.69957351275E+03 0.  0.
    5000001    2    3    3    0    0 -0.31087262620E+02  0.10199222016E+02 -0.28300828360E+03  0.33810391681E+03  0.18207176594E+03 0.  0.
        -13    1    4    4    0    0 -0.18189922466E+02  0.89376022426E+02 -0.19512500068E+03  0.21538970198E+03  0.10566000000E+00 0. -1.
     200003    1    4    4    0    0 -0.12897340154E+02 -0.79176800410E+02 -0.87883282915E+02  0.12271421483E+03  0.30000000000E+02 0. -1.
     200000    1    3    3    0    0  0.11900151259E+03  0.84204625314E+02 -0.55434873682E+03  0.76062757046E+03  0.50000000000E+03 0.  1.
    -200001    1    1    2    0    0 -0.87914249971E+02 -0.94403847330E+02 -0.39590164131E+03  0.81448088457E+03  0.70000000000E+03 0.  1.
<mgrwt>
<rscale>  0 0.14626875E+04</rscale>
<asrwt>0</asrwt>
<pdfrwt beam="1">  1        3 0.22474793E+00 0.14626875E+04</pdfrwt>
<pdfrwt beam="2">  1       -3 0.48568123E-01 0.14626875E+04</pdfrwt>
<totfact> 0.11169017E+00</totfact>
</mgrwt>
</event>
<event>
 8    1  0.1714417E-029  0.1605064E+04  0.7818608E-02  0.8817443E-01
          3   -1    0    0  501    0  0.00000000000E+00  0.00000000000E+00  0.10082010956E+04  0.10082011006E+04  0.10100000000E+00 0.  1.
         -3   -1    0    0    0  501 -0.00000000000E+00 -0.00000000000E+00 -0.63881892486E+03  0.63881893285E+03  0.10100000000E+00 0. -1.
     200001    2    1    2    0    0 -0.22947588025E+03  0.18527834750E+03 -0.80114483972E+02  0.76439072951E+03  0.70063372111E+03 0.  0.
    5000001    2    3    3    0    0 -0.48305089728E+02  0.25882392025E+02 -0.13506395626E+03  0.20649345361E+03  0.14626685951E+03 0.  0.
        -13    1    4    4    0    0  0.26516443363E+02 -0.21522998517E+02 -0.10157126984E+03  0.10715920518E+03  0.10566000000E+00 0. -1.
     200003    1    4    4    0    0 -0.74821533090E+02  0.47405390542E+02 -0.33492686420E+02  0.99334248424E+02  0.30000000000E+02 0. -1.
     200000    1    3    3    0    0 -0.18117079052E+03  0.15939595548E+03  0.54949472290E+02  0.55789727591E+03  0.50000000000E+03 0.  1.
    -200001    1    1    2    0    0  0.22947588025E+03 -0.18527834750E+03  0.44949665469E+03  0.88262930398E+03  0.70000000000E+03 0.  1.
<mgrwt>
<rscale>  0 0.16050644E+04</rscale>
<asrwt>0</asrwt>
<pdfrwt beam="1">  1        3 0.14402873E+00 0.16050644E+04</pdfrwt>
<pdfrwt beam="2">  1       -3 0.91259847E-01 0.16050644E+04</pdfrwt>
<totfact> 0.97954318E-01</totfact>
</mgrwt>
</event>
<event>
 8    1  0.1714417E-029  0.1407330E+04  0.7818608E-02  0.8948530E-01
          3   -1    0    0  501    0  0.00000000000E+00  0.00000000000E+00  0.39972094659E+03  0.39972095935E+03  0.10100000000E+00 0.  1.
         -3   -1    0    0    0  501 -0.00000000000E+00 -0.00000000000E+00 -0.12387253658E+04  0.12387253700E+04  0.10100000000E+00 0. -1.
     200001    2    1    2    0    0  0.17078368772E+02 -0.12595841630E+02 -0.34644462639E+03  0.78225390032E+03  0.70103278062E+03 0.  0.
    5000001    2    3    3    0    0 -0.38629642440E+02 -0.98856475361E+01 -0.17276045029E+03  0.25001624599E+03  0.17627244473E+03 0.  0.
        -13    1    4    4    0    0 -0.81046913896E+02 -0.44997342369E+02 -0.16163473780E+03  0.18633078838E+03  0.10566000000E+00 0. -1.
     200003    1    4    4    0    0  0.42417271456E+02  0.35111694833E+02 -0.11125712494E+02  0.63685457605E+02  0.30000000000E+02 0. -1.
     200000    1    3    3    0    0  0.55708011213E+02 -0.27101940938E+01 -0.17368417610E+03  0.53223765434E+03  0.50000000000E+03 0.  1.
    -200001    1    1    2    0    0 -0.17078368772E+02  0.12595841630E+02 -0.49255979287E+03  0.85619242899E+03  0.70000000000E+03 0. -1.
<mgrwt>
<rscale>  0 0.14073301E+04</rscale>
<asrwt>0</asrwt>
<pdfrwt beam="1">  1        3 0.57102994E-01 0.14073301E+04</pdfrwt>
<pdfrwt beam="2">  1       -3 0.17696077E+00 0.14073301E+04</pdfrwt>
<totfact> 0.15994756E+00</totfact>
</mgrwt>
</event>
<event>
 8    1  0.1714417E-029  0.1759479E+04  0.7818608E-02  0.8728150E-01
          3   -1    0    0  501    0  0.00000000000E+00  0.00000000000E+00  0.45174545976E+03  0.45174547105E+03  0.10100000000E+00 0.  1.
         -3   -1    0    0    0  501 -0.00000000000E+00 -0.00000000000E+00 -0.17132254619E+04  0.17132254649E+04  0.10100000000E+00 0. -1.
     200001    2    1    2    0    0  0.11626188479E+03  0.34860454938E+03 -0.11072004000E+04  0.13594623057E+04  0.69799933903E+03 0.  0.
    5000001    2    3    3    0    0  0.88207986627E+01  0.61818570926E+02 -0.28318772863E+03  0.34813314716E+03  0.19261894068E+03 0.  0.
        -13    1    4    4    0    0  0.39057317407E+02 -0.32282359853E+02 -0.44434997428E+01  0.50866301759E+02  0.10566000000E+00 0. -1.
     200003    1    4    4    0    0 -0.30236518744E+02  0.94100930779E+02 -0.27874422889E+03  0.29726684540E+03  0.30000000000E+02 0. -1.
     200000    1    3    3    0    0  0.10744108612E+03  0.28678597845E+03 -0.82401267136E+03  0.10113291586E+04  0.50000000000E+03 0. -1.
    -200001    1    1    2    0    0 -0.11626188479E+03 -0.34860454938E+03 -0.15427960218E+03  0.80550863021E+03  0.70000000000E+03 0.  1.
<mgrwt>
<rscale>  0 0.17594793E+04</rscale>
<asrwt>0</asrwt>
<pdfrwt beam="1">  1        3 0.64535068E-01 0.17594793E+04</pdfrwt>
<pdfrwt beam="2">  1       -3 0.24474649E+00 0.17594793E+04</pdfrwt>
<totfact> 0.45526437E-01</totfact>
</mgrwt>
</event>
<event>
 8    1  0.1714417E-029  0.1489647E+04  0.7818608E-02  0.8891367E-01
          3   -1    0    0  501    0  0.00000000000E+00  0.00000000000E+00  0.32569751252E+03  0.32569752818E+03  0.10100000000E+00 0.  1.
         -3   -1    0    0    0  501 -0.00000000000E+00 -0.00000000000E+00 -0.17033033486E+04  0.17033033516E+04  0.10100000000E+00 0. -1.
     200001    2    1    2    0    0  0.17904240451E+03 -0.17188654235E+03 -0.76032297104E+03  0.10632683591E+04  0.70060503643E+03 0.  0.
    5000001    2    3    3    0    0  0.77909251944E+02 -0.10609640215E+03 -0.22206290531E+03  0.31876842257E+03  0.18701624322E+03 0.  0.
        -13    1    4    4    0    0 -0.56165997839E+02 -0.81439701765E+01 -0.80624665956E+02  0.98596609922E+02  0.10566000000E+00 0. -1.
     200003    1    4    4    0    0  0.13407524978E+03 -0.97952431973E+02 -0.14143823936E+03  0.22017181265E+03  0.30000000000E+02 0. -1.
     200000    1    3    3    0    0  0.10113315256E+03 -0.65790140196E+02 -0.53826006573E+03  0.74449993650E+03  0.50000000000E+03 0.  1.
    -200001    1    1    2    0    0 -0.17904240451E+03  0.17188654235E+03 -0.61728286501E+03  0.96573252067E+03  0.70000000000E+03 0. -1.
<mgrwt>
<rscale>  0 0.14896465E+04</rscale>
<asrwt>0</asrwt>
<pdfrwt beam="1">  1        3 0.46528218E-01 0.14896465E+04</pdfrwt>
<pdfrwt beam="2">  1       -3 0.24332905E+00 0.14896465E+04</pdfrwt>
<totfact> 0.93655440E-01</totfact>
</mgrwt>
</event>
<event>
 8    1  0.1714417E-029  0.1644851E+04  0.7818608E-02  0.8793458E-01
         -3   -1    0    0    0  501 -0.00000000000E+00  0.00000000000E+00  0.61127829460E+03  0.61127830295E+03  0.10100000000E+00 0. -1.
          3   -1    0    0  501    0  0.00000000000E+00 -0.00000000000E+00 -0.11065070495E+04  0.11065070541E+04  0.10100000000E+00 0.  1.
     200001    2    1    2    0    0 -0.39645067769E+03 -0.15746235788E+03 -0.31407566739E+03  0.87827122668E+03  0.70053500182E+03 0.  0.
    5000001    2    3    3    0    0 -0.10869089934E+03  0.65647078262E+02 -0.78445183916E+02  0.21637604217E+03  0.15665788925E+03 0.  0.
        -13    1    4    4    0    0 -0.12885027772E+03  0.26574828133E+01 -0.46085093925E+02  0.13686965818E+03  0.10566000000E+00 0. -1.
     200003    1    4    4    0    0  0.20159378383E+02  0.62989595449E+02 -0.32360089991E+02  0.79506383994E+02  0.30000000000E+02 0. -1.
     200000    1    3    3    0    0 -0.28775977835E+03 -0.22310943615E+03 -0.23563048348E+03  0.66189518451E+03  0.50000000000E+03 0. -1.
    -200001    1    1    2    0    0  0.39645067769E+03  0.15746235788E+03 -0.18115308750E+03  0.83951413038E+03  0.70000000000E+03 0. -1.
<mgrwt>
<rscale>  0 0.16448511E+04</rscale>
<asrwt>0</asrwt>
<pdfrwt beam="1">  1        3 0.15807244E+00 0.16448511E+04</pdfrwt>
<pdfrwt beam="2">  1       -3 0.87325472E-01 0.16448511E+04</pdfrwt>
<totfact> 0.84794230E-01</totfact>
</mgrwt>
</event>
<event>
 8    1  0.1714417E-029  0.2557030E+04  0.7818608E-02  0.8382945E-01
          3   -1    0    0  501    0  0.00000000000E+00  0.00000000000E+00  0.58423632116E+03  0.58423632989E+03  0.10100000000E+00 0. -1.
         -3   -1    0    0    0  501 -0.00000000000E+00 -0.00000000000E+00 -0.27978416690E+04  0.27978416708E+04  0.10100000000E+00 0.  1.
     200001    2    1    2    0    0  0.74879579882E+03 -0.24504679324E+03 -0.20641252905E+04  0.23176122348E+04  0.69997869753E+03 0.  0.
    5000001    2    3    3    0    0  0.99497404003E+02 -0.71443515647E+02 -0.37706136945E+03  0.43402226428E+03  0.17662429115E+03 0.  0.
        -13    1    4    4    0    0  0.11266311707E+03 -0.10953157666E+03 -0.32851488217E+03  0.36415955735E+03  0.10566000000E+00 0. -1.
     200003    1    4    4    0    0 -0.13165713067E+02  0.38088061016E+02 -0.48546487280E+02  0.69862706931E+02  0.30000000000E+02 0. -1.
     200000    1    3    3    0    0  0.64929839482E+03 -0.17360327760E+03 -0.16870639210E+04  0.18835899705E+04  0.50000000000E+03 0.  1.
    -200001    1    1    2    0    0 -0.74879579882E+03  0.24504679324E+03 -0.14948005738E+03  0.10644657659E+04  0.70000000000E+03 0. -1.
<mgrwt>
<rscale>  0 0.25570301E+04</rscale>
<asrwt>0</asrwt>
<pdfrwt beam="1">  1        3 0.83462334E-01 0.25570301E+04</pdfrwt>
<pdfrwt beam="2">  1       -3 0.39969166E+00 0.25570301E+04</pdfrwt>
<totfact> 0.32774989E-02</totfact>
</mgrwt>
</event>
<event>
 8    1  0.1714417E-029  0.1764004E+04  0.7818608E-02  0.8725679E-01
          3   -1    0    0  501    0  0.00000000000E+00  0.00000000000E+00  0.46489132815E+03  0.46489133912E+03  0.10100000000E+00 0.  1.
         -3   -1    0    0    0  501 -0.00000000000E+00 -0.00000000000E+00 -0.16733541661E+04  0.16733541691E+04  0.10100000000E+00 0. -1.
     200001    2    1    2    0    0  0.37260634447E+02  0.75084914497E+02 -0.12465859608E+04  0.14322147216E+04  0.70016880228E+03 0.  0.
    5000001    2    3    3    0    0  0.88910023380E+02  0.23988285464E+02 -0.38361215750E+03  0.43221356652E+03  0.17654985020E+03 0.  0.
        -13    1    4    4    0    0  0.11350130624E+02 -0.66443013812E+02 -0.20200713598E+03  0.21295631876E+03  0.10566000000E+00 0. -1.
     200003    1    4    4    0    0  0.77559892756E+02  0.90431299276E+02 -0.18160502152E+03  0.21925724776E+03  0.30000000000E+02 0. -1.
     200000    1    3    3    0    0 -0.51649388932E+02  0.51096629033E+02 -0.86297380332E+03  0.10000011550E+04  0.50000000000E+03 0. -1.
    -200001    1    1    2    0    0 -0.37260634447E+02 -0.75084914497E+02  0.38123122877E+02  0.70603078670E+03  0.70000000000E+03 0.  1.
<mgrwt>
<rscale>  0 0.17640044E+04</rscale>
<asrwt>0</asrwt>
<pdfrwt beam="1">  1        3 0.66413049E-01 0.17640044E+04</pdfrwt>
<pdfrwt beam="2">  1       -3 0.23905059E+00 0.17640044E+04</pdfrwt>
<totfact> 0.46206483E-01</totfact>
</mgrwt>
</event>
<event>
 8    1  0.1714417E-029  0.1447432E+04  0.7818608E-02  0.8920183E-01
          3   -1    0    0  501    0  0.00000000000E+00  0.00000000000E+00  0.12019404045E+04  0.12019404088E+04  0.10100000000E+00 0.  1.
         -3   -1    0    0    0  501 -0.00000000000E+00 -0.00000000000E+00 -0.43576601112E+03  0.43576602282E+03  0.10100000000E+00 0. -1.
     200001    2    1    2    0    0  0.62692941057E+02 -0.11861152588E+03  0.28694436712E+03  0.77883477819E+03  0.71151067664E+03 0.  0.
    5000001    2    3    3    0    0  0.31407790663E+02  0.23241413685E+02  0.12305132504E+03  0.23297587120E+03  0.19393172856E+03 0.  0.
        -13    1    4    4    0    0 -0.22085696161E+02  0.92216737459E+02  0.10006461426E+03  0.13785732782E+03  0.10566000000E+00 0. -1.
     200003    1    4    4    0    0  0.53493486825E+02 -0.68975323774E+02  0.22986710784E+02  0.95118543382E+02  0.30000000000E+02 0. -1.
     200000    1    3    3    0    0  0.31285150394E+02 -0.14185293956E+03  0.16389304207E+03  0.54585890699E+03  0.50000000000E+03 0. -1.
    -200001    1    1    2    0    0 -0.62692941057E+02  0.11861152588E+03  0.47923002631E+03  0.85887165342E+03  0.70000000000E+03 0.  1.
<mgrwt>
<rscale>  0 0.14474319E+04</rscale>
<asrwt>0</asrwt>
<pdfrwt beam="1">  1        3 0.17170578E+00 0.14474319E+04</pdfrwt>
<pdfrwt beam="2">  1       -3 0.62252288E-01 0.14474319E+04</pdfrwt>
<totfact> 0.14502093E+00</totfact>
</mgrwt>
</event>
<event>
 8    1  0.1913730E-029  0.1969714E+04  0.7818608E-02  0.8620913E-01
          3   -1    0    0  501    0  0.00000000000E+00  0.00000000000E+00  0.10082547412E+04  0.10082547463E+04  0.10100000000E+00 0.  1.
         -3   -1    0    0    0  501 -0.00000000000E+00 -0.00000000000E+00 -0.96200259103E+03  0.96200259634E+03  0.10100000000E+00 0. -1.
     200001    2    1    2    0    0  0.33040453104E+03 -0.60236156735E+03 -0.37969828336E+02  0.98582859781E+03  0.70598137683E+03 0.  0.
    5000001    2    3    3    0    0  0.76389420500E+02 -0.39245810378E+02  0.79968179799E+01  0.18975324666E+03  0.16901706518E+03 0.  0.
        -13    1    4    4    0    0  0.17960170238E+02  0.63543733322E+02  0.14467478011E+02  0.67599503279E+02  0.10566000000E+00 0. -1.
     200003    1    4    4    0    0  0.58429250262E+02 -0.10278954370E+03 -0.64706600314E+01  0.12215374338E+03  0.30000000000E+02 0. -1.
     200000    1    3    3    0    0  0.25401511054E+03 -0.56311575698E+03 -0.45966646316E+02  0.79607535115E+03  0.50000000000E+03 0. -1.
    -200001    1    1    2    0    0 -0.33040453104E+03  0.60236156735E+03  0.84221978532E+02  0.98442874482E+03  0.70000000000E+03 0.  1.
<mgrwt>
<rscale>  0 0.19697144E+04</rscale>
<asrwt>0</asrwt>
<pdfrwt beam="1">  1        3 0.14403639E+00 0.19697144E+04</pdfrwt>
<pdfrwt beam="2">  1       -3 0.13742894E+00 0.19697144E+04</pdfrwt>
<totfact> 0.35570584E-01</totfact>
</mgrwt>
</event>
<event>
 8    1  0.1714417E-029  0.1585559E+04  0.7818608E-02  0.8829469E-01
         -3   -1    0    0    0  501 -0.00000000000E+00  0.00000000000E+00  0.35546005698E+03  0.35546007133E+03  0.10100000000E+00 0. -1.
          3   -1    0    0  501    0  0.00000000000E+00 -0.00000000000E+00 -0.17681285535E+04  0.17681285564E+04  0.10100000000E+00 0.  1.
     200001    2    1    2    0    0 -0.28178008823E+02  0.30370954267E+03 -0.42114688877E+03  0.87213004466E+03  0.70015185952E+03 0.  0.
    5000001    2    3    3    0    0 -0.16103781998E+02  0.15085503622E+03 -0.53185709611E+02  0.23267268372E+03  0.16820013167E+03 0.  0.
        -13    1    4    4    0    0 -0.44599642129E+02  0.12497846948E+03 -0.99137758561E+02  0.16564133617E+03  0.10566000000E+00 0. -1.
     200003    1    4    4    0    0  0.28495860130E+02  0.25876566738E+02  0.45952048950E+02  0.67031347543E+02  0.30000000000E+02 0. -1.
     200000    1    3    3    0    0 -0.12074226824E+02  0.15285450645E+03 -0.36796117916E+03  0.63945736094E+03  0.50000000000E+03 0. -1.
    -200001    1    1    2    0    0  0.28178008823E+02 -0.30370954267E+03 -0.99152160778E+03  0.12514585831E+04  0.70000000000E+03 0.  1.
<mgrwt>
<rscale>  0 0.15855587E+04</rscale>
<asrwt>0</asrwt>
<pdfrwt beam="1">  1        3 0.25258979E+00 0.15855587E+04</pdfrwt>
<pdfrwt beam="2">  1       -3 0.50780010E-01 0.15855587E+04</pdfrwt>
<totfact> 0.69471379E-01</totfact>
</mgrwt>
</event>
<event>
 8    1  0.1714417E-029  0.1576572E+04  0.7818608E-02  0.8835071E-01
          3   -1    0    0  501    0  0.00000000000E+00  0.00000000000E+00  0.13448307779E+04  0.13448307817E+04  0.10100000000E+00 0.  1.
         -3   -1    0    0    0  501 -0.00000000000E+00 -0.00000000000E+00 -0.46206186238E+03  0.46206187342E+03  0.10100000000E+00 0. -1.
     200001    2    1    2    0    0 -0.45837096839E+02  0.30642902178E+03  0.65781338682E+03  0.10090174927E+04  0.69956991351E+03 0.  0.
    5000001    2    3    3    0    0 -0.78878266547E+01  0.19616321769E+02  0.15263265277E+03  0.24161326674E+03  0.18610004321E+03 0.  0.
        -13    1    4    4    0    0 -0.79416240493E+02  0.56701573188E+02  0.10493177481E+03  0.14329234517E+03  0.10566000000E+00 0. -1.
     200003    1    4    4    0    0  0.71528413838E+02 -0.37085251418E+02  0.47700877963E+02  0.98320921565E+02  0.30000000000E+02 0. -1.
     200000    1    3    3    0    0 -0.37949270184E+02  0.28681270001E+03  0.50518073405E+03  0.76740422598E+03  0.50000000000E+03 0.  1.
    -200001    1    1    2    0    0  0.45837096839E+02 -0.30642902178E+03  0.22495552867E+03  0.79787516237E+03  0.70000000000E+03 0. -1.
<mgrwt>
<rscale>  0 0.15765723E+04</rscale>
<asrwt>0</asrwt>
<pdfrwt beam="1">  1        3 0.19211869E+00 0.15765723E+04</pdfrwt>
<pdfrwt beam="2">  1       -3 0.66008838E-01 0.15765723E+04</pdfrwt>
<totfact> 0.92705435E-01</totfact>
</mgrwt>
</event>
<event>
 8    1  0.1714417E-029  0.1791304E+04  0.7818608E-02  0.8710938E-01
          3   -1    0    0  501    0  0.00000000000E+00  0.00000000000E+00  0.17982880278E+04  0.17982880306E+04  0.10100000000E+00 0. -1.
         -3   -1    0    0    0  501 -0.00000000000E+00 -0.00000000000E+00 -0.44608669962E+03  0.44608671106E+03  0.10100000000E+00 0.  1.
     200001    2    1    2    0    0 -0.11359633107E+03  0.44907620202E+03  0.28454751007E+03  0.88626641134E+03  0.69994807288E+03 0.  0.
    5000001    2    3    3    0    0 -0.11619463866E+03  0.80597172570E+02  0.12452070360E+03  0.24486784170E+03  0.15638975668E+03 0.  0.
        -13    1    4    4    0    0 -0.40505932618E+02 -0.45292834795E+02  0.31680247364E+02  0.68526058533E+02  0.10566000000E+00 0. -1.
     200003    1    4    4    0    0 -0.75688706042E+02  0.12589000737E+03  0.92840456241E+02  0.17634178317E+03  0.30000000000E+02 0. -1.
     200000    1    3    3    0    0  0.25983075911E+01  0.36847902945E+03  0.16002680647E+03  0.64139856964E+03  0.50000000000E+03 0.  1.
    -200001    1    1    2    0    0  0.11359633107E+03 -0.44907620202E+03  0.10676538181E+04  0.13581083303E+04  0.70000000000E+03 0. -1.
<mgrwt>
<rscale>  0 0.17913039E+04</rscale>
<asrwt>0</asrwt>
<pdfrwt beam="1">  1        3 0.25689829E+00 0.17913039E+04</pdfrwt>
<pdfrwt beam="2">  1       -3 0.63726673E-01 0.17913039E+04</pdfrwt>
<totfact> 0.40112851E-01</totfact>
</mgrwt>
</event>
<event>
 8    1  0.1714417E-029  0.1597853E+04  0.7818608E-02  0.8821868E-01
         -3   -1    0    0    0  501 -0.00000000000E+00  0.00000000000E+00  0.67859781756E+03  0.67859782508E+03  0.10100000000E+00 0. -1.
          3   -1    0    0  501    0  0.00000000000E+00 -0.00000000000E+00 -0.94059216767E+03  0.94059217309E+03  0.10100000000E+00 0.  1.
     200001    2    1    2    0    0 -0.16100581938E+03  0.33838302128E+03 -0.20712772283E+03  0.82330288949E+03  0.70320680551E+03 0.  0.
    5000001    2    3    3    0    0 -0.19366109487E+02  0.11259538843E+03 -0.46156677448E+02  0.23427526704E+03  0.19925283983E+03 0.  0.
        -13    1    4    4    0    0  0.29406908576E+01  0.14565047326E+03  0.24548082930E+02  0.14773397565E+03  0.10566000000E+00 0. -1.
     200003    1    4    4    0    0 -0.22306800345E+02 -0.33055084824E+02 -0.70704760378E+02  0.86541291384E+02  0.30000000000E+02 0. -1.
     200000    1    3    3    0    0 -0.14163970989E+03  0.22578763285E+03 -0.16097104538E+03  0.58902762246E+03  0.50000000000E+03 0. -1.
    -200001    1    1    2    0    0  0.16100581938E+03 -0.33838302128E+03 -0.54866627281E+02  0.79588710868E+03  0.70000000000E+03 0.  1.
<mgrwt>
<rscale>  0 0.15978533E+04</rscale>
<asrwt>0</asrwt>
<pdfrwt beam="1">  1        3 0.13437031E+00 0.15978533E+04</pdfrwt>
<pdfrwt beam="2">  1       -3 0.96942547E-01 0.15978533E+04</pdfrwt>
<totfact> 0.10167624E+00</totfact>
</mgrwt>
</event>
<event>
 8    1  0.1714417E-029  0.2341428E+04  0.7818608E-02  0.8461763E-01
         -3   -1    0    0    0  501 -0.00000000000E+00  0.00000000000E+00  0.58971318101E+03  0.58971318966E+03  0.10100000000E+00 0. -1.
          3   -1    0    0  501    0  0.00000000000E+00 -0.00000000000E+00 -0.23241327088E+04  0.23241327110E+04  0.10100000000E+00 0.  1.
     200001    2    1    2    0    0  0.33573773261E+03  0.42735621455E+02 -0.19558468509E+04  0.21054052919E+04  0.70203160941E+03 0.  0.
    5000001    2    3    3    0    0  0.25835116442E+02  0.12705231139E+02 -0.46548558320E+03  0.50287037370E+03  0.18807686842E+03 0.  0.
        -13    1    4    4    0    0 -0.36642279899E+02  0.83426792952E+02 -0.23231614964E+03  0.24954657081E+03  0.10566000000E+00 0. -1.
     200003    1    4    4    0    0  0.62477396341E+02 -0.70721561813E+02 -0.23316943356E+03  0.25332380288E+03  0.30000000000E+02 0. -1.
     200000    1    3    3    0    0  0.30990261617E+03  0.30030390316E+02 -0.14903612677E+04  0.16025349182E+04  0.50000000000E+03 0.  1.
    -200001    1    1    2    0    0 -0.33573773261E+03 -0.42735621455E+02  0.22142732311E+03  0.80844060874E+03  0.70000000000E+03 0. -1.
<mgrwt>
<rscale>  0 0.23414284E+04</rscale>
<asrwt>0</asrwt>
<pdfrwt beam="1">  1        3 0.33201895E+00 0.23414284E+04</pdfrwt>
<pdfrwt beam="2">  1       -3 0.84244742E-01 0.23414284E+04</pdfrwt>
<totfact> 0.79492767E-02</totfact>
</mgrwt>
</event>
<event>
 8    1  0.1714417E-029  0.1471181E+04  0.7818608E-02  0.8903847E-01
          3   -1    0    0  501    0  0.00000000000E+00  0.00000000000E+00  0.12118956712E+03  0.12118960921E+03  0.10100000000E+00 0.  1.
         -3   -1    0    0    0  501 -0.00000000000E+00 -0.00000000000E+00 -0.44648515691E+04  0.44648515703E+04  0.10100000000E+00 0. -1.
     200001    2    1    2    0    0 -0.19409877538E+02 -0.21510896363E+03 -0.19664975947E+04  0.20985606813E+04  0.70013965281E+03 0.  0.
    5000001    2    3    3    0    0 -0.56897315048E+02 -0.58947209902E+02 -0.40591605804E+03  0.45198650017E+03  0.18114047628E+03 0.  0.
        -13    1    4    4    0    0  0.59772984080E+01 -0.99888392669E+02 -0.12748689332E+03  0.16206893046E+03  0.10566000000E+00 0. -1.
     200003    1    4    4    0    0 -0.62874613456E+02  0.40941182768E+02 -0.27842916472E+03  0.28991756972E+03  0.30000000000E+02 0. -1.
     200000    1    3    3    0    0  0.37487437510E+02 -0.15616175372E+03 -0.15605815367E+04  0.16465741811E+04  0.50000000000E+03 0.  1.
    -200001    1    1    2    0    0  0.19409877538E+02  0.21510896363E+03 -0.23771644073E+04  0.24874804982E+04  0.70000000000E+03 0. -1.
<mgrwt>
<rscale>  0 0.14711812E+04</rscale>
<asrwt>0</asrwt>
<pdfrwt beam="1">  1        3 0.17312801E-01 0.14711812E+04</pdfrwt>
<pdfrwt beam="2">  1       -3 0.63783584E+00 0.14711812E+04</pdfrwt>
<totfact> 0.43873809E-02</totfact>
</mgrwt>
</event>
<event>
 8    1  0.1714417E-029  0.1449006E+04  0.7818608E-02  0.8919090E-01
         -3   -1    0    0    0  501 -0.00000000000E+00  0.00000000000E+00  0.14160753617E+04  0.14160753653E+04  0.10100000000E+00 0. -1.
          3   -1    0    0  501    0  0.00000000000E+00 -0.00000000000E+00 -0.37067576053E+03  0.37067577429E+03  0.10100000000E+00 0.  1.
     200001    2    1    2    0    0 -0.11973899190E+03 -0.14261129064E+03  0.50637767825E+03  0.88385577479E+03  0.70007661809E+03 0.  0.
    5000001    2    3    3    0    0 -0.51406459559E+02 -0.44691246754E+02  0.19240743852E+03  0.28149792317E+03  0.19385697493E+03 0.  0.
        -13    1    4    4    0    0 -0.89815347600E+02  0.81223107546E+01  0.18916311910E+03  0.20956017129E+03  0.10566000000E+00 0. -1.
     200003    1    4    4    0    0  0.38408888041E+02 -0.52813557509E+02  0.32443194135E+01  0.71937751881E+02  0.30000000000E+02 0. -1.
     200000    1    3    3    0    0 -0.68332532336E+02 -0.97920043882E+02  0.31397023973E+03  0.60235785162E+03  0.50000000000E+03 0.  1.
    -200001    1    1    2    0    0  0.11973899190E+03  0.14261129064E+03  0.53902192292E+03  0.90289536480E+03  0.70000000000E+03 0. -1.
<mgrwt>
<rscale>  0 0.14490063E+04</rscale>
<asrwt>0</asrwt>
<pdfrwt beam="1">  1        3 0.52953681E-01 0.14490063E+04</pdfrwt>
<pdfrwt beam="2">  1       -3 0.20229648E+00 0.14490063E+04</pdfrwt>
<totfact> 0.12753426E+00</totfact>
</mgrwt>
</event>
<event>
 8    1  0.1714417E-029  0.1430308E+04  0.7818608E-02  0.8932168E-01
          3   -1    0    0  501    0  0.00000000000E+00  0.00000000000E+00  0.60533189470E+03  0.60533190313E+03  0.10100000000E+00 0.  1.
         -3   -1    0    0    0  501 -0.00000000000E+00 -0.00000000000E+00 -0.84490038667E+03  0.84490039270E+03  0.10100000000E+00 0. -1.
     200001    2    1    2    0    0 -0.89701123521E+02  0.73501251714E+02 -0.19739488098E+03  0.73943883847E+03  0.70310477970E+03 0.  0.
    5000001    2    3    3    0    0 -0.92999027991E+02  0.19452359577E+02 -0.92800014481E+02  0.22575387177E+03  0.18255342898E+03 0.  0.
        -13    1    4    4    0    0 -0.10018891178E+03 -0.46598583070E+02 -0.10430686052E+03  0.15195123660E+03  0.10566000000E+00 0. -1.
     200003    1    4    4    0    0  0.71898837905E+01  0.66050942647E+02  0.11506846036E+02  0.73802635178E+02  0.30000000000E+02 0. -1.
     200000    1    3    3    0    0  0.32979044695E+01  0.54048892136E+02 -0.10459486650E+03  0.51368496670E+03  0.50000000000E+03 0. -1.
    -200001    1    1    2    0    0  0.89701123521E+02 -0.73501251714E+02 -0.42173610985E+02  0.71079345736E+03  0.70000000000E+03 0. -1.
<mgrwt>
<rscale>  0 0.14303079E+04</rscale>
<asrwt>0</asrwt>
<pdfrwt beam="1">  1        3 0.86475986E-01 0.14303079E+04</pdfrwt>
<pdfrwt beam="2">  1       -3 0.12070006E+00 0.14303079E+04</pdfrwt>
<totfact> 0.17421589E+00</totfact>
</mgrwt>
</event>
<event>
 8    1  0.1714417E-029  0.2655249E+04  0.7818608E-02  0.8349673E-01
         -3   -1    0    0    0  501 -0.00000000000E+00  0.00000000000E+00  0.70701800591E+03  0.70701801313E+03  0.10100000000E+00 0. -1.
          3   -1    0    0  501    0  0.00000000000E+00 -0.00000000000E+00 -0.24929874215E+04  0.24929874235E+04  0.10100000000E+00 0.  1.
     200001    2    1    2    0    0  0.59361010097E+03  0.46407996441E+03 -0.19038496349E+04  0.21648054988E+04  0.70284866789E+03 0.  0.
    5000001    2    3    3    0    0  0.25047760306E+03  0.26147626861E+03 -0.71952549764E+03  0.81891849359E+03  0.14765394919E+03 0.  0.
        -13    1    4    4    0    0  0.85181245300E+02  0.81935166009E+02 -0.10916169919E+03  0.16088972532E+03  0.10566000000E+00 0. -1.
     200003    1    4    4    0    0  0.16529635776E+03  0.17954110260E+03 -0.61036379845E+03  0.65802876827E+03  0.30000000000E+02 0. -1.
     200000    1    3    3    0    0  0.34313249791E+03  0.20260369580E+03 -0.11843241372E+04  0.13458870052E+04  0.50000000000E+03 0.  1.
    -200001    1    1    2    0    0 -0.59361010097E+03 -0.46407996441E+03  0.11788021929E+03  0.10351999379E+04  0.70000000000E+03 0. -1.
<mgrwt>
<rscale>  0 0.26552491E+04</rscale>
<asrwt>0</asrwt>
<pdfrwt beam="1">  1        3 0.35614106E+00 0.26552491E+04</pdfrwt>
<pdfrwt beam="2">  1       -3 0.10100257E+00 0.26552491E+04</pdfrwt>
<totfact> 0.37727524E-02</totfact>
</mgrwt>
</event>
<event>
 8    1  0.1714417E-029  0.1634467E+04  0.7818608E-02  0.8799649E-01
          3   -1    0    0  501    0  0.00000000000E+00  0.00000000000E+00  0.49955734213E+03  0.49955735234E+03  0.10100000000E+00 0.  1.
         -3   -1    0    0    0  501 -0.00000000000E+00 -0.00000000000E+00 -0.13369248680E+04  0.13369248718E+04  0.10100000000E+00 0. -1.
     200001    2    1    2    0    0 -0.10256513683E+02  0.10010837345E+03  0.42778699166E+02  0.70741878043E+03  0.69891661255E+03 0.  0.
    5000001    2    3    3    0    0  0.28957703544E+02  0.31556359946E+02  0.73909236904E+02  0.20026373139E+03  0.18113153884E+03 0.  0.
        -13    1    4    4    0    0  0.16724886159E+01 -0.37409206029E+02  0.10724292612E+03  0.11359270347E+03  0.10566000000E+00 0. -1.
     200003    1    4    4    0    0  0.27285214928E+02  0.68965565975E+02 -0.33333689219E+02  0.86671027921E+02  0.30000000000E+02 0. -1.
     200000    1    3    3    0    0 -0.39214217227E+02  0.68552013503E+02 -0.31130537737E+02  0.50715504904E+03  0.50000000000E+03 0.  1.
    -200001    1    1    2    0    0  0.10256513683E+02 -0.10010837345E+03 -0.88014622500E+03  0.11290634437E+04  0.70000000000E+03 0. -1.
<mgrwt>
<rscale>  0 0.16344671E+04</rscale>
<asrwt>0</asrwt>
<pdfrwt beam="1">  1        3 0.71365336E-01 0.16344671E+04</pdfrwt>
<pdfrwt beam="2">  1       -3 0.19098927E+00 0.16344671E+04</pdfrwt>
<totfact> 0.78848052E-01</totfact>
</mgrwt>
</event>
<event>
 8    1  0.1714417E-029  0.1910722E+04  0.7818608E-02  0.8649537E-01
          3   -1    0    0  501    0  0.00000000000E+00  0.00000000000E+00  0.16225389852E+04  0.16225389883E+04  0.10100000000E+00 0.  1.
         -3   -1    0    0    0  501 -0.00000000000E+00 -0.00000000000E+00 -0.56252274941E+03  0.56252275848E+03  0.10100000000E+00 0. -1.
     200001    2    1    2    0    0 -0.52227946446E+03  0.18749729228E+03  0.91798647744E+03  0.12805709918E+04  0.69945108387E+03 0.  0.
    5000001    2    3    3    0    0 -0.15378598395E+03 -0.53362044192E+02  0.23459062131E+03  0.32619655727E+03  0.15771429152E+03 0.  0.
        -13    1    4    4    0    0 -0.83678279886E+02 -0.74052270764E+02  0.21871240082E+03  0.24560317336E+03  0.10566000000E+00 0. -1.
     200003    1    4    4    0    0 -0.70107704059E+02  0.20690226572E+02  0.15878220493E+02  0.80593383910E+02  0.30000000000E+02 0. -1.
     200000    1    3    3    0    0 -0.36849348052E+03  0.24085933647E+03  0.68339585613E+03  0.95437443455E+03  0.50000000000E+03 0.  1.
    -200001    1    1    2    0    0  0.52227946446E+03 -0.18749729228E+03  0.14202975834E+03  0.90449075499E+03  0.70000000000E+03 0. -1.
<mgrwt>
<rscale>  0 0.19107225E+04</rscale>
<asrwt>0</asrwt>
<pdfrwt beam="1">  1        3 0.23179129E+00 0.19107225E+04</pdfrwt>
<pdfrwt beam="2">  1       -3 0.80360392E-01 0.19107225E+04</pdfrwt>
<totfact> 0.33461747E-01</totfact>
</mgrwt>
</event>
<event>
 8    1  0.1714417E-029  0.1719944E+04  0.7818608E-02  0.8750070E-01
          3   -1    0    0  501    0  0.00000000000E+00  0.00000000000E+00  0.47256844641E+03  0.47256845720E+03  0.10100000000E+00 0.  1.
         -3   -1    0    0    0  501 -0.00000000000E+00 -0.00000000000E+00 -0.15649629594E+04  0.15649629626E+04  0.10100000000E+00 0. -1.
     200001    2    1    2    0    0 -0.45244980878E+03 -0.20545823133E+02 -0.29726159610E+03  0.88541627117E+03  0.70033174740E+03 0.  0.
    5000001    2    3    3    0    0 -0.55533359742E+02  0.26243994924E+02 -0.11779748759E+03  0.22063110223E+03  0.17615088384E+03 0.  0.
        -13    1    4    4    0    0 -0.11592868280E+03  0.10884807365E+02 -0.62986888376E+02  0.13238314772E+03  0.10566000000E+00 0. -1.
     200003    1    4    4    0    0  0.60395323061E+02  0.15359187559E+02 -0.54810599217E+02  0.88247954518E+02  0.30000000000E+02 0. -1.
     200000    1    3    3    0    0 -0.39691644904E+03 -0.46789818056E+02 -0.17946410851E+03  0.66478516894E+03  0.50000000000E+03 0.  1.
    -200001    1    1    2    0    0  0.45244980878E+03  0.20545823133E+02 -0.79513291688E+03  0.11521151487E+04  0.70000000000E+03 0. -1.
<mgrwt>
<rscale>  0 0.17199443E+04</rscale>
<asrwt>0</asrwt>
<pdfrwt beam="1">  1        3 0.67509780E-01 0.17199443E+04</pdfrwt>
<pdfrwt beam="2">  1       -3 0.22356614E+00 0.17199443E+04</pdfrwt>
<totfact> 0.55335134E-01</totfact>
</mgrwt>
</event>
<event>
 8    1  0.1714417E-029  0.1454533E+04  0.7818608E-02  0.8915264E-01
          3   -1    0    0  501    0  0.00000000000E+00  0.00000000000E+00  0.10726768384E+04  0.10726768432E+04  0.10100000000E+00 0.  1.
         -3   -1    0    0    0  501 -0.00000000000E+00 -0.00000000000E+00 -0.49308123668E+03  0.49308124702E+03  0.10100000000E+00 0. -1.
     200001    2    1    2    0    0 -0.48506261324E+02 -0.18975433618E+03  0.31070623352E+03  0.79073482743E+03  0.70025969346E+03 0.  0.
    5000001    2    3    3    0    0  0.10124978841E+02  0.18423039187E+02  0.10974426593E+03  0.21007903063E+03  0.17789736265E+03 0.  0.
        -13    1    4    4    0    0  0.82275936844E+02  0.42152764297E+02  0.82745540750E+02  0.12406861408E+03  0.10566000000E+00 0. -1.
     200003    1    4    4    0    0 -0.72150958003E+02 -0.23729725110E+02  0.26998725176E+02  0.86010416553E+02  0.30000000000E+02 0. -1.
     200000    1    3    3    0    0 -0.58631240165E+02 -0.20817737537E+03  0.20096196759E+03  0.58065579680E+03  0.50000000000E+03 0.  1.
    -200001    1    1    2    0    0  0.48506261324E+02  0.18975433618E+03  0.26888936824E+03  0.77502326277E+03  0.70000000000E+03 0. -1.
<mgrwt>
<rscale>  0 0.14545334E+04</rscale>
<asrwt>0</asrwt>
<pdfrwt beam="1">  1        3 0.15323955E+00 0.14545334E+04</pdfrwt>
<pdfrwt beam="2">  1       -3 0.70440179E-01 0.14545334E+04</pdfrwt>
<totfact> 0.15043743E+00</totfact>
</mgrwt>
</event>
<event>
 8    1  0.1714417E-029  0.2144254E+04  0.7818608E-02  0.8541996E-01
         -3   -1    0    0    0  501 -0.00000000000E+00  0.00000000000E+00  0.26423252016E+04  0.26423252035E+04  0.10100000000E+00 0. -1.
          3   -1    0    0  501    0  0.00000000000E+00 -0.00000000000E+00 -0.43501692452E+03  0.43501693625E+03  0.10100000000E+00 0.  1.
     200001    2    1    2    0    0 -0.18787952107E+03 -0.53263978756E+02 -0.26487017780E+02  0.72830463790E+03  0.70113502096E+03 0.  0.
    5000001    2    3    3    0    0 -0.32789114756E+02 -0.36563701379E+01 -0.25304166490E+02  0.20245737101E+03  0.19814184602E+03 0.  0.
        -13    1    4    4    0    0 -0.24017833785E+02 -0.30971629022E+02 -0.10528662526E+03  0.11234492764E+03  0.10566000000E+00 0. -1.
     200003    1    4    4    0    0 -0.87712809710E+01  0.27315258884E+02  0.79982458774E+02  0.90112443365E+02  0.30000000000E+02 0. -1.
     200000    1    3    3    0    0 -0.15509040631E+03 -0.49607608618E+02 -0.11828512905E+01  0.52584726689E+03  0.50000000000E+03 0.  1.
    -200001    1    1    2    0    0  0.18787952107E+03  0.53263978756E+02  0.22337952948E+04  0.23490375019E+04  0.70000000000E+03 0. -1.
<mgrwt>
<rscale>  0 0.21442539E+04</rscale>
<asrwt>0</asrwt>
<pdfrwt beam="1">  1        3 0.62145274E-01 0.21442539E+04</pdfrwt>
<pdfrwt beam="2">  1       -3 0.37747504E+00 0.21442539E+04</pdfrwt>
<totfact> 0.85923688E-02</totfact>
</mgrwt>
</event>
<event>
 8    1  0.1714417E-029  0.1469267E+04  0.7818608E-02  0.8905151E-01
         -3   -1    0    0    0  501 -0.00000000000E+00  0.00000000000E+00  0.17594805666E+04  0.17594805695E+04  0.10100000000E+00 0. -1.
          3   -1    0    0  501    0  0.00000000000E+00 -0.00000000000E+00 -0.30673055735E+03  0.30673057398E+03  0.10100000000E+00 0.  1.
     200001    2    1    2    0    0 -0.95476391062E+01 -0.45724541817E+02  0.10329558631E+04  0.12486482919E+04  0.69995917784E+03 0.  0.
    5000001    2    3    3    0    0  0.69685343749E+02  0.18828023186E+02  0.27659107746E+03  0.33621605433E+03  0.17699737135E+03 0.  0.
        -13    1    4    4    0    0 -0.40496938743E+02  0.10250372231E+02  0.18477299809E+03  0.18943638554E+03  0.10566000000E+00 0. -1.
     200003    1    4    4    0    0  0.11018228249E+03  0.85776509541E+01  0.91818079370E+02  0.14677966879E+03  0.30000000000E+02 0. -1.
     200000    1    3    3    0    0 -0.79232982855E+02 -0.64552565003E+02  0.75636478563E+03  0.91243223757E+03  0.50000000000E+03 0. -1.
    -200001    1    1    2    0    0  0.95476391062E+01  0.45724541817E+02  0.41979414616E+03  0.81756285158E+03  0.70000000000E+03 0.  1.
<mgrwt>
<rscale>  0 0.14692671E+04</rscale>
<asrwt>0</asrwt>
<pdfrwt beam="1">  1        3 0.43818653E-01 0.14692671E+04</pdfrwt>
<pdfrwt beam="2">  1       -3 0.25135437E+00 0.14692671E+04</pdfrwt>
<totfact> 0.95094120E-01</totfact>
</mgrwt>
</event>
<event>
 8    1  0.1714417E-029  0.1544376E+04  0.7818608E-02  0.8855468E-01
         -3   -1    0    0    0  501 -0.00000000000E+00  0.00000000000E+00  0.48738793877E+03  0.48738794923E+03  0.10100000000E+00 0. -1.
          3   -1    0    0  501    0  0.00000000000E+00 -0.00000000000E+00 -0.12234073742E+04  0.12234073784E+04  0.10100000000E+00 0.  1.
     200001    2    1    2    0    0 -0.10292972266E+03  0.19232912427E+03 -0.63953225762E+03  0.97127197077E+03  0.69769815309E+03 0.  0.
    5000001    2    3    3    0    0  0.39097525551E+02  0.44901162480E+02 -0.16048090249E+03  0.24919375894E+03  0.18110405444E+03 0.  0.
        -13    1    4    4    0    0  0.93631658768E+02 -0.13666887925E+02 -0.43053379461E+02  0.10395804921E+03  0.10566000000E+00 0. -1.
     200003    1    4    4    0    0 -0.54534133217E+02  0.58568050405E+02 -0.11742752303E+03  0.14523570973E+03  0.30000000000E+02 0. -1.
     200000    1    3    3    0    0 -0.14202724821E+03  0.14742796179E+03 -0.47905135513E+03  0.72207821183E+03  0.50000000000E+03 0.  1.
    -200001    1    1    2    0    0  0.10292972266E+03 -0.19232912427E+03 -0.96487177835E+02  0.73952335686E+03  0.70000000000E+03 0. -1.
<mgrwt>
<rscale>  0 0.15443756E+04</rscale>
<asrwt>0</asrwt>
<pdfrwt beam="1">  1        3 0.17477248E+00 0.15443756E+04</pdfrwt>
<pdfrwt beam="2">  1       -3 0.69626850E-01 0.15443756E+04</pdfrwt>
<totfact> 0.10785594E+00</totfact>
</mgrwt>
</event>
<event>
 8    1  0.1714417E-029  0.1446756E+04  0.7818608E-02  0.8920652E-01
          3   -1    0    0  501    0  0.00000000000E+00  0.00000000000E+00  0.89896860927E+03  0.89896861494E+03  0.10100000000E+00 0. -1.
         -3   -1    0    0    0  501 -0.00000000000E+00 -0.00000000000E+00 -0.58208472559E+03  0.58208473435E+03  0.10100000000E+00 0.  1.
     200001    2    1    2    0    0 -0.15030022625E+03 -0.93790364309E+02  0.19221429924E+03  0.74829875481E+03  0.70115468990E+03 0.  0.
    5000001    2    3    3    0    0 -0.30940248090E+02 -0.11880767232E+02  0.12920304144E+03  0.22396450541E+03  0.17991170664E+03 0.  0.
        -13    1    4    4    0    0  0.38586240597E+02 -0.72873705033E+02  0.80416434412E+02  0.11517937722E+03  0.10566000000E+00 0. -1.
     200003    1    4    4    0    0 -0.69526488687E+02  0.60992937801E+02  0.48786607025E+02  0.10878512819E+03  0.30000000000E+02 0. -1.
     200000    1    3    3    0    0 -0.11935997816E+03 -0.81909597077E+02  0.63011257805E+02  0.52433424940E+03  0.50000000000E+03 0.  1.
    -200001    1    1    2    0    0  0.15030022625E+03  0.93790364309E+02  0.12466958444E+03  0.73275459448E+03  0.70000000000E+03 0. -1.
<mgrwt>
<rscale>  0 0.14467562E+04</rscale>
<asrwt>0</asrwt>
<pdfrwt beam="1">  1        3 0.12842409E+00 0.14467562E+04</pdfrwt>
<pdfrwt beam="2">  1       -3 0.83154963E-01 0.14467562E+04</pdfrwt>
<totfact> 0.16336421E+00</totfact>
</mgrwt>
</event>
<event>
 8    1  0.1714417E-029  0.1703771E+04  0.7818608E-02  0.8759216E-01
          3   -1    0    0  501    0  0.00000000000E+00  0.00000000000E+00  0.26852178248E+04  0.26852178267E+04  0.10100000000E+00 0.  1.
         -3   -1    0    0    0  501 -0.00000000000E+00 -0.00000000000E+00 -0.27026074390E+03  0.27026076277E+03  0.10100000000E+00 0. -1.
     200001    2    1    2    0    0 -0.45915397673E+03 -0.15334446414E+03  0.11779207338E+04  0.14539474300E+04  0.70151904811E+03 0.  0.
    5000001    2    3    3    0    0 -0.16394655572E+02 -0.40114933982E+01  0.19643099500E+03  0.25742820318E+03  0.16552724000E+03 0.  0.
        -13    1    4    4    0    0 -0.22280865230E+02  0.70656262072E+02  0.14180357185E+03  0.15999065122E+03  0.10566000000E+00 0. -1.
     200003    1    4    4    0    0  0.58862096582E+01 -0.74667755470E+02  0.54627423156E+02  0.97437551959E+02  0.30000000000E+02 0. -1.
     200000    1    3    3    0    0 -0.44275932116E+03 -0.14933297074E+03  0.98148973884E+03  0.11965192268E+04  0.50000000000E+03 0.  1.
    -200001    1    1    2    0    0  0.45915397673E+03  0.15334446414E+03  0.12370363471E+04  0.15015311595E+04  0.70000000000E+03 0.  1.
<mgrwt>
<rscale>  0 0.17037711E+04</rscale>
<asrwt>0</asrwt>
<pdfrwt beam="1">  1        3 0.38360256E+00 0.17037711E+04</pdfrwt>
<pdfrwt beam="2">  1       -3 0.38608678E-01 0.17037711E+04</pdfrwt>
<totfact> 0.22836736E-01</totfact>
</mgrwt>
</event>
<event>
 8    1  0.1714417E-029  0.1507574E+04  0.7818608E-02  0.8879432E-01
         -3   -1    0    0    0  501 -0.00000000000E+00  0.00000000000E+00  0.78124532210E+03  0.78124532863E+03  0.10100000000E+00 0.  1.
          3   -1    0    0  501    0  0.00000000000E+00 -0.00000000000E+00 -0.72729348137E+03  0.72729348839E+03  0.10100000000E+00 0. -1.
     200001    2    1    2    0    0 -0.65723688147E+02  0.13354693037E+03  0.26398533528E+03  0.76270475060E+03  0.69991134692E+03 0.  0.
    5000001    2    3    3    0    0 -0.25185322309E+02  0.12360988816E+03  0.10453084585E+03  0.23623743147E+03  0.17019906399E+03 0.  0.
        -13    1    4    4    0    0  0.16707514544E+02  0.14125915516E+03  0.11228646205E+03  0.18122237909E+03  0.10566000000E+00 0. -1.
     200003    1    4    4    0    0 -0.41892836853E+02 -0.17649267002E+02 -0.77556162010E+01  0.55015052376E+02  0.30000000000E+02 0. -1.
     200000    1    3    3    0    0 -0.40538365838E+02  0.99370422046E+01  0.15945448943E+03  0.52646731913E+03  0.50000000000E+03 0.  1.
    -200001    1    1    2    0    0  0.65723688147E+02 -0.13354693037E+03 -0.21003349455E+03  0.74583406642E+03  0.70000000000E+03 0. -1.
<mgrwt>
<rscale>  0 0.15075737E+04</rscale>
<asrwt>0</asrwt>
<pdfrwt beam="1">  1        3 0.10389907E+00 0.15075737E+04</pdfrwt>
<pdfrwt beam="2">  1       -3 0.11160648E+00 0.15075737E+04</pdfrwt>
<totfact> 0.13702220E+00</totfact>
</mgrwt>
</event>
<event>
 8    1  0.1714417E-029  0.1505736E+04  0.7818608E-02  0.8880647E-01
          3   -1    0    0  501    0  0.00000000000E+00  0.00000000000E+00  0.22208781933E+04  0.22208781956E+04  0.10100000000E+00 0.  1.
         -3   -1    0    0    0  501 -0.00000000000E+00 -0.00000000000E+00 -0.25521895892E+03  0.25521897890E+03  0.10100000000E+00 0. -1.
     200001    2    1    2    0    0 -0.20906586336E+03  0.14797369703E+03  0.11611670566E+04  0.13793691251E+04  0.69910335409E+03 0.  0.
    5000001    2    3    3    0    0 -0.94874474672E+02  0.23710823087E+02  0.85315031770E+02  0.18106260570E+03  0.12626022122E+03 0.  0.
        -13    1    4    4    0    0 -0.10197490834E+03 -0.21984654249E+02  0.50840120746E+02  0.11604712834E+03  0.10566000000E+00 0. -1.
     200003    1    4    4    0    0  0.71004336671E+01  0.45695477337E+02  0.34474911024E+02  0.65015477368E+02  0.30000000000E+02 0. -1.
     200000    1    3    3    0    0 -0.11419138869E+03  0.12426287395E+03  0.10758520248E+04  0.11983065194E+04  0.50000000000E+03 0.  1.
    -200001    1    1    2    0    0  0.20906586336E+03 -0.14797369703E+03  0.80449217779E+03  0.10967280494E+04  0.70000000000E+03 0. -1.
<mgrwt>
<rscale>  0 0.15057360E+04</rscale>
<asrwt>0</asrwt>
<pdfrwt beam="1">  1        3 0.31726832E+00 0.15057360E+04</pdfrwt>
<pdfrwt beam="2">  1       -3 0.36459852E-01 0.15057360E+04</pdfrwt>
<totfact> 0.59265881E-01</totfact>
</mgrwt>
</event>
<event>
 8    1  0.1714417E-029  0.1646485E+04  0.7818608E-02  0.8792489E-01
         -3   -1    0    0    0  501 -0.00000000000E+00  0.00000000000E+00  0.91481636355E+03  0.91481636913E+03  0.10100000000E+00 0. -1.
          3   -1    0    0  501    0  0.00000000000E+00 -0.00000000000E+00 -0.74083510273E+03  0.74083510961E+03  0.10100000000E+00 0.  1.
     200001    2    1    2    0    0  0.42252820643E+03 -0.81368419422E+02  0.36602567061E+02  0.82257056405E+03  0.70009405084E+03 0.  0.
    5000001    2    3    3    0    0  0.21264024142E+03 -0.29723795226E+02  0.48903329149E+02  0.27771146868E+03  0.16921213893E+03 0.  0.
        -13    1    4    4    0    0  0.12865805122E+03 -0.53401676530E+01  0.10793297458E+03  0.16802068236E+03  0.10566000000E+00 0. -1.
     200003    1    4    4    0    0  0.83982190195E+02 -0.24383627573E+02 -0.59029645433E+02  0.10969078632E+03  0.30000000000E+02 0. -1.
     200000    1    3    3    0    0  0.20988796501E+03 -0.51644624197E+02 -0.12300762088E+02  0.54485909538E+03  0.50000000000E+03 0.  1.
    -200001    1    1    2    0    0 -0.42252820643E+03  0.81368419422E+02  0.13737869377E+03  0.83308091468E+03  0.70000000000E+03 0. -1.
<mgrwt>
<rscale>  0 0.16464848E+04</rscale>
<asrwt>0</asrwt>
<pdfrwt beam="1">  1        3 0.10583359E+00 0.16464848E+04</pdfrwt>
<pdfrwt beam="2">  1       -3 0.13068805E+00 0.16464848E+04</pdfrwt>
<totfact> 0.88253103E-01</totfact>
</mgrwt>
</event>
<event>
 8    1  0.1714417E-029  0.1927754E+04  0.7818608E-02  0.8641163E-01
          3   -1    0    0  501    0  0.00000000000E+00  0.00000000000E+00  0.80112647790E+03  0.80112648426E+03  0.10100000000E+00 0.  1.
         -3   -1    0    0    0  501 -0.00000000000E+00 -0.00000000000E+00 -0.11596908050E+04  0.11596908094E+04  0.10100000000E+00 0. -1.
     200001    2    1    2    0    0 -0.14146947571E+03 -0.41894509121E+03  0.32150307793E+03  0.88936021222E+03  0.70147612643E+03 0.  0.
    5000001    2    3    3    0    0 -0.49393981824E+02 -0.34375867053E+02  0.71666371754E+02  0.20467797607E+03  0.18203169881E+03 0.  0.
        -13    1    4    4    0    0 -0.80508170867E+02 -0.89672124274E+02  0.55397988549E+02  0.13263334327E+03  0.10566000000E+00 0. -1.
     200003    1    4    4    0    0  0.31114189043E+02  0.55296257221E+02  0.16268383205E+02  0.72044632795E+02  0.30000000000E+02 0. -1.
     200000    1    3    3    0    0 -0.92075493881E+02 -0.38456922416E+03  0.24983670618E+03  0.68468223615E+03  0.50000000000E+03 0.  1.
    -200001    1    1    2    0    0  0.14146947571E+03  0.41894509121E+03 -0.68006740506E+03  0.10714570815E+04  0.70000000000E+03 0. -1.
<mgrwt>
<rscale>  0 0.19277542E+04</rscale>
<asrwt>0</asrwt>
<pdfrwt beam="1">  1        3 0.11444664E+00 0.19277542E+04</pdfrwt>
<pdfrwt beam="2">  1       -3 0.16567012E+00 0.19277542E+04</pdfrwt>
<totfact> 0.38767733E-01</totfact>
</mgrwt>
</event>
<event>
 8    1  0.1714417E-029  0.1678621E+04  0.7818608E-02  0.8773652E-01
          3   -1    0    0  501    0  0.00000000000E+00  0.00000000000E+00  0.91891952758E+03  0.91891953313E+03  0.10100000000E+00 0.  1.
         -3   -1    0    0    0  501 -0.00000000000E+00 -0.00000000000E+00 -0.76659855349E+03  0.76659856015E+03  0.10100000000E+00 0. -1.
     200001    2    1    2    0    0 -0.15718596625E+03 -0.42253770034E+03 -0.29832214450E+02  0.83321220904E+03  0.70007648731E+03 0.  0.
    5000001    2    3    3    0    0 -0.28985644100E+02 -0.49886303952E+02 -0.10113479012E+03  0.19259653398E+03  0.15341567144E+03 0.  0.
        -13    1    4    4    0    0 -0.19126834794E+02  0.34764771913E+02  0.17590143495E+02  0.43403334983E+02  0.10566000000E+00 0. -1.
     200003    1    4    4    0    0 -0.98588093057E+01 -0.84651075865E+02 -0.11872493362E+03  0.14919319900E+03  0.30000000000E+02 0. -1.
     200000    1    3    3    0    0 -0.12820032215E+03 -0.37265139639E+03  0.71302575672E+02  0.64061567506E+03  0.50000000000E+03 0.  1.
    -200001    1    1    2    0    0  0.15718596625E+03  0.42253770034E+03  0.18215318853E+03  0.85230588423E+03  0.70000000000E+03 0. -1.
<mgrwt>
<rscale>  0 0.16786213E+04</rscale>
<asrwt>0</asrwt>
<pdfrwt beam="1">  1        3 0.13127422E+00 0.16786213E+04</pdfrwt>
<pdfrwt beam="2">  1       -3 0.10951408E+00 0.16786213E+04</pdfrwt>
<totfact> 0.80334700E-01</totfact>
</mgrwt>
</event>
<event>
 8    1  0.1714417E-029  0.2018995E+04  0.7818608E-02  0.8597791E-01
         -3   -1    0    0    0  501 -0.00000000000E+00  0.00000000000E+00  0.85128471006E+03  0.85128471605E+03  0.10100000000E+00 0. -1.
          3   -1    0    0  501    0  0.00000000000E+00 -0.00000000000E+00 -0.11971147832E+04  0.11971147875E+04  0.10100000000E+00 0.  1.
     200001    2    1    2    0    0 -0.11997302143E+03  0.38220869527E+03  0.44301074129E+03  0.92023868027E+03  0.70007406690E+03 0.  0.
    5000001    2    3    3    0    0 -0.80546147738E+01  0.42246551451E+02  0.14346186849E+03  0.23625804007E+03  0.18272084133E+03 0.  0.
        -13    1    4    4    0    0 -0.56463492031E+02 -0.50040433050E+02  0.82726611449E+02  0.11196371858E+03  0.10566000000E+00 0. -1.
     200003    1    4    4    0    0  0.48408877257E+02  0.92286984501E+02  0.60735257043E+02  0.12429432149E+03  0.30000000000E+02 0. -1.
     200000    1    3    3    0    0 -0.11191840665E+03  0.33996214382E+03  0.29954887279E+03  0.68398064020E+03  0.50000000000E+03 0. -1.
    -200001    1    1    2    0    0  0.11997302143E+03 -0.38220869527E+03 -0.78884081446E+03  0.11281608233E+04  0.70000000000E+03 0.  1.
<mgrwt>
<rscale>  0 0.20189953E+04</rscale>
<asrwt>0</asrwt>
<pdfrwt beam="1">  1        3 0.17101640E+00 0.20189953E+04</pdfrwt>
<pdfrwt beam="2">  1       -3 0.12161210E+00 0.20189953E+04</pdfrwt>
<totfact> 0.30548511E-01</totfact>
</mgrwt>
</event>
<event>
 8    1  0.1714417E-029  0.3440190E+04  0.7818608E-02  0.8128112E-01
          3   -1    0    0  501    0  0.00000000000E+00  0.00000000000E+00  0.21028585298E+04  0.21028585322E+04  0.10100000000E+00 0.  1.
         -3   -1    0    0    0  501 -0.00000000000E+00 -0.00000000000E+00 -0.14070025610E+04  0.14070025646E+04  0.10100000000E+00 0. -1.
     200001    2    1    2    0    0 -0.11471956215E+04 -0.49491354127E+03  0.13197735622E+04  0.19477246205E+04  0.70059384407E+03 0.  0.
    5000001    2    3    3    0    0 -0.22085291392E+03 -0.87942635052E+02  0.38266556891E+03  0.48078647538E+03  0.16796660571E+03 0.  0.
        -13    1    4    4    0    0 -0.23788180980E+03 -0.72824732902E+02  0.35729712646E+03  0.43537621076E+03  0.10566000000E+00 0. -1.
     200003    1    4    4    0    0  0.17028895885E+02 -0.15117902150E+02  0.25368442450E+02  0.45410264620E+02  0.30000000000E+02 0. -1.
     200000    1    3    3    0    0 -0.92634270761E+03 -0.40697090622E+03  0.93710799326E+03  0.14669381451E+04  0.50000000000E+03 0.  1.
    -200001    1    1    2    0    0  0.11471956215E+04  0.49491354127E+03 -0.62391759342E+03  0.15621364764E+04  0.70000000000E+03 0. -1.
<mgrwt>
<rscale>  0 0.34401903E+04</rscale>
<asrwt>0</asrwt>
<pdfrwt beam="1">  1        3 0.30040836E+00 0.34401903E+04</pdfrwt>
<pdfrwt beam="2">  1       -3 0.20100037E+00 0.34401903E+04</pdfrwt>
<totfact> 0.12003173E-02</totfact>
</mgrwt>
</event>
<event>
 8    1  0.1714417E-029  0.1427540E+04  0.7818608E-02  0.8934122E-01
          3   -1    0    0  501    0  0.00000000000E+00  0.00000000000E+00  0.31703463879E+03  0.31703465488E+03  0.10100000000E+00 0.  1.
         -3   -1    0    0    0  501 -0.00000000000E+00 -0.00000000000E+00 -0.16069771509E+04  0.16069771541E+04  0.10100000000E+00 0. -1.
     200001    2    1    2    0    0  0.11499328294E+03  0.68472815716E+02 -0.68046964715E+03  0.98626495894E+03  0.70126146830E+03 0.  0.
    5000001    2    3    3    0    0  0.93179630497E+02  0.43702116838E+02 -0.27081558440E+03  0.33903557604E+03  0.17610145517E+03 0.  0.
        -13    1    4    4    0    0  0.67752184819E+02  0.62970780186E+02 -0.34539557501E+02  0.98735352845E+02  0.10566000000E+00 0. -1.
     200003    1    4    4    0    0  0.25427445678E+02 -0.19268663349E+02 -0.23627602690E+03  0.24030022320E+03  0.30000000000E+02 0. -1.
     200000    1    3    3    0    0  0.21813652441E+02  0.24770698879E+02 -0.40965406275E+03  0.64722938289E+03  0.50000000000E+03 0. -1.
    -200001    1    1    2    0    0 -0.11499328294E+03 -0.68472815716E+02 -0.60947286498E+03  0.93774685004E+03  0.70000000000E+03 0.  1.
<mgrwt>
<rscale>  0 0.14275398E+04</rscale>
<asrwt>0</asrwt>
<pdfrwt beam="1">  1        3 0.45290665E-01 0.14275398E+04</pdfrwt>
<pdfrwt beam="2">  1       -3 0.22956816E+00 0.14275398E+04</pdfrwt>
<totfact> 0.11976164E+00</totfact>
</mgrwt>
</event>
<event>
 8    1  0.1714417E-029  0.2171980E+04  0.7818608E-02  0.8530182E-01
          3   -1    0    0  501    0  0.00000000000E+00  0.00000000000E+00  0.55683017732E+03  0.55683018648E+03  0.10100000000E+00 0.  1.
         -3   -1    0    0    0  501 -0.00000000000E+00 -0.00000000000E+00 -0.21180151906E+04  0.21180151931E+04  0.10100000000E+00 0. -1.
     200001    2    1    2    0    0 -0.22582287915E+03  0.58467067155E+03 -0.14519251853E+04  0.17289207118E+04  0.69874481559E+03 0.  0.
    5000001    2    3    3    0    0 -0.34721205437E+02  0.16343343087E+03 -0.33599584195E+03  0.42153440248E+03  0.19204686468E+03 0.  0.
        -13    1    4    4    0    0 -0.41971196087E+02 -0.11531490843E+02 -0.17972642485E+03  0.18492202555E+03  0.10566000000E+00 0. -1.
     200003    1    4    4    0    0  0.72499906501E+01  0.17496492171E+03 -0.15626941710E+03  0.23661237693E+03  0.30000000000E+02 0. -1.
     200000    1    3    3    0    0 -0.19110167371E+03  0.42123724069E+03 -0.11159293433E+04  0.13073863094E+04  0.50000000000E+03 0. -1.
    -200001    1    1    2    0    0  0.22582287915E+03 -0.58467067155E+03 -0.10925982806E+03  0.94592466769E+03  0.70000000000E+03 0.  1.
<mgrwt>
<rscale>  0 0.21719805E+04</rscale>
<asrwt>0</asrwt>
<pdfrwt beam="1">  1        3 0.79547170E-01 0.21719805E+04</pdfrwt>
<pdfrwt beam="2">  1       -3 0.30257360E+00 0.21719805E+04</pdfrwt>
<totfact> 0.13060871E-01</totfact>
</mgrwt>
</event>
<event>
 8    1  0.1714417E-029  0.2396229E+04  0.7818608E-02  0.8440917E-01
         -3   -1    0    0    0  501 -0.00000000000E+00  0.00000000000E+00  0.92994452530E+03  0.92994453078E+03  0.10100000000E+00 0. -1.
          3   -1    0    0  501    0  0.00000000000E+00 -0.00000000000E+00 -0.15436168965E+04  0.15436168998E+04  0.10100000000E+00 0.  1.
     200001    2    1    2    0    0  0.28213273135E+03 -0.12044860441E+03  0.64584518159E+03  0.10003027261E+04  0.69955900462E+03 0.  0.
    5000001    2    3    3    0    0  0.37841025822E+01 -0.16683449537E+03  0.12541140201E+03  0.22539568078E+03  0.85012498398E+02 0.  0.
        -13    1    4    4    0    0 -0.33845600520E+02 -0.92583858188E+02  0.71593714679E+02  0.12183171433E+03  0.10566000000E+00 0. -1.
     200003    1    4    4    0    0  0.37629703102E+02 -0.74250637181E+02  0.53817687331E+02  0.10356396645E+03  0.30000000000E+02 0. -1.
     200000    1    3    3    0    0  0.27834862877E+03  0.46385890961E+02  0.52043377958E+03  0.77490704536E+03  0.50000000000E+03 0. -1.
    -200001    1    1    2    0    0 -0.28213273135E+03  0.12044860441E+03 -0.12595175527E+04  0.14732587044E+04  0.70000000000E+03 0.  1.
<mgrwt>
<rscale>  0 0.23962288E+04</rscale>
<asrwt>0</asrwt>
<pdfrwt beam="1">  1        3 0.22051670E+00 0.23962288E+04</pdfrwt>
<pdfrwt beam="2">  1       -3 0.13284922E+00 0.23962288E+04</pdfrwt>
<totfact> 0.11452567E-01</totfact>
</mgrwt>
</event>
<event>
 8    1  0.1714417E-029  0.1999315E+04  0.7818608E-02  0.8606941E-01
         -3   -1    0    0    0  501 -0.00000000000E+00  0.00000000000E+00  0.57174934385E+03  0.57174935277E+03  0.10100000000E+00 0. -1.
          3   -1    0    0  501    0  0.00000000000E+00 -0.00000000000E+00 -0.17478199991E+04  0.17478200020E+04  0.10100000000E+00 0.  1.
     200001    2    1    2    0    0  0.66121032790E+03  0.57790293273E+02 -0.89368367087E+03  0.13144418879E+04  0.69896220020E+03 0.  0.
    5000001    2    3    3    0    0  0.25310559332E+03  0.13612636513E+02 -0.41042973449E+03  0.50695473209E+03  0.15589351554E+03 0.  0.
        -13    1    4    4    0    0  0.23651039641E+03  0.20459815952E+02 -0.40783765304E+03  0.47189758855E+03  0.10566000000E+00 0. -1.
     200003    1    4    4    0    0  0.16595196914E+02 -0.68471794389E+01 -0.25920814551E+01  0.35057143540E+02  0.30000000000E+02 0. -1.
     200000    1    3    3    0    0  0.40810473458E+03  0.44177656760E+02 -0.48325393637E+03  0.80748715579E+03  0.50000000000E+03 0.  1.
    -200001    1    1    2    0    0 -0.66121032790E+03 -0.57790293273E+02 -0.28238698434E+03  0.10051274669E+04  0.70000000000E+03 0. -1.
<mgrwt>
<rscale>  0 0.19993148E+04</rscale>
<asrwt>0</asrwt>
<pdfrwt beam="1">  1        3 0.24968857E+00 0.19993148E+04</pdfrwt>
<pdfrwt beam="2">  1       -3 0.81678479E-01 0.19993148E+04</pdfrwt>
<totfact> 0.25193785E-01</totfact>
</mgrwt>
</event>
<event>
 8    1  0.1714417E-029  0.1595954E+04  0.7818608E-02  0.8823037E-01
         -3   -1    0    0    0  501 -0.00000000000E+00  0.00000000000E+00  0.26661975370E+03  0.26661977283E+03  0.10100000000E+00 0. -1.
          3   -1    0    0  501    0  0.00000000000E+00 -0.00000000000E+00 -0.23882974903E+04  0.23882974925E+04  0.10100000000E+00 0.  1.
     200001    2    1    2    0    0 -0.14693716807E+03 -0.23014706600E+03 -0.15111802856E+04  0.16867926137E+04  0.69788628205E+03 0.  0.
    5000001    2    3    3    0    0 -0.97708963462E+02 -0.97721711345E+02 -0.31363035907E+03  0.38138627189E+03  0.16731680086E+03 0.  0.
        -13    1    4    4    0    0 -0.58015757145E+02 -0.80291057227E+02 -0.31338278218E+03  0.32866588091E+03  0.10566000000E+00 0. -1.
     200003    1    4    4    0    0 -0.39693206317E+02 -0.17430654118E+02 -0.24757689375E+00  0.52720390980E+02  0.30000000000E+02 0.  1.
     200000    1    3    3    0    0 -0.49228204605E+02 -0.13242535466E+03 -0.11975499265E+04  0.13054063418E+04  0.50000000000E+03 0.  1.
    -200001    1    1    2    0    0  0.14693716807E+03  0.23014706600E+03 -0.61049745106E+03  0.96812465163E+03  0.70000000000E+03 0. -1.
<mgrwt>
<rscale>  0 0.15959540E+04</rscale>
<asrwt>0</asrwt>
<pdfrwt beam="1">  1        3 0.34118535E+00 0.15959540E+04</pdfrwt>
<pdfrwt beam="2">  1       -3 0.38088539E-01 0.15959540E+04</pdfrwt>
<totfact> 0.40027273E-01</totfact>
</mgrwt>
</event>
<event>
 8    1  0.1714417E-029  0.1591706E+04  0.7818608E-02  0.8825660E-01
         -3   -1    0    0    0  501 -0.00000000000E+00  0.00000000000E+00  0.67416733413E+03  0.67416734170E+03  0.10100000000E+00 0. -1.
          3   -1    0    0  501    0  0.00000000000E+00 -0.00000000000E+00 -0.93950220542E+03  0.93950221085E+03  0.10100000000E+00 0.  1.
     200001    2    1    2    0    0  0.28233896203E+01  0.12310330229E+03  0.23124531590E+03  0.74663190811E+03  0.69915836226E+03 0.  0.
    5000001    2    3    3    0    0 -0.50253653446E+01 -0.65871280689E+02  0.60079681145E+02  0.18532034535E+03  0.16238775322E+03 0.  0.
        -13    1    4    4    0    0 -0.57027341568E+02 -0.63043914675E+02  0.85038569916E+02  0.12024234862E+03  0.10566000000E+00 0. -1.
     200003    1    4    4    0    0  0.52001976224E+02 -0.28273660139E+01 -0.24958888771E+02  0.65077996731E+02  0.30000000000E+02 0. -1.
     200000    1    3    3    0    0  0.78487549649E+01  0.18897458297E+03  0.17116563476E+03  0.56131156276E+03  0.50000000000E+03 0. -1.
    -200001    1    1    2    0    0 -0.28233896203E+01 -0.12310330229E+03 -0.49658018719E+03  0.86703764444E+03  0.70000000000E+03 0.  1.
<mgrwt>
<rscale>  0 0.15917056E+04</rscale>
<asrwt>0</asrwt>
<pdfrwt beam="1">  1        3 0.13421460E+00 0.15917056E+04</pdfrwt>
<pdfrwt beam="2">  1       -3 0.96309621E-01 0.15917056E+04</pdfrwt>
<totfact> 0.10358116E+00</totfact>
</mgrwt>
</event>
<event>
 8    1  0.1714417E-029  0.1593054E+04  0.7818608E-02  0.8824827E-01
          3   -1    0    0  501    0  0.00000000000E+00  0.00000000000E+00  0.12652783951E+04  0.12652783991E+04  0.10100000000E+00 0.  1.
         -3   -1    0    0    0  501 -0.00000000000E+00 -0.00000000000E+00 -0.50143537160E+03  0.50143538177E+03  0.10100000000E+00 0. -1.
     200001    2    1    2    0    0  0.34701137182E+03  0.14907890422E+03  0.42706544028E+03  0.90296581277E+03  0.70022921740E+03 0.  0.
    5000001    2    3    3    0    0 -0.11693355342E+02 -0.31419592903E+02  0.44191151552E+02  0.15607792981E+03  0.14588878271E+03 0.  0.
        -13    1    4    4    0    0 -0.57653361709E+02 -0.26028670015E+02  0.70717845559E+02  0.94881118372E+02  0.10566000000E+00 0. -1.
     200003    1    4    4    0    0  0.45960006367E+02 -0.53909228879E+01 -0.26526694007E+02  0.61196811434E+02  0.30000000000E+02 0. -1.
     200000    1    3    3    0    0  0.35870472717E+03  0.18049849712E+03  0.38287428872E+03  0.74688788296E+03  0.50000000000E+03 0.  1.
    -200001    1    1    2    0    0 -0.34701137182E+03 -0.14907890422E+03  0.33677758320E+03  0.86374796810E+03  0.70000000000E+03 0. -1.
<mgrwt>
<rscale>  0 0.15930541E+04</rscale>
<asrwt>0</asrwt>
<pdfrwt beam="1">  1        3 0.18075406E+00 0.15930541E+04</pdfrwt>
<pdfrwt beam="2">  1       -3 0.71633625E-01 0.15930541E+04</pdfrwt>
<totfact> 0.92050660E-01</totfact>
</mgrwt>
</event>
<event>
 8    1  0.1714417E-029  0.1435096E+04  0.7818608E-02  0.8928799E-01
          3   -1    0    0  501    0  0.00000000000E+00  0.00000000000E+00  0.11082809156E+04  0.11082809202E+04  0.10100000000E+00 0.  1.
         -3   -1    0    0    0  501 -0.00000000000E+00 -0.00000000000E+00 -0.46457097890E+03  0.46457098988E+03  0.10100000000E+00 0. -1.
     200001    2    1    2    0    0  0.10452960359E+03 -0.15452938400E+02  0.17912153592E+03  0.72608888924E+03  0.69566897237E+03 0.  0.
    5000001    2    3    3    0    0  0.93603265070E+01  0.49402768222E+02  0.91213548423E+02  0.20552067253E+03  0.17717388690E+03 0.  0.
        -13    1    4    4    0    0 -0.17009459884E+02  0.10128814182E+03  0.95036422370E+02  0.13993049039E+03  0.10566000000E+00 0. -1.
     200003    1    4    4    0    0  0.26369786391E+02 -0.51885373601E+02 -0.38228739474E+01  0.65590182141E+02  0.30000000000E+02 0. -1.
     200000    1    3    3    0    0  0.95169277083E+02 -0.64855706621E+02  0.87907987494E+02  0.52056821671E+03  0.50000000000E+03 0. -1.
    -200001    1    1    2    0    0 -0.10452960359E+03  0.15452938400E+02  0.46458840077E+03  0.84676302084E+03  0.70000000000E+03 0.  1.
<mgrwt>
<rscale>  0 0.14350960E+04</rscale>
<asrwt>0</asrwt>
<pdfrwt beam="1">  1        3 0.15832585E+00 0.14350960E+04</pdfrwt>
<pdfrwt beam="2">  1       -3 0.66367284E-01 0.14350960E+04</pdfrwt>
<totfact> 0.15729173E+00</totfact>
</mgrwt>
</event>
<event>
 8    1  0.1714417E-029  0.1458666E+04  0.7818608E-02  0.8912414E-01
         -3   -1    0    0    0  501 -0.00000000000E+00  0.00000000000E+00  0.45663791156E+03  0.45663792273E+03  0.10100000000E+00 0. -1.
          3   -1    0    0  501    0  0.00000000000E+00 -0.00000000000E+00 -0.11648764152E+04  0.11648764196E+04  0.10100000000E+00 0.  1.
     200001    2    1    2    0    0 -0.47735204102E+02  0.13433991434E+03 -0.51822773048E+03  0.88230533521E+03  0.69969769301E+03 0.  0.
    5000001    2    3    3    0    0 -0.21442281562E+02  0.63703691727E+02 -0.13875856669E+03  0.25010470251E+03  0.19692762785E+03 0.  0.
        -13    1    4    4    0    0 -0.67823052152E+02 -0.39254469225E+01  0.18340550141E+02  0.70368760684E+02  0.10566000000E+00 0. -1.
     200003    1    4    4    0    0  0.46380770589E+02  0.67629138650E+02 -0.15709911683E+03  0.17973594182E+03  0.30000000000E+02 0. -1.
     200000    1    3    3    0    0 -0.26292922540E+02  0.70636222615E+02 -0.37946916379E+03  0.63220063270E+03  0.50000000000E+03 0.  1.
    -200001    1    1    2    0    0  0.47735204102E+02 -0.13433991434E+03 -0.19001077319E+03  0.73920900713E+03  0.70000000000E+03 0. -1.
<mgrwt>
<rscale>  0 0.14586662E+04</rscale>
<asrwt>0</asrwt>
<pdfrwt beam="1">  1        3 0.16641092E+00 0.14586662E+04</pdfrwt>
<pdfrwt beam="2">  1       -3 0.65233989E-01 0.14586662E+04</pdfrwt>
<totfact> 0.14269044E+00</totfact>
</mgrwt>
</event>
<event>
 8    1  0.1714417E-029  0.1496144E+04  0.7818608E-02  0.8887021E-01
          3   -1    0    0  501    0  0.00000000000E+00  0.00000000000E+00  0.11426082905E+04  0.11426082949E+04  0.10100000000E+00 0. -1.
         -3   -1    0    0    0  501 -0.00000000000E+00 -0.00000000000E+00 -0.48976706079E+03  0.48976707120E+03  0.10100000000E+00 0.  1.
     200001    2    1    2    0    0 -0.91397007185E+02  0.23905114681E+03  0.39591852449E+03  0.84401749045E+03  0.70008226834E+03 0.  0.
    5000001    2    3    3    0    0  0.41934662777E+02 -0.42189372395E+01 -0.37283989255E+02  0.12664583927E+03  0.11345817456E+03 0.  0.
        -13    1    4    4    0    0  0.51910277411E+02 -0.15255412913E+02 -0.64001726542E+02  0.83807139841E+02  0.10566000000E+00 0. -1.
     200003    1    4    4    0    0 -0.99756146341E+01  0.11036475674E+02  0.26717737287E+02  0.42838699424E+02  0.30000000000E+02 0. -1.
     200000    1    3    3    0    0 -0.13333166996E+03  0.24327008405E+03  0.43320251375E+03  0.71737165119E+03  0.50000000000E+03 0. -1.
    -200001    1    1    2    0    0  0.91397007185E+02 -0.23905114681E+03  0.25692270519E+03  0.78835787569E+03  0.70000000000E+03 0.  1.
<mgrwt>
<rscale>  0 0.14961443E+04</rscale>
<asrwt>0</asrwt>
<pdfrwt beam="1">  1        3 0.16322976E+00 0.14961443E+04</pdfrwt>
<pdfrwt beam="2">  1       -3 0.69966724E-01 0.14961443E+04</pdfrwt>
<totfact> 0.12881508E+00</totfact>
</mgrwt>
</event>
<event>
 8    1  0.1714417E-029  0.1587213E+04  0.7818608E-02  0.8828442E-01
          3   -1    0    0  501    0  0.00000000000E+00  0.00000000000E+00  0.27489647101E+03  0.27489648957E+03  0.10100000000E+00 0.  1.
         -3   -1    0    0    0  501 -0.00000000000E+00 -0.00000000000E+00 -0.22910864002E+04  0.22910864024E+04  0.10100000000E+00 0. -1.
     200001    2    1    2    0    0 -0.17506194721E+03  0.25682573257E+03 -0.67156877596E+03  0.10185294394E+04  0.69985102399E+03 0.  0.
    5000001    2    3    3    0    0 -0.14987899692E+03  0.13330538817E+03 -0.17531588223E+03  0.30287701607E+03  0.14409992390E+03 0.  0.
        -13    1    4    4    0    0 -0.12582655357E+03  0.13301806611E+03 -0.79466792132E+02  0.19960237902E+03  0.10566000000E+00 0. -1.
     200003    1    4    4    0    0 -0.24052443346E+02  0.28732205972E+00 -0.95849090097E+02  0.10327463705E+03  0.30000000000E+02 0. -1.
     200000    1    3    3    0    0 -0.25182950291E+02  0.12352034439E+03 -0.49625289373E+03  0.71565242332E+03  0.50000000000E+03 0.  1.
    -200001    1    1    2    0    0  0.17506194721E+03 -0.25682573257E+03 -0.13446211532E+04  0.15474534526E+04  0.70000000000E+03 0. -1.
<mgrwt>
<rscale>  0 0.15872134E+04</rscale>
<asrwt>0</asrwt>
<pdfrwt beam="1">  1        3 0.39270927E-01 0.15872134E+04</pdfrwt>
<pdfrwt beam="2">  1       -3 0.32729805E+00 0.15872134E+04</pdfrwt>
<totfact> 0.43794025E-01</totfact>
</mgrwt>
</event>
<event>
 8    1  0.1714417E-029  0.1493095E+04  0.7818608E-02  0.8889058E-01
         -3   -1    0    0    0  501 -0.00000000000E+00  0.00000000000E+00  0.29502415933E+04  0.29502415951E+04  0.10100000000E+00 0. -1.
          3   -1    0    0  501    0  0.00000000000E+00 -0.00000000000E+00 -0.18891096844E+03  0.18891099544E+03  0.10100000000E+00 0.  1.
     200001    2    1    2    0    0  0.29463822442E+02  0.91384702210E+02  0.87232596884E+03  0.11223338403E+04  0.69961516028E+03 0.  0.
    5000001    2    3    3    0    0  0.45827478501E+02 -0.28454762422E+02  0.12668201243E+03  0.21645626783E+03  0.16701841911E+03 0.  0.
        -13    1    4    4    0    0 -0.54773424484E+02 -0.42145744560E+02  0.41865963039E+02  0.80803229140E+02  0.10566000000E+00 0. -1.
     200003    1    4    4    0    0  0.10060090298E+03  0.13690982138E+02  0.84816049387E+02  0.13565303869E+03  0.30000000000E+02 0. -1.
     200000    1    3    3    0    0 -0.16363656059E+02  0.11983946463E+03  0.74564395642E+03  0.90587757245E+03  0.50000000000E+03 0.  1.
    -200001    1    1    2    0    0 -0.29463822442E+02 -0.91384702210E+02  0.18890046560E+04  0.20168187502E+04  0.70000000000E+03 0. -1.
<mgrwt>
<rscale>  0 0.14930948E+04</rscale>
<asrwt>0</asrwt>
<pdfrwt beam="1">  1        3 0.26987284E-01 0.14930948E+04</pdfrwt>
<pdfrwt beam="2">  1       -3 0.42146307E+00 0.14930948E+04</pdfrwt>
<totfact> 0.27480519E-01</totfact>
</mgrwt>
</event>
<event>
 8    1  0.1714417E-029  0.1507017E+04  0.7818608E-02  0.8879800E-01
         -3   -1    0    0    0  501 -0.00000000000E+00  0.00000000000E+00  0.24603603275E+04  0.24603603296E+04  0.10100000000E+00 0.  1.
          3   -1    0    0  501    0  0.00000000000E+00 -0.00000000000E+00 -0.23076919368E+03  0.23076921578E+03  0.10100000000E+00 0. -1.
     200001    2    1    2    0    0 -0.10104154507E+03  0.19513249890E+03  0.14224185314E+04  0.16003437295E+04  0.69967098566E+03 0.  0.
    5000001    2    3    3    0    0 -0.29033398413E+02  0.48709080872E+02  0.29511104247E+03  0.35637943536E+03  0.19157312384E+03 0.  0.
        -13    1    4    4    0    0 -0.63611980819E+02 -0.44393971227E+02  0.55827577575E+02  0.95572163139E+02  0.10566000000E+00 0. -1.
     200003    1    4    4    0    0  0.34578582406E+02  0.93103052099E+02  0.23928346489E+03  0.26080727222E+03  0.30000000000E+02 0. -1.
     200000    1    3    3    0    0 -0.72008146654E+02  0.14642341803E+03  0.11273074890E+04  0.12439642942E+04  0.50000000000E+03 0.  1.
    -200001    1    1    2    0    0  0.10104154507E+03 -0.19513249890E+03  0.80717260243E+03  0.10907858159E+04  0.70000000000E+03 0. -1.
<mgrwt>
<rscale>  0 0.15070175E+04</rscale>
<asrwt>0</asrwt>
<pdfrwt beam="1">  1        3 0.32967033E-01 0.15070175E+04</pdfrwt>
<pdfrwt beam="2">  1       -3 0.35148001E+00 0.15070175E+04</pdfrwt>
<totfact> 0.45569528E-01</totfact>
</mgrwt>
</event>
<event>
 8    1  0.1714417E-029  0.1731324E+04  0.7818608E-02  0.8743698E-01
         -3   -1    0    0    0  501 -0.00000000000E+00  0.00000000000E+00  0.31970746919E+03  0.31970748514E+03  0.10100000000E+00 0. -1.
          3   -1    0    0  501    0  0.00000000000E+00 -0.00000000000E+00 -0.23439271299E+04  0.23439271321E+04  0.10100000000E+00 0.  1.
     200001    2    1    2    0    0 -0.16358643201E+03 -0.28969545642E+03 -0.41897310410E+03  0.88108013398E+03  0.70005697078E+03 0.  0.
    5000001    2    3    3    0    0 -0.39283275261E+02 -0.12279562877E+03 -0.47966289756E+02  0.22461011674E+03  0.17755843385E+03 0.  0.
        -13    1    4    4    0    0 -0.10612651291E+03 -0.56370904559E+02 -0.32746318972E+02  0.12455058488E+03  0.10566000000E+00 0. -1.
     200003    1    4    4    0    0  0.66843237650E+02 -0.66424724209E+02 -0.15219970784E+02  0.10005953186E+03  0.30000000000E+02 0. -1.
     200000    1    3    3    0    0 -0.12430315674E+03 -0.16689982765E+03 -0.37100681435E+03  0.65647001724E+03  0.50000000000E+03 0. -1.
    -200001    1    1    2    0    0  0.16358643201E+03  0.28969545642E+03 -0.16052465566E+04  0.17825544833E+04  0.70000000000E+03 0.  1.
<mgrwt>
<rscale>  0 0.17313244E+04</rscale>
<asrwt>0</asrwt>
<pdfrwt beam="1">  1        3 0.33484673E+00 0.17313244E+04</pdfrwt>
<pdfrwt beam="2">  1       -3 0.45672498E-01 0.17313244E+04</pdfrwt>
<totfact> 0.29817755E-01</totfact>
</mgrwt>
</event>
<event>
 8    1  0.1714417E-029  0.3501451E+04  0.7818608E-02  0.8113446E-01
         -3   -1    0    0    0  501 -0.00000000000E+00  0.00000000000E+00  0.20667568284E+04  0.20667568309E+04  0.10100000000E+00 0. -1.
          3   -1    0    0  501    0  0.00000000000E+00 -0.00000000000E+00 -0.14830189124E+04  0.14830189158E+04  0.10100000000E+00 0.  1.
     200001    2    1    2    0    0  0.12437168367E+04  0.58998419924E+03  0.11278964386E+04  0.19123932554E+04  0.70013188899E+03 0.  0.
    5000001    2    3    3    0    0  0.30779069253E+03  0.15997708733E+03  0.23663688068E+03  0.46145994780E+03  0.19136481193E+03 0.  0.
        -13    1    4    4    0    0  0.94492473312E+02  0.39029418776E+01  0.15789491304E+03  0.18405128415E+03  0.10566000000E+00 0. -1.
     200003    1    4    4    0    0  0.21329821922E+03  0.15607414546E+03  0.78741967645E+02  0.27740866366E+03  0.30000000000E+02 0. -1.
     200000    1    3    3    0    0  0.93592614415E+03  0.43000711191E+03  0.89125955791E+03  0.14509333076E+04  0.50000000000E+03 0. -1.
    -200001    1    1    2    0    0 -0.12437168367E+04 -0.58998419924E+03 -0.54415852258E+03  0.16373824913E+04  0.70000000000E+03 0.  1.
<mgrwt>
<rscale>  0 0.35014508E+04</rscale>
<asrwt>0</asrwt>
<pdfrwt beam="1">  1        3 0.21185985E+00 0.35014508E+04</pdfrwt>
<pdfrwt beam="2">  1       -3 0.29525097E+00 0.35014508E+04</pdfrwt>
<totfact> 0.10794983E-02</totfact>
</mgrwt>
</event>
<event>
 8    1  0.1714417E-029  0.1677948E+04  0.7818608E-02  0.8774042E-01
         -3   -1    0    0    0  501 -0.00000000000E+00  0.00000000000E+00  0.20636920549E+03  0.20636923020E+03  0.10100000000E+00 0. -1.
          3   -1    0    0  501    0  0.00000000000E+00 -0.00000000000E+00 -0.34107690921E+04  0.34107690936E+04  0.10100000000E+00 0.  1.
     200001    2    1    2    0    0  0.26039367219E+03 -0.30322488283E+03 -0.21053447666E+04  0.22541737788E+04  0.69933728965E+03 0.  0.
    5000001    2    3    3    0    0  0.12978744699E+03 -0.11370970032E+03 -0.68401381782E+03  0.72998361467E+03  0.18768723286E+03 0.  0.
        -13    1    4    4    0    0  0.94933676633E+02 -0.77997027056E+02 -0.65212360160E+03  0.66359712335E+03  0.10566000000E+00 0. -1.
     200003    1    4    4    0    0  0.34853770354E+02 -0.35712673266E+02 -0.31890216221E+02  0.66386491324E+02  0.30000000000E+02 0. -1.
     200000    1    3    3    0    0  0.13060622520E+03 -0.18951518251E+03 -0.14213309488E+04  0.15241901642E+04  0.50000000000E+03 0.  1.
    -200001    1    1    2    0    0 -0.26039367219E+03  0.30322488283E+03 -0.10990551200E+04  0.13629645449E+04  0.70000000000E+03 0. -1.
<mgrwt>
<rscale>  0 0.16779485E+04</rscale>
<asrwt>0</asrwt>
<pdfrwt beam="1">  1        3 0.48725269E+00 0.16779485E+04</pdfrwt>
<pdfrwt beam="2">  1       -3 0.29481319E-01 0.16779485E+04</pdfrwt>
<totfact> 0.11241512E-01</totfact>
</mgrwt>
</event>
<event>
 8    1  0.1714417E-029  0.1872314E+04  0.7818608E-02  0.8668762E-01
         -3   -1    0    0    0  501 -0.00000000000E+00  0.00000000000E+00  0.12457392784E+04  0.12457392825E+04  0.10100000000E+00 0. -1.
          3   -1    0    0  501    0  0.00000000000E+00 -0.00000000000E+00 -0.70350970392E+03  0.70350971117E+03  0.10100000000E+00 0.  1.
     200001    2    1    2    0    0 -0.27148078006E+03 -0.55211355207E+03  0.35742127052E+03  0.99915147363E+03  0.70144316542E+03 0.  0.
    5000001    2    3    3    0    0 -0.15435731004E+03 -0.25637884350E+03  0.19561011332E+03  0.38485531079E+03  0.14245702248E+03 0.  0.
        -13    1    4    4    0    0 -0.14265466340E+03 -0.26236400319E+03  0.17813863798E+03  0.34773353113E+03  0.10566000000E+00 0. -1.
     200003    1    4    4    0    0 -0.11702646639E+02  0.59851596965E+01  0.17471475337E+02  0.37121779664E+02  0.30000000000E+02 0. -1.
     200000    1    3    3    0    0 -0.11712347002E+03 -0.29573470857E+03  0.16181115720E+03  0.61429616284E+03  0.50000000000E+03 0. -1.
    -200001    1    1    2    0    0  0.27148078006E+03  0.55211355207E+03  0.18480830393E+03  0.95009752001E+03  0.70000000000E+03 0. -1.
<mgrwt>
<rscale>  0 0.18723137E+04</rscale>
<asrwt>0</asrwt>
<pdfrwt beam="1">  1        3 0.10050139E+00 0.18723137E+04</pdfrwt>
<pdfrwt beam="2">  1       -3 0.17796276E+00 0.18723137E+04</pdfrwt>
<totfact> 0.43605244E-01</totfact>
</mgrwt>
</event>
<event>
 8    1  0.1714417E-029  0.2235890E+04  0.7818608E-02  0.8503637E-01
         -3   -1    0    0    0  501 -0.00000000000E+00  0.00000000000E+00  0.11311549968E+04  0.11311550014E+04  0.10100000000E+00 0. -1.
          3   -1    0    0  501    0  0.00000000000E+00 -0.00000000000E+00 -0.11048894459E+04  0.11048894506E+04  0.10100000000E+00 0.  1.
     200001    2    1    2    0    0 -0.58295945032E+03  0.65023189922E+02 -0.63143889637E+03  0.11105912650E+04  0.70044852925E+03 0.  0.
    5000001    2    3    3    0    0 -0.90887975547E+02 -0.98050895898E+01 -0.17737521541E+03  0.27159934963E+03  0.18424840786E+03 0.  0.
        -13    1    4    4    0    0 -0.23525668860E+02  0.77703115947E+02 -0.11644824086E+03  0.14195575115E+03  0.10566000000E+00 0. -1.
     200003    1    4    4    0    0 -0.67362306687E+02 -0.87508205537E+02 -0.60926974551E+02  0.12964359848E+03  0.30000000000E+02 0. -1.
     200000    1    3    3    0    0 -0.49207147478E+03  0.74828279512E+02 -0.45406368096E+03  0.83899191538E+03  0.50000000000E+03 0.  1.
    -200001    1    1    2    0    0  0.58295945032E+03 -0.65023189922E+02  0.65770444727E+03  0.11254531869E+04  0.70000000000E+03 0. -1.
<mgrwt>
<rscale>  0 0.22358902E+04</rscale>
<asrwt>0</asrwt>
<pdfrwt beam="1">  1        3 0.15784135E+00 0.22358902E+04</pdfrwt>
<pdfrwt beam="2">  1       -3 0.16159357E+00 0.22358902E+04</pdfrwt>
<totfact> 0.18011357E-01</totfact>
</mgrwt>
</event>
<event>
 8    1  0.1714417E-029  0.1673916E+04  0.7818608E-02  0.8776382E-01
         -3   -1    0    0    0  501 -0.00000000000E+00  0.00000000000E+00  0.44371497077E+03  0.44371498227E+03  0.10100000000E+00 0.  1.
          3   -1    0    0  501    0  0.00000000000E+00 -0.00000000000E+00 -0.15787132907E+04  0.15787132939E+04  0.10100000000E+00 0. -1.
     200001    2    1    2    0    0 -0.20095796708E+03 -0.11292111403E+03 -0.10469167112E+04  0.12802061717E+04  0.69982709253E+03 0.  0.
    5000001    2    3    3    0    0  0.28980610725E+02 -0.40303796330E+02 -0.10074002159E+03  0.18321239220E+03  0.14475481653E+03 0.  0.
        -13    1    4    4    0    0  0.75432908115E+02 -0.56311322022E+02 -0.50603770400E+02  0.10687301510E+03  0.10566000000E+00 0. -1.
     200003    1    4    4    0    0 -0.46452297390E+02  0.16007525691E+02 -0.50136251193E+02  0.76339377095E+02  0.30000000000E+02 0. -1.
     200000    1    3    3    0    0 -0.22993857780E+03 -0.72617317704E+02 -0.94617668961E+03  0.10969937795E+04  0.50000000000E+03 0. -1.
    -200001    1    1    2    0    0  0.20095796708E+03  0.11292111403E+03 -0.88081608702E+02  0.74222210444E+03  0.70000000000E+03 0.  1.
<mgrwt>
<rscale>  0 0.16739161E+04</rscale>
<asrwt>0</asrwt>
<pdfrwt beam="1">  1        3 0.22553047E+00 0.16739161E+04</pdfrwt>
<pdfrwt beam="2">  1       -3 0.63387855E-01 0.16739161E+04</pdfrwt>
<totfact> 0.62366976E-01</totfact>
</mgrwt>
</event>
<event>
 8    1  0.1714417E-029  0.1797578E+04  0.7818608E-02  0.8707589E-01
         -3   -1    0    0    0  501 -0.00000000000E+00  0.00000000000E+00  0.31715800548E+04  0.31715800565E+04  0.10100000000E+00 0. -1.
          3   -1    0    0  501    0  0.00000000000E+00 -0.00000000000E+00 -0.25470630382E+03  0.25470632384E+03  0.10100000000E+00 0.  1.
     200001    2    1    2    0    0  0.45107349434E+03 -0.33458189794E+03  0.13837849880E+04  0.16498366909E+04  0.70120458485E+03 0.  0.
    5000001    2    3    3    0    0  0.76941630189E+02 -0.77802757273E+02  0.34414627057E+03  0.41017591403E+03  0.19451051748E+03 0.  0.
        -13    1    4    4    0    0  0.13296830413E+03 -0.68430496520E+02  0.18067554074E+03  0.23453563683E+03  0.10566000000E+00 0. -1.
     200003    1    4    4    0    0 -0.56026673945E+02 -0.93722607536E+01  0.16347072983E+03  0.17564027720E+03  0.30000000000E+02 0. -1.
     200000    1    3    3    0    0  0.37413186415E+03 -0.25677914067E+03  0.10396387174E+04  0.12396607768E+04  0.50000000000E+03 0.  1.
    -200001    1    1    2    0    0 -0.45107349434E+03  0.33458189794E+03  0.15330887630E+04  0.17764496894E+04  0.70000000000E+03 0.  1.
<mgrwt>
<rscale>  0 0.17975778E+04</rscale>
<asrwt>0</asrwt>
<pdfrwt beam="1">  1        3 0.36386621E-01 0.17975778E+04</pdfrwt>
<pdfrwt beam="2">  1       -3 0.45308281E+00 0.17975778E+04</pdfrwt>
<totfact> 0.10142164E-01</totfact>
</mgrwt>
</event>
<event>
 8    1  0.1714417E-029  0.1518441E+04  0.7818608E-02  0.8872282E-01
         -3   -1    0    0    0  501 -0.00000000000E+00  0.00000000000E+00  0.12855722639E+04  0.12855722679E+04  0.10100000000E+00 0.  1.
          3   -1    0    0  501    0  0.00000000000E+00 -0.00000000000E+00 -0.44837280093E+03  0.44837281230E+03  0.10100000000E+00 0. -1.
     200001    2    1    2    0    0  0.19389990726E+03 -0.21847498744E+03  0.45851695203E+03  0.88616625391E+03  0.69980307237E+03 0.  0.
    5000001    2    3    3    0    0  0.68711528837E+02 -0.82323793315E+02  0.15818422217E+03  0.27427653641E+03  0.19674066469E+03 0.  0.
        -13    1    4    4    0    0 -0.34585991670E+02 -0.43446526528E+02 -0.22922471596E+02  0.60076970257E+02  0.10566000000E+00 0. -1.
     200003    1    4    4    0    0  0.10329752051E+03 -0.38877266787E+02  0.18110669376E+03  0.21419956616E+03  0.30000000000E+02 0. -1.
     200000    1    3    3    0    0  0.12518837842E+03 -0.13615119412E+03  0.30033272986E+03  0.61188971750E+03  0.50000000000E+03 0. -1.
    -200001    1    1    2    0    0 -0.19389990726E+03  0.21847498744E+03  0.37868251095E+03  0.84777882627E+03  0.70000000000E+03 0.  1.
<mgrwt>
<rscale>  0 0.15184408E+04</rscale>
<asrwt>0</asrwt>
<pdfrwt beam="1">  1        3 0.64053258E-01 0.15184408E+04</pdfrwt>
<pdfrwt beam="2">  1       -3 0.18365318E+00 0.15184408E+04</pdfrwt>
<totfact> 0.11221704E+00</totfact>
</mgrwt>
</event>
<event>
 8    1  0.1714417E-029  0.1530971E+04  0.7818608E-02  0.8864115E-01
          3   -1    0    0  501    0  0.00000000000E+00  0.00000000000E+00  0.23938162682E+03  0.23938164812E+03  0.10100000000E+00 0.  1.
         -3   -1    0    0    0  501 -0.00000000000E+00 -0.00000000000E+00 -0.24478416968E+04  0.24478416989E+04  0.10100000000E+00 0. -1.
     200001    2    1    2    0    0 -0.29702112908E+03  0.17368560836E+02 -0.12531687077E+04  0.14661153236E+04  0.70038497560E+03 0.  0.
    5000001    2    3    3    0    0 -0.11521767960E+03 -0.36545519146E+02 -0.53694338408E+03  0.57228204132E+03  0.15680512892E+03 0.  0.
        -13    1    4    4    0    0 -0.13150500241E+03 -0.23226947303E+02 -0.25390076147E+03  0.28687743825E+03  0.10566000000E+00 0. -1.
     200003    1    4    4    0    0  0.16287322813E+02 -0.13318571843E+02 -0.28304262261E+03  0.28540460307E+03  0.30000000000E+02 0. -1.
     200000    1    3    3    0    0 -0.18180344948E+03  0.53914079982E+02 -0.71622532362E+03  0.89383328225E+03  0.50000000000E+03 0. -1.
    -200001    1    1    2    0    0  0.29702112908E+03 -0.17368560836E+02 -0.95529136227E+03  0.12211080234E+04  0.70000000000E+03 0. -1.
<mgrwt>
<rscale>  0 0.15309714E+04</rscale>
<asrwt>0</asrwt>
<pdfrwt beam="1">  1        3 0.34197378E-01 0.15309714E+04</pdfrwt>
<pdfrwt beam="2">  1       -3 0.34969166E+00 0.15309714E+04</pdfrwt>
<totfact> 0.43344121E-01</totfact>
</mgrwt>
</event>
<event>
 8    1  0.1714417E-029  0.2419335E+04  0.7818608E-02  0.8432300E-01
         -3   -1    0    0    0  501 -0.00000000000E+00  0.00000000000E+00  0.12493173462E+04  0.12493173503E+04  0.10100000000E+00 0. -1.
          3   -1    0    0  501    0  0.00000000000E+00 -0.00000000000E+00 -0.11712755712E+04  0.11712755755E+04  0.10100000000E+00 0.  1.
     200001    2    1    2    0    0  0.72775896863E+03 -0.47779722519E+02 -0.62528299130E+03  0.11890971908E+04  0.70075480145E+03 0.  0.
    5000001    2    3    3    0    0  0.47610068056E+02 -0.21005979373E+02 -0.12563004792E+02  0.14566768094E+03  0.13547425745E+03 0.  0.
        -13    1    4    4    0    0  0.55389431427E+02 -0.37977978090E+02  0.43054494760E+02  0.79774786849E+02  0.10566000000E+00 0. -1.
     200003    1    4    4    0    0 -0.77793633712E+01  0.16971998717E+02 -0.55617499552E+02  0.65892894088E+02  0.30000000000E+02 0. -1.
     200000    1    3    3    0    0  0.68014890057E+03 -0.26773743146E+02 -0.61271998650E+03  0.10434295099E+04  0.50000000000E+03 0.  1.
    -200001    1    1    2    0    0 -0.72775896863E+03  0.47779722519E+02  0.70332476637E+03  0.12314957350E+04  0.70000000000E+03 0. -1.
<mgrwt>
<rscale>  0 0.24193345E+04</rscale>
<asrwt>0</asrwt>
<pdfrwt beam="1">  1        3 0.16732508E+00 0.24193345E+04</pdfrwt>
<pdfrwt beam="2">  1       -3 0.17847391E+00 0.24193345E+04</pdfrwt>
<totfact> 0.11585772E-01</totfact>
</mgrwt>
</event>
<event>
 8    1  0.1714417E-029  0.1635348E+04  0.7818608E-02  0.8799122E-01
          3   -1    0    0  501    0  0.00000000000E+00  0.00000000000E+00  0.68003065643E+03  0.68003066393E+03  0.10100000000E+00 0.  1.
         -3   -1    0    0    0  501 -0.00000000000E+00 -0.00000000000E+00 -0.98317766095E+03  0.98317766613E+03  0.10100000000E+00 0. -1.
     200001    2    1    2    0    0 -0.25169397895E+03  0.31376969668E+03 -0.27631010839E+03  0.85542030057E+03  0.70256340144E+03 0.  0.
    5000001    2    3    3    0    0 -0.31041354414E+02  0.11781894476E+03 -0.31608660800E+02  0.22537024197E+03  0.18694322427E+03 0.  0.
        -13    1    4    4    0    0  0.24941442239E+02  0.14067965709E+03 -0.56196850421E+02  0.15352829909E+03  0.10566000000E+00 0. -1.
     200003    1    4    4    0    0 -0.55982796652E+02 -0.22860712324E+02  0.24588189622E+02  0.71841942888E+02  0.30000000000E+02 0. -1.
     200000    1    3    3    0    0 -0.22065262454E+03  0.19595075192E+03 -0.24470144759E+03  0.63005005860E+03  0.50000000000E+03 0. -1.
    -200001    1    1    2    0    0  0.25169397895E+03 -0.31376969668E+03 -0.26836896129E+02  0.80778802949E+03  0.70000000000E+03 0.  1.
<mgrwt>
<rscale>  0 0.16353482E+04</rscale>
<asrwt>0</asrwt>
<pdfrwt beam="1">  1        3 0.97147238E-01 0.16353482E+04</pdfrwt>
<pdfrwt beam="2">  1       -3 0.14045395E+00 0.16353482E+04</pdfrwt>
<totfact> 0.90060778E-01</totfact>
</mgrwt>
</event>
<event>
 8    1  0.1714417E-029  0.2445543E+04  0.7818608E-02  0.8422647E-01
          3   -1    0    0  501    0  0.00000000000E+00  0.00000000000E+00  0.19060121544E+04  0.19060121571E+04  0.10100000000E+00 0.  1.
         -3   -1    0    0    0  501 -0.00000000000E+00 -0.00000000000E+00 -0.78444957326E+03  0.78444957976E+03  0.10100000000E+00 0. -1.
     200001    2    1    2    0    0 -0.43259198042E+03  0.88160992561E+03  0.33855845331E+03  0.12525927071E+04  0.69999627225E+03 0.  0.
    5000001    2    3    3    0    0 -0.20072365770E+03  0.31278934728E+03  0.24743274231E+03  0.45533260865E+03  0.89317747368E+02 0.  0.
        -13    1    4    4    0    0 -0.79424413521E+02  0.14628405536E+03  0.65563101545E+02  0.17890163153E+03  0.10566000000E+00 0. -1.
     200003    1    4    4    0    0 -0.12129924418E+03  0.16650529192E+03  0.18186964077E+03  0.27643097712E+03  0.30000000000E+02 0. -1.
     200000    1    3    3    0    0 -0.23186832271E+03  0.56882057833E+03  0.91125710992E+02  0.79726009847E+03  0.50000000000E+03 0.  1.
    -200001    1    1    2    0    0  0.43259198042E+03 -0.88160992561E+03  0.78300412787E+03  0.14378690297E+04  0.70000000000E+03 0. -1.
<mgrwt>
<rscale>  0 0.24455432E+04</rscale>
<asrwt>0</asrwt>
<pdfrwt beam="1">  1        3 0.27228745E+00 0.24455432E+04</pdfrwt>
<pdfrwt beam="2">  1       -3 0.11206423E+00 0.24455432E+04</pdfrwt>
<totfact> 0.86688273E-02</totfact>
</mgrwt>
</event>
<event>
 8    1  0.1714417E-029  0.1814241E+04  0.7818608E-02  0.8698763E-01
          3   -1    0    0  501    0  0.00000000000E+00  0.00000000000E+00  0.75711046319E+03  0.75711046993E+03  0.10100000000E+00 0.  1.
         -3   -1    0    0    0  501 -0.00000000000E+00 -0.00000000000E+00 -0.10868530531E+04  0.10868530578E+04  0.10100000000E+00 0. -1.
     200001    2    1    2    0    0 -0.48908314816E+03  0.30602687444E+03 -0.16390170850E+03  0.92181496503E+03  0.70001734694E+03 0.  0.
    5000001    2    3    3    0    0 -0.14733893225E+03  0.89288976580E+02 -0.18579238649E+02  0.26235833589E+03  0.19699092874E+03 0.  0.
        -13    1    4    4    0    0 -0.62842240346E+02 -0.48789073925E+02  0.38136362609E+02  0.88226493885E+02  0.10566000000E+00 0. -1.
     200003    1    4    4    0    0 -0.84496691903E+02  0.13807805050E+03 -0.56715601258E+02  0.17413184200E+03  0.30000000000E+02 0. -1.
     200000    1    3    3    0    0 -0.34174421591E+03  0.21673789786E+03 -0.14532246985E+03  0.65945662914E+03  0.50000000000E+03 0. -1.
    -200001    1    1    2    0    0  0.48908314816E+03 -0.30602687444E+03 -0.16584088140E+03  0.92214856267E+03  0.70000000000E+03 0. -1.
<mgrwt>
<rscale>  0 0.18142413E+04</rscale>
<asrwt>0</asrwt>
<pdfrwt beam="1">  1        3 0.10815864E+00 0.18142413E+04</pdfrwt>
<pdfrwt beam="2">  1       -3 0.15526472E+00 0.18142413E+04</pdfrwt>
<totfact> 0.53226084E-01</totfact>
</mgrwt>
</event>
<event>
 8    1  0.1714417E-029  0.1495880E+04  0.7818608E-02  0.8887197E-01
         -3   -1    0    0    0  501 -0.00000000000E+00  0.00000000000E+00  0.38769927584E+04  0.38769927597E+04  0.10100000000E+00 0.  1.
          3   -1    0    0  501    0  0.00000000000E+00 -0.00000000000E+00 -0.14429068867E+03  0.14429072402E+03  0.10100000000E+00 0. -1.
     200001    2    1    2    0    0 -0.23021874874E+03 -0.12372146754E+03  0.17776464592E+04  0.19283071069E+04  0.70002406441E+03 0.  0.
    5000001    2    3    3    0    0 -0.10246880359E+03 -0.12214269850E+03  0.48471342381E+03  0.53618700611E+03  0.16471401818E+03 0.  0.
        -13    1    4    4    0    0  0.32791648763E+02 -0.24744905109E+02  0.20598054124E+03  0.21003713264E+03  0.10566000000E+00 0. -1.
     200003    1    4    4    0    0 -0.13526045236E+03 -0.97397793392E+02  0.27873288258E+03  0.32614987346E+03  0.30000000000E+02 0. -1.
     200000    1    3    3    0    0 -0.12774994515E+03 -0.15787690418E+01  0.12929330354E+04  0.13921201008E+04  0.50000000000E+03 0. -1.
    -200001    1    1    2    0    0  0.23021874874E+03  0.12372146754E+03  0.19550556105E+04  0.20929763768E+04  0.70000000000E+03 0. -1.
<mgrwt>
<rscale>  0 0.14958797E+04</rscale>
<asrwt>0</asrwt>
<pdfrwt beam="1">  1        3 0.20612957E-01 0.14958797E+04</pdfrwt>
<pdfrwt beam="2">  1       -3 0.55385615E+00 0.14958797E+04</pdfrwt>
<totfact> 0.89315598E-02</totfact>
</mgrwt>
</event>
<event>
 8    1  0.1714417E-029  0.2204062E+04  0.7818608E-02  0.8516739E-01
          3   -1    0    0  501    0  0.00000000000E+00  0.00000000000E+00  0.22299215260E+04  0.22299215283E+04  0.10100000000E+00 0.  1.
         -3   -1    0    0    0  501 -0.00000000000E+00 -0.00000000000E+00 -0.54462538933E+03  0.54462539869E+03  0.10100000000E+00 0. -1.
     200001    2    1    2    0    0  0.12124863052E+03 -0.39270286295E+03 -0.95600913731E+02  0.81737777918E+03  0.70003580639E+03 0.  0.
    5000001    2    3    3    0    0 -0.66362274817E+02 -0.91471010978E+02  0.42517730627E+02  0.18887540022E+03  0.14524208076E+03 0.  0.
        -13    1    4    4    0    0  0.17058155290E+01  0.35148936283E+02 -0.24940493163E+01  0.35278732609E+02  0.10566000000E+00 0. -1.
     200003    1    4    4    0    0 -0.68068090346E+02 -0.12661994726E+03  0.45011779943E+02  0.15359666761E+03  0.30000000000E+02 0. -1.
     200000    1    3    3    0    0  0.18761090534E+03 -0.30123185197E+03 -0.13811864436E+03  0.62850237896E+03  0.50000000000E+03 0. -1.
    -200001    1    1    2    0    0 -0.12124863052E+03  0.39270286295E+03  0.17808970504E+04  0.19571691478E+04  0.70000000000E+03 0.  1.
<mgrwt>
<rscale>  0 0.22040616E+04</rscale>
<asrwt>0</asrwt>
<pdfrwt beam="1">  1        3 0.31856022E+00 0.22040616E+04</pdfrwt>
<pdfrwt beam="2">  1       -3 0.77803627E-01 0.22040616E+04</pdfrwt>
<totfact> 0.11381054E-01</totfact>
</mgrwt>
</event>
<event>
 8    1  0.1714417E-029  0.2558952E+04  0.7818608E-02  0.8382279E-01
         -3   -1    0    0    0  501 -0.00000000000E+00  0.00000000000E+00  0.54682347850E+03  0.54682348783E+03  0.10100000000E+00 0. -1.
          3   -1    0    0  501    0  0.00000000000E+00 -0.00000000000E+00 -0.29937616010E+04  0.29937616027E+04  0.10100000000E+00 0.  1.
     200001    2    1    2    0    0  0.38135091211E+03  0.58976505845E+03 -0.10439029234E+03  0.99681197194E+03  0.69963235483E+03 0.  0.
    5000001    2    3    3    0    0  0.14230734622E+03  0.15821319619E+03 -0.10005272865E+03  0.29438927108E+03  0.17712057526E+03 0.  0.
        -13    1    4    4    0    0  0.15432742872E+03  0.17375069686E+03 -0.58773185769E+02  0.23970932073E+03  0.10566000000E+00 0. -1.
     200003    1    4    4    0    0 -0.12020082503E+02 -0.15537500668E+02 -0.41279542878E+02  0.54679950353E+02  0.30000000000E+02 0. -1.
     200000    1    3    3    0    0  0.23904356589E+03  0.43155186226E+03 -0.43375636931E+01  0.70242270086E+03  0.50000000000E+03 0. -1.
    -200001    1    1    2    0    0 -0.38135091211E+03 -0.58976505845E+03 -0.23425478302E+04  0.25437731186E+04  0.70000000000E+03 0.  1.
<mgrwt>
<rscale>  0 0.25589522E+04</rscale>
<asrwt>0</asrwt>
<pdfrwt beam="1">  1        3 0.42768022E+00 0.25589522E+04</pdfrwt>
<pdfrwt beam="2">  1       -3 0.78117643E-01 0.25589522E+04</pdfrwt>
<totfact> 0.28459486E-02</totfact>
</mgrwt>
</event>
<event>
 8    1  0.1714417E-029  0.1630663E+04  0.7818608E-02  0.8801929E-01
          3   -1    0    0  501    0  0.00000000000E+00  0.00000000000E+00  0.11024332050E+04  0.11024332096E+04  0.10100000000E+00 0.  1.
         -3   -1    0    0    0  501 -0.00000000000E+00 -0.00000000000E+00 -0.60299851938E+03  0.60299852784E+03  0.10100000000E+00 0. -1.
     200001    2    1    2    0    0 -0.72406722664E+02 -0.29201113449E+02 -0.17895382994E+03  0.72752253076E+03  0.70083458890E+03 0.  0.
    5000001    2    3    3    0    0  0.56877648155E+02  0.23909637129E+02 -0.94457008121E+02  0.20152356378E+03  0.16698168393E+03 0.  0.
        -13    1    4    4    0    0  0.11067996074E+03  0.19515692607E+02 -0.40333579863E+02  0.11940571509E+03  0.10566000000E+00 0. -1.
     200003    1    4    4    0    0 -0.53802312582E+02  0.43939445223E+01 -0.54123428258E+02  0.82117848693E+02  0.30000000000E+02 0. -1.
     200000    1    3    3    0    0 -0.12928437082E+03 -0.53110750578E+02 -0.84496821815E+02  0.52599896698E+03  0.50000000000E+03 0. -1.
    -200001    1    1    2    0    0  0.72406722664E+02  0.29201113449E+02  0.67838851552E+03  0.97790920668E+03  0.70000000000E+03 0.  1.
<mgrwt>
<rscale>  0 0.16306632E+04</rscale>
<asrwt>0</asrwt>
<pdfrwt beam="1">  1        3 0.15749046E+00 0.16306632E+04</pdfrwt>
<pdfrwt beam="2">  1       -3 0.86142648E-01 0.16306632E+04</pdfrwt>
<totfact> 0.88409500E-01</totfact>
</mgrwt>
</event>
<event>
 8    1  0.1714417E-029  0.1691610E+04  0.7818608E-02  0.8766164E-01
          3   -1    0    0  501    0  0.00000000000E+00  0.00000000000E+00  0.19127058360E+04  0.19127058387E+04  0.10100000000E+00 0.  1.
         -3   -1    0    0    0  501 -0.00000000000E+00 -0.00000000000E+00 -0.37401773546E+03  0.37401774910E+03  0.10100000000E+00 0. -1.
     200001    2    1    2    0    0 -0.31566595593E+03 -0.29303500225E+03  0.10379112083E+04  0.13242829381E+04  0.70067903900E+03 0.  0.
    5000001    2    3    3    0    0 -0.12886847571E+03 -0.60189607382E+02  0.22287963004E+03  0.32259099444E+03  0.18482355732E+03 0.  0.
        -13    1    4    4    0    0 -0.13520577477E+03 -0.10963143338E+03  0.17933963004E+03  0.24992472223E+03  0.10566000000E+00 0. -1.
     200003    1    4    4    0    0  0.63372990584E+01  0.49441825997E+02  0.43539999996E+02  0.72666272210E+02  0.30000000000E+02 0. -1.
     200000    1    3    3    0    0 -0.18679748022E+03 -0.23284539487E+03  0.81503157825E+03  0.10016919437E+04  0.50000000000E+03 0.  1.
    -200001    1    1    2    0    0  0.31566595593E+03  0.29303500225E+03  0.50077689229E+03  0.96244064967E+03  0.70000000000E+03 0. -1.
<mgrwt>
<rscale>  0 0.16916098E+04</rscale>
<asrwt>0</asrwt>
<pdfrwt beam="1">  1        3 0.27324369E+00 0.16916098E+04</pdfrwt>
<pdfrwt beam="2">  1       -3 0.53431107E-01 0.16916098E+04</pdfrwt>
<totfact> 0.47369255E-01</totfact>
</mgrwt>
</event>
<event>
 8    1  0.1714417E-029  0.1517001E+04  0.7818608E-02  0.8873226E-01
          3   -1    0    0  501    0  0.00000000000E+00  0.00000000000E+00  0.34139349281E+03  0.34139350775E+03  0.10100000000E+00 0.  1.
         -3   -1    0    0    0  501 -0.00000000000E+00 -0.00000000000E+00 -0.16852187222E+04  0.16852187252E+04  0.10100000000E+00 0. -1.
     200001    2    1    2    0    0 -0.27826293706E+03 -0.18577406267E+02 -0.55668863270E+03  0.93695200885E+03  0.70014387875E+03 0.  0.
    5000001    2    3    3    0    0 -0.10704258155E+03  0.40175707285E+02 -0.25343373783E+03  0.32479853973E+03  0.16790839830E+03 0.  0.
        -13    1    4    4    0    0 -0.11279271446E+03 -0.32774509410E+02 -0.10957356114E+03  0.16063231731E+03  0.10566000000E+00 0. -1.
     200003    1    4    4    0    0  0.57501329091E+01  0.72950216695E+02 -0.14386017669E+03  0.16416622241E+03  0.30000000000E+02 0. -1.
     200000    1    3    3    0    0 -0.17122035551E+03 -0.58753113552E+02 -0.30325489487E+03  0.61215346912E+03  0.50000000000E+03 0.  1.
    -200001    1    1    2    0    0  0.27826293706E+03  0.18577406267E+02 -0.78713659666E+03  0.10896602241E+04  0.70000000000E+03 0. -1.
<mgrwt>
<rscale>  0 0.15170006E+04</rscale>
<asrwt>0</asrwt>
<pdfrwt beam="1">  1        3 0.48770502E-01 0.15170006E+04</pdfrwt>
<pdfrwt beam="2">  1       -3 0.24074553E+00 0.15170006E+04</pdfrwt>
<totfact> 0.87934280E-01</totfact>
</mgrwt>
</event>
<event>
 8    1  0.1714417E-029  0.1615420E+04  0.7818608E-02  0.8811131E-01
          3   -1    0    0  501    0  0.00000000000E+00  0.00000000000E+00  0.57781256563E+03  0.57781257445E+03  0.10100000000E+00 0. -1.
         -3   -1    0    0    0  501 -0.00000000000E+00 -0.00000000000E+00 -0.11290773932E+04  0.11290773977E+04  0.10100000000E+00 0.  1.
     200001    2    1    2    0    0  0.18818354862E+03 -0.34897294544E+03 -0.20686553080E+03  0.83178652672E+03  0.70134179512E+03 0.  0.
    5000001    2    3    3    0    0  0.12642195989E+03 -0.99590876312E+02 -0.11851960680E+03  0.26274266854E+03  0.17054605856E+03 0.  0.
        -13    1    4    4    0    0  0.99549438396E+01 -0.10383413371E+03 -0.92944473172E+02  0.13971154028E+03  0.10566000000E+00 0. -1.
     200003    1    4    4    0    0  0.11646701605E+03  0.42432573977E+01 -0.25575133627E+02  0.12303112826E+03  0.30000000000E+02 0. -1.
     200000    1    3    3    0    0  0.61761588731E+02 -0.24938206913E+03 -0.88345923996E+02  0.56904385818E+03  0.50000000000E+03 0.  1.
    -200001    1    1    2    0    0 -0.18818354862E+03  0.34897294544E+03 -0.34439929678E+03  0.87510344546E+03  0.70000000000E+03 0. -1.
<mgrwt>
<rscale>  0 0.16154196E+04</rscale>
<asrwt>0</asrwt>
<pdfrwt beam="1">  1        3 0.82544653E-01 0.16154196E+04</pdfrwt>
<pdfrwt beam="2">  1       -3 0.16129677E+00 0.16154196E+04</pdfrwt>
<totfact> 0.91179299E-01</totfact>
</mgrwt>
</event>
<event>
 8    1  0.1714417E-029  0.1562499E+04  0.7818608E-02  0.8843923E-01
         -3   -1    0    0    0  501 -0.00000000000E+00  0.00000000000E+00  0.13610006312E+04  0.13610006349E+04  0.10100000000E+00 0.  1.
          3   -1    0    0  501    0  0.00000000000E+00 -0.00000000000E+00 -0.44845757332E+03  0.44845758469E+03  0.10100000000E+00 0. -1.
     200001    2    1    2    0    0 -0.32953366659E+03 -0.13175200089E+02  0.32955337665E+03  0.84062232448E+03  0.69948155160E+03 0.  0.
    5000001    2    3    3    0    0 -0.16205330554E+03 -0.12721156526E+02  0.22953616676E+02  0.23066061231E+03  0.16203193479E+03 0.  0.
        -13    1    4    4    0    0  0.52363263104E+01  0.12075732862E+02  0.54467861296E+02  0.56035716428E+02  0.10566000000E+00 0. -1.
     200003    1    4    4    0    0 -0.16728963185E+03 -0.24796889388E+02 -0.31514244620E+02  0.17462489588E+03  0.30000000000E+02 0. -1.
     200000    1    3    3    0    0 -0.16748036105E+03 -0.45404356322E+00  0.30659975998E+03  0.60996171217E+03  0.50000000000E+03 0. -1.
    -200001    1    1    2    0    0  0.32953366659E+03  0.13175200089E+02  0.58298968120E+03  0.96883589513E+03  0.70000000000E+03 0.  1.
<mgrwt>
<rscale>  0 0.15624993E+04</rscale>
<asrwt>0</asrwt>
<pdfrwt beam="1">  1        3 0.64065369E-01 0.15624993E+04</pdfrwt>
<pdfrwt beam="2">  1       -3 0.19442866E+00 0.15624993E+04</pdfrwt>
<totfact> 0.95088171E-01</totfact>
</mgrwt>
</event>
<event>
 8    1  0.1714417E-029  0.1466027E+04  0.7818608E-02  0.8907364E-01
          3   -1    0    0  501    0  0.00000000000E+00  0.00000000000E+00  0.28648608170E+03  0.28648609950E+03  0.10100000000E+00 0. -1.
         -3   -1    0    0    0  501 -0.00000000000E+00 -0.00000000000E+00 -0.18755155281E+04  0.18755155309E+04  0.10100000000E+00 0.  1.
     200001    2    1    2    0    0 -0.13551245613E+03  0.13911415940E+03 -0.93370441476E+03  0.11836523715E+04  0.70107961557E+03 0.  0.
    5000001    2    3    3    0    0 -0.91402077927E+02 -0.39362501372E+02 -0.24970614412E+03  0.31667297261E+03  0.16740629262E+03 0.  0.
        -13    1    4    4    0    0 -0.74344821139E+02  0.46123853867E+02 -0.18313390991E+03  0.20295960792E+03  0.10566000000E+00 0. -1.
     200003    1    4    4    0    0 -0.17057256788E+02 -0.85486355239E+02 -0.66572234211E+02  0.11371336469E+03  0.30000000000E+02 0. -1.
     200000    1    3    3    0    0 -0.44110378201E+02  0.17847666077E+03 -0.68399827064E+03  0.86697939891E+03  0.50000000000E+03 0. -1.
    -200001    1    1    2    0    0  0.13551245613E+03 -0.13911415940E+03 -0.65532503168E+03  0.97834925883E+03  0.70000000000E+03 0.  1.
<mgrwt>
<rscale>  0 0.14660274E+04</rscale>
<asrwt>0</asrwt>
<pdfrwt beam="1">  1        3 0.40926586E-01 0.14660274E+04</pdfrwt>
<pdfrwt beam="2">  1       -3 0.26793078E+00 0.14660274E+04</pdfrwt>
<totfact> 0.87599409E-01</totfact>
</mgrwt>
</event>
<event>
 8    1  0.1714417E-029  0.2510198E+04  0.7818608E-02  0.8399362E-01
          3   -1    0    0  501    0  0.00000000000E+00  0.00000000000E+00  0.11091817020E+04  0.11091817066E+04  0.10100000000E+00 0.  1.
         -3   -1    0    0    0  501 -0.00000000000E+00 -0.00000000000E+00 -0.14202120881E+04  0.14202120916E+04  0.10100000000E+00 0. -1.
     200001    2    1    2    0    0  0.24918371371E+03 -0.37818461677E+03  0.78977032078E+03  0.11484961468E+04  0.70013578113E+03 0.  0.
    5000001    2    3    3    0    0  0.13476123237E+03 -0.12326846021E+03  0.26583844967E+03  0.37223629551E+03  0.18583346130E+03 0.  0.
        -13    1    4    4    0    0  0.53219282135E+02 -0.78491446161E+01 -0.15491518900E+02  0.55981241358E+02  0.10566000000E+00 0. -1.
     200003    1    4    4    0    0  0.81541950237E+02 -0.11541931560E+03  0.28132996857E+03  0.31625505415E+03  0.30000000000E+02 0. -1.
     200000    1    3    3    0    0  0.11442248133E+03 -0.25491615656E+03  0.52393187111E+03  0.77625985126E+03  0.50000000000E+03 0.  1.
    -200001    1    1    2    0    0 -0.24918371371E+03  0.37818461677E+03 -0.11008007069E+04  0.13808976514E+04  0.70000000000E+03 0. -1.
<mgrwt>
<rscale>  0 0.25101978E+04</rscale>
<asrwt>0</asrwt>
<pdfrwt beam="1">  1        3 0.15845453E+00 0.25101978E+04</pdfrwt>
<pdfrwt beam="2">  1       -3 0.20288744E+00 0.25101978E+04</pdfrwt>
<totfact> 0.92214784E-02</totfact>
</mgrwt>
</event>
<event>
 8    1  0.1714417E-029  0.1635235E+04  0.7818608E-02  0.8799189E-01
         -3   -1    0    0    0  501 -0.00000000000E+00  0.00000000000E+00  0.84706400440E+03  0.84706401043E+03  0.10100000000E+00 0. -1.
          3   -1    0    0  501    0  0.00000000000E+00 -0.00000000000E+00 -0.78919501172E+03  0.78919501819E+03  0.10100000000E+00 0.  1.
     200001    2    1    2    0    0  0.10068056867E+03  0.22825557217E+03 -0.31526689436E+03  0.80471373620E+03  0.69708952037E+03 0.  0.
    5000001    2    3    3    0    0  0.56948729201E+02  0.96217282429E+02 -0.11986628070E+03  0.25016167952E+03  0.18897623517E+03 0.  0.
        -13    1    4    4    0    0  0.10358191516E+03  0.97273418806E+02 -0.13137342321E+03  0.19352084809E+03  0.10566000000E+00 0. -1.
     200003    1    4    4    0    0 -0.46633185958E+02 -0.10561363768E+01  0.11507142519E+02  0.56640831435E+02  0.30000000000E+02 0. -1.
     200000    1    3    3    0    0  0.43731839468E+02  0.13203828974E+03 -0.19540061366E+03  0.55455205667E+03  0.50000000000E+03 0.  1.
    -200001    1    1    2    0    0 -0.10068056867E+03 -0.22825557217E+03  0.37313588704E+03  0.83154529241E+03  0.70000000000E+03 0. -1.
<mgrwt>
<rscale>  0 0.16352354E+04</rscale>
<asrwt>0</asrwt>
<pdfrwt beam="1">  1        3 0.11274215E+00 0.16352354E+04</pdfrwt>
<pdfrwt beam="2">  1       -3 0.12100914E+00 0.16352354E+04</pdfrwt>
<totfact> 0.91902787E-01</totfact>
</mgrwt>
</event>
<event>
 8    1  0.1714417E-029  0.2381071E+04  0.7818608E-02  0.8446624E-01
         -3   -1    0    0    0  501 -0.00000000000E+00  0.00000000000E+00  0.11134990275E+04  0.11134990321E+04  0.10100000000E+00 0. -1.
          3   -1    0    0  501    0  0.00000000000E+00 -0.00000000000E+00 -0.12729019312E+04  0.12729019352E+04  0.10100000000E+00 0.  1.
     200001    2    1    2    0    0  0.14766315798E+03 -0.46513086617E+03  0.75262889826E+03  0.11374201273E+04  0.69937340277E+03 0.  0.
    5000001    2    3    3    0    0 -0.75564473039E+02 -0.11611408433E+03  0.11053367219E+03  0.22422268497E+03  0.13735228284E+03 0.  0.
        -13    1    4    4    0    0 -0.54394987754E+02  0.12681256811E+02  0.57545938459E+02  0.80194608075E+02  0.10566000000E+00 0. -1.
     200003    1    4    4    0    0 -0.21169485284E+02 -0.12879534114E+03  0.52987733732E+02  0.14402807689E+03  0.30000000000E+02 0. -1.
     200000    1    3    3    0    0  0.22322763102E+03 -0.34901678184E+03  0.64209522607E+03  0.91319744228E+03  0.50000000000E+03 0. -1.
    -200001    1    1    2    0    0 -0.14766315798E+03  0.46513086617E+03 -0.91203180201E+03  0.12489808400E+04  0.70000000000E+03 0.  1.
<mgrwt>
<rscale>  0 0.23810712E+04</rscale>
<asrwt>0</asrwt>
<pdfrwt beam="1">  1        3 0.18184313E+00 0.23810712E+04</pdfrwt>
<pdfrwt beam="2">  1       -3 0.15907129E+00 0.23810712E+04</pdfrwt>
<totfact> 0.12644685E-01</totfact>
</mgrwt>
</event>
<event>
 8    1  0.1714417E-029  0.1566729E+04  0.7818608E-02  0.8841252E-01
         -3   -1    0    0    0  501 -0.00000000000E+00  0.00000000000E+00  0.52904788693E+03  0.52904789657E+03  0.10100000000E+00 0. -1.
          3   -1    0    0  501    0  0.00000000000E+00 -0.00000000000E+00 -0.11599329825E+04  0.11599329869E+04  0.10100000000E+00 0.  1.
     200001    2    1    2    0    0 -0.23270832384E+03  0.16217302486E+03 -0.91307515086E+02  0.76075827043E+03  0.69997344931E+03 0.  0.
    5000001    2    3    3    0    0  0.59883107449E+02  0.11238756149E+03  0.62641693178E+02  0.15926953674E+03  0.72290062080E+02 0.  0.
        -13    1    4    4    0    0  0.33696308743E+02  0.79651270863E+02  0.12551801535E+02  0.87391790569E+02  0.10566000000E+00 0. -1.
     200003    1    4    4    0    0  0.26186798706E+02  0.32736290623E+02  0.50089891643E+02  0.71877746174E+02  0.30000000000E+02 0. -1.
     200000    1    3    3    0    0 -0.29259143129E+03  0.49785463370E+02 -0.15394920826E+03  0.60148873369E+03  0.50000000000E+03 0. -1.
    -200001    1    1    2    0    0  0.23270832384E+03 -0.16217302486E+03 -0.53957758044E+03  0.92822261300E+03  0.70000000000E+03 0.  1.
<mgrwt>
<rscale>  0 0.15667292E+04</rscale>
<asrwt>0</asrwt>
<pdfrwt beam="1">  1        3 0.16570471E+00 0.15667292E+04</pdfrwt>
<pdfrwt beam="2">  1       -3 0.75578271E-01 0.15667292E+04</pdfrwt>
<totfact> 0.10394722E+00</totfact>
</mgrwt>
</event>
<event>
 8    1  0.1714417E-029  0.1521027E+04  0.7818608E-02  0.8870589E-01
         -3   -1    0    0    0  501 -0.00000000000E+00  0.00000000000E+00  0.29311500724E+03  0.29311502464E+03  0.10100000000E+00 0. -1.
          3   -1    0    0  501    0  0.00000000000E+00 -0.00000000000E+00 -0.19732211951E+04  0.19732211977E+04  0.10100000000E+00 0.  1.
     200001    2    1    2    0    0  0.97878286427E+02  0.18224707107E+03 -0.53000907690E+03  0.90416240136E+03  0.70271322213E+03 0.  0.
    5000001    2    3    3    0    0  0.30263790079E+02  0.54766168823E+02 -0.19934448178E+03  0.28758947378E+03  0.19762148865E+03 0.  0.
        -13    1    4    4    0    0  0.81427268783E+02 -0.17447591183E+02 -0.17056788309E+03  0.18981104405E+03  0.10566000000E+00 0. -1.
     200003    1    4    4    0    0 -0.51163478704E+02  0.72213760006E+02 -0.28776598689E+02  0.97778429725E+02  0.30000000000E+02 0. -1.
     200000    1    3    3    0    0  0.67614496348E+02  0.12748090225E+03 -0.33066459512E+03  0.61657292758E+03  0.50000000000E+03 0. -1.
    -200001    1    1    2    0    0 -0.97878286427E+02 -0.18224707107E+03 -0.11500971110E+04  0.13621738210E+04  0.70000000000E+03 0. -1.
<mgrwt>
<rscale>  0 0.15210270E+04</rscale>
<asrwt>0</asrwt>
<pdfrwt beam="1">  1        3 0.28188874E+00 0.15210270E+04</pdfrwt>
<pdfrwt beam="2">  1       -3 0.41873575E-01 0.15210270E+04</pdfrwt>
<totfact> 0.70530335E-01</totfact>
</mgrwt>
</event>
<event>
 8    1  0.1714417E-029  0.1606675E+04  0.7818608E-02  0.8816458E-01
          3   -1    0    0  501    0  0.00000000000E+00  0.00000000000E+00  0.10789127202E+04  0.10789127249E+04  0.10100000000E+00 0.  1.
         -3   -1    0    0    0  501 -0.00000000000E+00 -0.00000000000E+00 -0.59814962660E+03  0.59814963513E+03  0.10100000000E+00 0. -1.
     200001    2    1    2    0    0  0.26092305737E+02  0.34958187878E+03  0.42851323791E+03  0.89244885914E+03  0.69996647972E+03 0.  0.
    5000001    2    3    3    0    0 -0.11330184753E+03  0.96979769725E+02  0.32088061716E+02  0.19216928941E+03  0.11686320078E+03 0.  0.
        -13    1    4    4    0    0 -0.59053608273E+02  0.74795549708E+02 -0.31763505635E+02  0.10045214961E+03  0.10566000000E+00 0. -1.
     200003    1    4    4    0    0 -0.54248239260E+02  0.22184220017E+02  0.63851567351E+02  0.91717139804E+02  0.30000000000E+02 0.  1.
     200000    1    3    3    0    0  0.13939415327E+03  0.25260210905E+03  0.39642517620E+03  0.70027956973E+03  0.50000000000E+03 0.  1.
    -200001    1    1    2    0    0 -0.26092305737E+02 -0.34958187878E+03  0.52249855687E+02  0.78461350091E+03  0.70000000000E+03 0. -1.
<mgrwt>
<rscale>  0 0.16066751E+04</rscale>
<asrwt>0</asrwt>
<pdfrwt beam="1">  1        3 0.15413039E+00 0.16066751E+04</pdfrwt>
<pdfrwt beam="2">  1       -3 0.85449948E-01 0.16066751E+04</pdfrwt>
<totfact> 0.95464234E-01</totfact>
</mgrwt>
</event>
<event>
 8    1  0.1714417E-029  0.1707566E+04  0.7818608E-02  0.8757061E-01
         -3   -1    0    0    0  501 -0.00000000000E+00  0.00000000000E+00  0.65566944425E+03  0.65566945203E+03  0.10100000000E+00 0. -1.
          3   -1    0    0  501    0  0.00000000000E+00 -0.00000000000E+00 -0.11117571892E+04  0.11117571938E+04  0.10100000000E+00 0.  1.
     200001    2    1    2    0    0  0.35687268030E+03  0.94292019086E+02 -0.57366846729E+03  0.96738019655E+03  0.68591532968E+03 0.  0.
    5000001    2    3    3    0    0  0.67946204764E+02  0.27049860819E+02 -0.17337814542E+03  0.26152443373E+03  0.18162231806E+03 0.  0.
        -13    1    4    4    0    0  0.76831141910E+02  0.93003777018E+02 -0.12633352513E+03  0.17467941391E+03  0.10566000000E+00 0. -1.
     200003    1    4    4    0    0 -0.88849371455E+01 -0.65953916199E+02 -0.47044620287E+02  0.86845019823E+02  0.30000000000E+02 0. -1.
     200000    1    3    3    0    0  0.28892647554E+03  0.67242158267E+02 -0.40029032188E+03  0.70585576282E+03  0.50000000000E+03 0.  1.
    -200001    1    1    2    0    0 -0.35687268030E+03 -0.94292019086E+02  0.11758072230E+03  0.80004644932E+03  0.70000000000E+03 0. -1.
<mgrwt>
<rscale>  0 0.17075658E+04</rscale>
<asrwt>0</asrwt>
<pdfrwt beam="1">  1        3 0.15882246E+00 0.17075658E+04</pdfrwt>
<pdfrwt beam="2">  1       -3 0.93667064E-01 0.17075658E+04</pdfrwt>
<totfact> 0.70988680E-01</totfact>
</mgrwt>
</event>
<event>
 8    1  0.1714417E-029  0.1806294E+04  0.7818608E-02  0.8702959E-01
          3   -1    0    0  501    0  0.00000000000E+00  0.00000000000E+00  0.81932024665E+03  0.81932025287E+03  0.10100000000E+00 0.  1.
         -3   -1    0    0    0  501 -0.00000000000E+00 -0.00000000000E+00 -0.99555079364E+03  0.99555079877E+03  0.10100000000E+00 0. -1.
     200001    2    1    2    0    0 -0.16517682439E+03 -0.51421607766E+03 -0.27174663889E+03  0.92558769879E+03  0.70083150227E+03 0.  0.
    5000001    2    3    3    0    0 -0.14926154110E+02 -0.93687858835E+02 -0.28232952574E+02  0.21234288657E+03  0.18786217526E+03 0.  0.
        -13    1    4    4    0    0  0.15130737809E+02 -0.39517758909E+02  0.76261810441E+02  0.87215064018E+02  0.10566000000E+00 0. -1.
     200003    1    4    4    0    0 -0.30056891919E+02 -0.54170099927E+02 -0.10449476302E+03  0.12512782255E+03  0.30000000000E+02 0. -1.
     200000    1    3    3    0    0 -0.15025067028E+03 -0.42052821882E+03 -0.24351368632E+03  0.71324481223E+03  0.50000000000E+03 0.  1.
    -200001    1    1    2    0    0  0.16517682439E+03  0.51421607766E+03  0.95516091897E+02  0.88928335285E+03  0.70000000000E+03 0. -1.
<mgrwt>
<rscale>  0 0.18062945E+04</rscale>
<asrwt>0</asrwt>
<pdfrwt beam="1">  1        3 0.11704575E+00 0.18062945E+04</pdfrwt>
<pdfrwt beam="2">  1       -3 0.14222154E+00 0.18062945E+04</pdfrwt>
<totfact> 0.55346342E-01</totfact>
</mgrwt>
</event>
<event>
 8    1  0.1714417E-029  0.2048491E+04  0.7818608E-02  0.8584279E-01
          3   -1    0    0  501    0  0.00000000000E+00  0.00000000000E+00  0.73564265199E+03  0.73564265893E+03  0.10100000000E+00 0.  1.
         -3   -1    0    0    0  501 -0.00000000000E+00 -0.00000000000E+00 -0.14260716187E+04  0.14260716222E+04  0.10100000000E+00 0. -1.
     200001    2    1    2    0    0  0.47442880447E+02 -0.12894024691E+03 -0.11210176982E+04  0.13284777782E+04  0.69949704301E+03 0.  0.
    5000001    2    3    3    0    0  0.11255355192E+03 -0.41653441977E+01 -0.24719571637E+03  0.31192820640E+03  0.15332263896E+03 0.  0.
        -13    1    4    4    0    0 -0.18315063187E+02 -0.36883217819E+02 -0.10888113598E+03  0.11640844571E+03  0.10566000000E+00 0. -1.
     200003    1    4    4    0    0  0.13086861510E+03  0.32717873621E+02 -0.13831458039E+03  0.19551976069E+03  0.30000000000E+02 0. -1.
     200000    1    3    3    0    0 -0.65110671468E+02 -0.12477490271E+03 -0.87382198186E+03  0.10165495718E+04  0.50000000000E+03 0. -1.
    -200001    1    1    2    0    0 -0.47442880447E+02  0.12894024691E+03  0.43058873156E+03  0.83323650300E+03  0.70000000000E+03 0.  1.
<mgrwt>
<rscale>  0 0.20484913E+04</rscale>
<asrwt>0</asrwt>
<pdfrwt beam="1">  1        3 0.10509181E+00 0.20484913E+04</pdfrwt>
<pdfrwt beam="2">  1       -3 0.20372452E+00 0.20484913E+04</pdfrwt>
<totfact> 0.26299849E-01</totfact>
</mgrwt>
</event>
<event>
 8    1  0.1714417E-029  0.1597703E+04  0.7818608E-02  0.8821960E-01
         -3   -1    0    0    0  501 -0.00000000000E+00  0.00000000000E+00  0.15815265983E+04  0.15815266016E+04  0.10100000000E+00 0. -1.
          3   -1    0    0  501    0  0.00000000000E+00 -0.00000000000E+00 -0.40351132884E+03  0.40351134149E+03  0.10100000000E+00 0.  1.
     200001    2    1    2    0    0  0.20662813228E+03  0.18715239095E+03  0.26035990891E+03  0.79768266206E+03  0.70056344801E+03 0.  0.
    5000001    2    3    3    0    0  0.77734998133E+02  0.13681671583E+03  0.36297615488E+02  0.23257114072E+03  0.16736270474E+03 0.  0.
        -13    1    4    4    0    0  0.24877190177E+02 -0.30904425930E+02 -0.21402509295E+02  0.45078117766E+02  0.10566000000E+00 0. -1.
     200003    1    4    4    0    0  0.52857807956E+02  0.16772114176E+03  0.57700124783E+02  0.18749302295E+03  0.30000000000E+02 0. -1.
     200000    1    3    3    0    0  0.12889313414E+03  0.50335675123E+02  0.22406229342E+03  0.56511152134E+03  0.50000000000E+03 0.  1.
    -200001    1    1    2    0    0 -0.20662813228E+03 -0.18715239095E+03  0.91765536059E+03  0.11873552810E+04  0.70000000000E+03 0.  1.
<mgrwt>
<rscale>  0 0.15977032E+04</rscale>
<asrwt>0</asrwt>
<pdfrwt beam="1">  1        3 0.57644477E-01 0.15977032E+04</pdfrwt>
<pdfrwt beam="2">  1       -3 0.22593237E+00 0.15977032E+04</pdfrwt>
<totfact> 0.75679524E-01</totfact>
</mgrwt>
</event>
<event>
 8    1  0.1714417E-029  0.1620408E+04  0.7818608E-02  0.8808108E-01
          3   -1    0    0  501    0  0.00000000000E+00  0.00000000000E+00  0.18780788266E+04  0.18780788293E+04  0.10100000000E+00 0. -1.
         -3   -1    0    0    0  501 -0.00000000000E+00 -0.00000000000E+00 -0.34952231220E+03  0.34952232679E+03  0.10100000000E+00 0.  1.
     200001    2    1    2    0    0 -0.27743360743E+03 -0.22054027939E+03  0.10434978280E+04  0.13051645184E+04  0.69925623457E+03 0.  0.
    5000001    2    3    3    0    0 -0.97783455804E+02 -0.11092191823E+03  0.24532197354E+03  0.34008677190E+03  0.18333266360E+03 0.  0.
        -13    1    4    4    0    0 -0.79739081265E+01 -0.65589001275E+02 -0.73445980298E+01  0.66478978507E+02  0.10566000000E+00 0. -1.
     200003    1    4    4    0    0 -0.89809547678E+02 -0.45332916955E+02  0.25266657157E+03  0.27360779339E+03  0.30000000000E+02 0. -1.
     200000    1    3    3    0    0 -0.17965015163E+03 -0.10961836116E+03  0.79817585446E+03  0.96507774646E+03  0.50000000000E+03 0. -1.
    -200001    1    1    2    0    0  0.27743360743E+03  0.22054027939E+03  0.48505868635E+03  0.92243663770E+03  0.70000000000E+03 0.  1.
<mgrwt>
<rscale>  0 0.16204079E+04</rscale>
<asrwt>0</asrwt>
<pdfrwt beam="1">  1        3 0.26829698E+00 0.16204079E+04</pdfrwt>
<pdfrwt beam="2">  1       -3 0.49931760E-01 0.16204079E+04</pdfrwt>
<totfact> 0.58405937E-01</totfact>
</mgrwt>
</event>
<event>
 8    1  0.1714417E-029  0.1533698E+04  0.7818608E-02  0.8862348E-01
         -3   -1    0    0    0  501 -0.00000000000E+00  0.00000000000E+00  0.33631740602E+04  0.33631740617E+04  0.10100000000E+00 0. -1.
          3   -1    0    0  501    0  0.00000000000E+00 -0.00000000000E+00 -0.17485193684E+03  0.17485196601E+03  0.10100000000E+00 0.  1.
     200001    2    1    2    0    0  0.74314532828E+02 -0.27280360755E+03  0.19047616598E+04  0.20489081943E+04  0.69997382101E+03 0.  0.
    5000001    2    3    3    0    0  0.28390686696E+02 -0.13373242165E+03  0.52165594328E+03  0.57092605052E+03  0.18745996987E+03 0.  0.
        -13    1    4    4    0    0 -0.70955371798E+02 -0.10052241596E+03  0.27965510648E+03  0.30552644835E+03  0.10566000000E+00 0. -1.
     200003    1    4    4    0    0  0.99346058494E+02 -0.33210005691E+02  0.24200083680E+03  0.26539960217E+03  0.30000000000E+02 0. -1.
     200000    1    3    3    0    0  0.45923846132E+02 -0.13907118590E+03  0.13831057165E+04  0.14779821438E+04  0.50000000000E+03 0.  1.
    -200001    1    1    2    0    0 -0.74314532828E+02  0.27280360755E+03  0.12835604636E+04  0.14891178334E+04  0.70000000000E+03 0. -1.
<mgrwt>
<rscale>  0 0.15336982E+04</rscale>
<asrwt>0</asrwt>
<pdfrwt beam="1">  1        3 0.24978852E-01 0.15336982E+04</pdfrwt>
<pdfrwt beam="2">  1       -3 0.48045341E+00 0.15336982E+04</pdfrwt>
<totfact> 0.15167984E-01</totfact>
</mgrwt>
</event>
<event>
 8    1  0.1714417E-029  0.2407144E+04  0.7818608E-02  0.8436834E-01
         -3   -1    0    0    0  501 -0.00000000000E+00  0.00000000000E+00  0.80428583236E+03  0.80428583870E+03  0.10100000000E+00 0. -1.
          3   -1    0    0  501    0  0.00000000000E+00 -0.00000000000E+00 -0.18010829467E+04  0.18010829495E+04  0.10100000000E+00 0.  1.
     200001    2    1    2    0    0  0.61835560514E+03  0.35935289039E+03 -0.12228077470E+04  0.15794160796E+04  0.69842552369E+03 0.  0.
    5000001    2    3    3    0    0  0.24550815662E+03  0.11526695715E+03 -0.46652707130E+03  0.56919153867E+03  0.18102699537E+03 0.  0.
        -13    1    4    4    0    0  0.56771769299E+02 -0.17469971675E+02 -0.15040606410E+02  0.61273686888E+02  0.10566000000E+00 0. -1.
     200003    1    4    4    0    0  0.18873638733E+03  0.13273692882E+03 -0.45148646490E+03  0.50791785178E+03  0.30000000000E+02 0. -1.
     200000    1    3    3    0    0  0.37284744851E+03  0.24408593325E+03 -0.75628067566E+03  0.10102245409E+04  0.50000000000E+03 0.  1.
    -200001    1    1    2    0    0 -0.61835560514E+03 -0.35935289039E+03  0.22601063266E+03  0.10259527086E+04  0.70000000000E+03 0. -1.
<mgrwt>
<rscale>  0 0.24071440E+04</rscale>
<asrwt>0</asrwt>
<pdfrwt beam="1">  1        3 0.25729756E+00 0.24071440E+04</pdfrwt>
<pdfrwt beam="2">  1       -3 0.11489798E+00 0.24071440E+04</pdfrwt>
<totfact> 0.99602859E-02</totfact>
</mgrwt>
</event>
<event>
 8    1  0.1714417E-029  0.1579512E+04  0.7818608E-02  0.8833234E-01
         -3   -1    0    0    0  501 -0.00000000000E+00  0.00000000000E+00  0.95772309484E+03  0.95772310017E+03  0.10100000000E+00 0. -1.
          3   -1    0    0  501    0  0.00000000000E+00 -0.00000000000E+00 -0.65124745970E+03  0.65124746754E+03  0.10100000000E+00 0.  1.
     200001    2    1    2    0    0  0.12469088537E+03  0.15533848752E+03  0.46625468704E+03  0.86384829048E+03  0.69940158220E+03 0.  0.
    5000001    2    3    3    0    0  0.90675566919E+01  0.69273097185E+02  0.27896174084E+02  0.18345561604E+03  0.16732239525E+03 0.  0.
        -13    1    4    4    0    0  0.35579548788E+02 -0.26343995712E+02  0.60337956575E+02  0.74837093541E+02  0.10566000000E+00 0. -1.
     200003    1    4    4    0    0 -0.26511992096E+02  0.95617092897E+02 -0.32441782491E+02  0.10861852250E+03  0.30000000000E+02 0. -1.
     200000    1    3    3    0    0  0.11562332867E+03  0.86065390334E+02  0.43835851295E+03  0.68039267443E+03  0.50000000000E+03 0. -1.
    -200001    1    1    2    0    0 -0.12469088537E+03 -0.15533848752E+03 -0.15977905190E+03  0.74512227723E+03  0.70000000000E+03 0.  1.
<mgrwt>
<rscale>  0 0.15795123E+04</rscale>
<asrwt>0</asrwt>
<pdfrwt beam="1">  1        3 0.93035353E-01 0.15795123E+04</pdfrwt>
<pdfrwt beam="2">  1       -3 0.13681759E+00 0.15795123E+04</pdfrwt>
<totfact> 0.10683587E+00</totfact>
</mgrwt>
</event>
<event>
 8    1  0.1714417E-029  0.2429769E+04  0.7818608E-02  0.8428442E-01
         -3   -1    0    0    0  501 -0.00000000000E+00  0.00000000000E+00  0.61190597748E+03  0.61190598581E+03  0.10100000000E+00 0. -1.
          3   -1    0    0  501    0  0.00000000000E+00 -0.00000000000E+00 -0.24120443564E+04  0.24120443585E+04  0.10100000000E+00 0.  1.
     200001    2    1    2    0    0 -0.76054877699E+03 -0.27160341939E+02 -0.10628096007E+03  0.10394289709E+04  0.69996058219E+03 0.  0.
    5000001    2    3    3    0    0 -0.23137687488E+03  0.82598715632E+02 -0.94693312380E+01  0.29683726326E+03  0.16632764825E+03 0.  0.
        -13    1    4    4    0    0 -0.27921904791E+02 -0.33507628940E+02  0.35731733360E+02  0.56384057120E+02  0.10566000000E+00 0. -1.
     200003    1    4    4    0    0 -0.20345497009E+03  0.11610634457E+03 -0.45201064598E+02  0.24045320614E+03  0.30000000000E+02 0. -1.
     200000    1    3    3    0    0 -0.52917190212E+03 -0.10975905757E+03 -0.96811628829E+02  0.74259170759E+03  0.50000000000E+03 0.  1.
    -200001    1    1    2    0    0  0.76054877699E+03  0.27160341939E+02 -0.16938574189E+04  0.19845213735E+04  0.70000000000E+03 0.  1.
<mgrwt>
<rscale>  0 0.24297690E+04</rscale>
<asrwt>0</asrwt>
<pdfrwt beam="1">  1        3 0.34457776E+00 0.24297690E+04</pdfrwt>
<pdfrwt beam="2">  1       -3 0.87415141E-01 0.24297690E+04</pdfrwt>
<totfact> 0.62012302E-02</totfact>
</mgrwt>
</event>
<event>
 8    1  0.1714417E-029  0.1496338E+04  0.7818608E-02  0.8886892E-01
         -3   -1    0    0    0  501 -0.00000000000E+00  0.00000000000E+00  0.37231848952E+03  0.37231850322E+03  0.10100000000E+00 0. -1.
          3   -1    0    0  501    0  0.00000000000E+00 -0.00000000000E+00 -0.15034358186E+04  0.15034358220E+04  0.10100000000E+00 0.  1.
     200001    2    1    2    0    0 -0.84066573310E+02 -0.23602771451E+03 -0.44445446516E+03  0.86368606690E+03  0.69687701913E+03 0.  0.
    5000001    2    3    3    0    0  0.16055824307E+02  0.62875882682E+00 -0.17636895677E+03  0.24086938385E+03  0.16326011862E+03 0.  0.
        -13    1    4    4    0    0  0.88493210021E+01  0.79141798969E+02 -0.88794517558E+02  0.11927368670E+03  0.10566000000E+00 0. -1.
     200003    1    4    4    0    0  0.72065033051E+01 -0.78513040143E+02 -0.87574439216E+02  0.12159569715E+03  0.30000000000E+02 0. -1.
     200000    1    3    3    0    0 -0.10012239762E+03 -0.23665647334E+03 -0.26808550838E+03  0.62281668305E+03  0.50000000000E+03 0.  1.
    -200001    1    1    2    0    0  0.84066573310E+02  0.23602771451E+03 -0.68666286389E+03  0.10120682583E+04  0.70000000000E+03 0.  1.
<mgrwt>
<rscale>  0 0.14963382E+04</rscale>
<asrwt>0</asrwt>
<pdfrwt beam="1">  1        3 0.21477654E+00 0.14963382E+04</pdfrwt>
<pdfrwt beam="2">  1       -3 0.53188358E-01 0.14963382E+04</pdfrwt>
<totfact> 0.10614164E+00</totfact>
</mgrwt>
</event>
<event>
 8    1  0.1714417E-029  0.2206175E+04  0.7818608E-02  0.8515862E-01
          3   -1    0    0  501    0  0.00000000000E+00  0.00000000000E+00  0.57519646074E+03  0.57519646961E+03  0.10100000000E+00 0.  1.
         -3   -1    0    0    0  501 -0.00000000000E+00 -0.00000000000E+00 -0.21154546087E+04  0.21154546111E+04  0.10100000000E+00 0. -1.
     200001    2    1    2    0    0 -0.75934547250E+03  0.37053448759E+03 -0.62449908545E+03  0.12614848855E+04  0.69817165185E+03 0.  0.
    5000001    2    3    3    0    0 -0.22143188134E+03  0.12155122900E+03 -0.19862094361E+03  0.37677256709E+03  0.19672444871E+03 0.  0.
        -13    1    4    4    0    0 -0.21290938799E+03  0.16106348330E+03 -0.14739775216E+03  0.30495567161E+03  0.10566000000E+00 0. -1.
     200003    1    4    4    0    0 -0.85224933566E+01 -0.39512254293E+02 -0.51223191458E+02  0.71816895474E+02  0.30000000000E+02 0.  1.
     200000    1    3    3    0    0 -0.53791359116E+03  0.24898325858E+03 -0.42587814184E+03  0.88471231839E+03  0.50000000000E+03 0. -1.
    -200001    1    1    2    0    0  0.75934547250E+03 -0.37053448759E+03 -0.91575906254E+03  0.14291661953E+04  0.70000000000E+03 0. -1.
<mgrwt>
<rscale>  0 0.22061750E+04</rscale>
<asrwt>0</asrwt>
<pdfrwt beam="1">  1        3 0.82170925E-01 0.22061750E+04</pdfrwt>
<pdfrwt beam="2">  1       -3 0.30220780E+00 0.22061750E+04</pdfrwt>
<totfact> 0.12169138E-01</totfact>
</mgrwt>
</event>
<event>
 8    1  0.1714417E-029  0.1546365E+04  0.7818608E-02  0.8854193E-01
         -3   -1    0    0    0  501 -0.00000000000E+00  0.00000000000E+00  0.11351760914E+04  0.11351760959E+04  0.10100000000E+00 0. -1.
          3   -1    0    0  501    0  0.00000000000E+00 -0.00000000000E+00 -0.52662387740E+03  0.52662388708E+03  0.10100000000E+00 0.  1.
     200001    2    1    2    0    0 -0.16444484925E+03  0.22452634958E+03  0.11934548069E+03  0.76359209056E+03  0.70098170226E+03 0.  0.
    5000001    2    3    3    0    0  0.32796266932E+01  0.18264165511E+03  0.10884682472E+03  0.23444556148E+03  0.98733783046E+02 0.  0.
        -13    1    4    4    0    0  0.30829598792E+02  0.43862125028E+02  0.62989643101E+02  0.82716724280E+02  0.10566000000E+00 0. -1.
     200003    1    4    4    0    0 -0.27549972099E+02  0.13877953008E+03  0.45857181616E+02  0.15172883720E+03  0.30000000000E+02 0. -1.
     200000    1    3    3    0    0 -0.16772447594E+03  0.41884694474E+02  0.10498655970E+02  0.52914652908E+03  0.50000000000E+03 0.  1.
    -200001    1    1    2    0    0  0.16444484925E+03 -0.22452634958E+03  0.48920673336E+03  0.89820789245E+03  0.70000000000E+03 0. -1.
<mgrwt>
<rscale>  0 0.15463646E+04</rscale>
<asrwt>0</asrwt>
<pdfrwt beam="1">  1        3 0.75231984E-01 0.15463646E+04</pdfrwt>
<pdfrwt beam="2">  1       -3 0.16216801E+00 0.15463646E+04</pdfrwt>
<totfact> 0.11102827E+00</totfact>
</mgrwt>
</event>
<event>
 8    1  0.1714417E-029  0.1521424E+04  0.7818608E-02  0.8870330E-01
          3   -1    0    0  501    0  0.00000000000E+00  0.00000000000E+00  0.12489960692E+04  0.12489960733E+04  0.10100000000E+00 0.  1.
         -3   -1    0    0    0  501 -0.00000000000E+00 -0.00000000000E+00 -0.46331807563E+03  0.46331808664E+03  0.10100000000E+00 0. -1.
     200001    2    1    2    0    0  0.10483502340E+03 -0.23303944403E+03  0.22053201469E+03  0.77706673702E+03  0.69992898188E+03 0.  0.
    5000001    2    3    3    0    0 -0.10724093718E+03 -0.64129857732E+02 -0.31178832503E+01  0.16589905279E+03  0.10908490850E+03 0.  0.
        -13    1    4    4    0    0  0.10210748871E+02  0.11202178466E+02 -0.16673802656E+02  0.22533864603E+02  0.10566000000E+00 0. -1.
     200003    1    4    4    0    0 -0.11745168605E+03 -0.75332036198E+02  0.13555919406E+02  0.14336518819E+03  0.30000000000E+02 0. -1.
     200000    1    3    3    0    0  0.21207596057E+03 -0.16890958630E+03  0.22364989794E+03  0.61116768423E+03  0.50000000000E+03 0. -1.
    -200001    1    1    2    0    0 -0.10483502340E+03  0.23303944403E+03  0.56514597887E+03  0.93524742290E+03  0.70000000000E+03 0.  1.
<mgrwt>
<rscale>  0 0.15214236E+04</rscale>
<asrwt>0</asrwt>
<pdfrwt beam="1">  1        3 0.17842801E+00 0.15214236E+04</pdfrwt>
<pdfrwt beam="2">  1       -3 0.66188297E-01 0.15214236E+04</pdfrwt>
<totfact> 0.11386578E+00</totfact>
</mgrwt>
</event>
<event>
 8    1  0.1714417E-029  0.2287930E+04  0.7818608E-02  0.8482695E-01
          3   -1    0    0  501    0  0.00000000000E+00  0.00000000000E+00  0.18497142265E+04  0.18497142292E+04  0.10100000000E+00 0.  1.
         -3   -1    0    0    0  501 -0.00000000000E+00 -0.00000000000E+00 -0.70749091414E+03  0.70749092134E+03  0.10100000000E+00 0. -1.
     200001    2    1    2    0    0 -0.23166081358E+03 -0.61970201206E+03 -0.11578937643E+03  0.97281465534E+03  0.70374985446E+03 0.  0.
    5000001    2    3    3    0    0 -0.11938107728E+03 -0.89807793390E+02 -0.76133820235E+02  0.23459572758E+03  0.16407777256E+03 0.  0.
        -13    1    4    4    0    0 -0.11324000668E+03  0.13354746473E+02 -0.33470864158E+02  0.11883584593E+03  0.10566000000E+00 0. -1.
     200003    1    4    4    0    0 -0.61410706032E+01 -0.10316253986E+03 -0.42662956077E+02  0.11575988165E+03  0.30000000000E+02 0. -1.
     200000    1    3    3    0    0 -0.11227973630E+03 -0.52989421867E+03 -0.39655556194E+02  0.73821892776E+03  0.50000000000E+03 0. -1.
    -200001    1    1    2    0    0  0.23166081358E+03  0.61970201206E+03  0.12580126888E+04  0.15843904953E+04  0.70000000000E+03 0.  1.
<mgrwt>
<rscale>  0 0.22879301E+04</rscale>
<asrwt>0</asrwt>
<pdfrwt beam="1">  1        3 0.26424489E+00 0.22879301E+04</pdfrwt>
<pdfrwt beam="2">  1       -3 0.10107013E+00 0.22879301E+04</pdfrwt>
<totfact> 0.12465699E-01</totfact>
</mgrwt>
</event>
<event>
 8    1  0.1714417E-029  0.1519580E+04  0.7818608E-02  0.8871536E-01
         -3   -1    0    0    0  501 -0.00000000000E+00  0.00000000000E+00  0.10608402099E+04  0.10608402148E+04  0.10100000000E+00 0. -1.
          3   -1    0    0  501    0  0.00000000000E+00 -0.00000000000E+00 -0.54417341590E+03  0.54417342527E+03  0.10100000000E+00 0.  1.
     200001    2    1    2    0    0 -0.15519580007E+03  0.24353009234E+03  0.32523247706E+03  0.82396323195E+03  0.69981897747E+03 0.  0.
    5000001    2    3    3    0    0 -0.26677779726E+02  0.14356396771E+03 -0.19919502690E+02  0.19496402944E+03  0.12763960762E+03 0.  0.
        -13    1    4    4    0    0 -0.69458147333E+02  0.46819363170E+02 -0.39532361828E+01  0.83857773873E+02  0.10566000000E+00 0. -1.
     200003    1    4    4    0    0  0.42780367606E+02  0.96744604539E+02 -0.15966266507E+02  0.11110625557E+03  0.30000000000E+02 0.  1.
     200000    1    3    3    0    0 -0.12851802035E+03  0.99966124635E+02  0.34515197975E+03  0.62899920251E+03  0.50000000000E+03 0. -1.
    -200001    1    1    2    0    0  0.15519580007E+03 -0.24353009234E+03  0.19143431698E+03  0.78105040808E+03  0.70000000000E+03 0. -1.
<mgrwt>
<rscale>  0 0.15195803E+04</rscale>
<asrwt>0</asrwt>
<pdfrwt beam="1">  1        3 0.77739061E-01 0.15195803E+04</pdfrwt>
<pdfrwt beam="2">  1       -3 0.15154860E+00 0.15195803E+04</pdfrwt>
<totfact> 0.12374030E+00</totfact>
</mgrwt>
</event>
<event>
 8    1  0.1714417E-029  0.1929393E+04  0.7818608E-02  0.8640362E-01
         -3   -1    0    0    0  501 -0.00000000000E+00  0.00000000000E+00  0.96330651906E+03  0.96330652436E+03  0.10100000000E+00 0.  1.
          3   -1    0    0  501    0  0.00000000000E+00 -0.00000000000E+00 -0.96608852843E+03  0.96608853371E+03  0.10100000000E+00 0. -1.
     200001    2    1    2    0    0 -0.31860611105E+03 -0.32938949874E+03  0.47897460049E+03  0.96394349169E+03  0.69983075910E+03 0.  0.
    5000001    2    3    3    0    0 -0.11591294255E+03 -0.45824047051E+02  0.52410048003E+02  0.22000048085E+03  0.17354464815E+03 0.  0.
        -13    1    4    4    0    0 -0.13836475416E+03 -0.82392416052E+02  0.34752489204E+02  0.16474544633E+03  0.10566000000E+00 0. -1.
     200003    1    4    4    0    0  0.22451811616E+02  0.36568369001E+02  0.17657558799E+02  0.55255034513E+02  0.30000000000E+02 0. -1.
     200000    1    3    3    0    0 -0.20269316850E+03 -0.28356545169E+03  0.42656455249E+03  0.74394301085E+03  0.50000000000E+03 0.  1.
    -200001    1    1    2    0    0  0.31860611105E+03  0.32938949874E+03 -0.48175660986E+03  0.96545156638E+03  0.70000000000E+03 0. -1.
<mgrwt>
<rscale>  0 0.19293931E+04</rscale>
<asrwt>0</asrwt>
<pdfrwt beam="1">  1        3 0.13801265E+00 0.19293931E+04</pdfrwt>
<pdfrwt beam="2">  1       -3 0.13761522E+00 0.19293931E+04</pdfrwt>
<totfact> 0.39656789E-01</totfact>
</mgrwt>
</event>
<event>
 8    1  0.1714417E-029  0.1518200E+04  0.7818608E-02  0.8872439E-01
          3   -1    0    0  501    0  0.00000000000E+00  0.00000000000E+00  0.71875255458E+03  0.71875256168E+03  0.10100000000E+00 0. -1.
         -3   -1    0    0    0  501 -0.00000000000E+00 -0.00000000000E+00 -0.80171267871E+03  0.80171268507E+03  0.10100000000E+00 0.  1.
     200001    2    1    2    0    0  0.34518741723E+02 -0.17105332238E+03 -0.27787967622E+03  0.77317386153E+03  0.70009279605E+03 0.  0.
    5000001    2    3    3    0    0  0.72066996616E+02 -0.10547542815E+03 -0.88345416507E+02  0.23314278163E+03  0.17387330463E+03 0.  0.
        -13    1    4    4    0    0 -0.52436068392E+02 -0.27617502249E+02 -0.52186391824E+02  0.78966438152E+02  0.10566000000E+00 0. -1.
     200003    1    4    4    0    0  0.12450306501E+03 -0.77857925905E+02 -0.36159024683E+02  0.15417634348E+03  0.30000000000E+02 0. -1.
     200000    1    3    3    0    0 -0.37548254893E+02 -0.65577894224E+02 -0.18953425971E+03  0.54003107990E+03  0.50000000000E+03 0.  1.
    -200001    1    1    2    0    0 -0.34518741723E+02  0.17105332238E+03  0.19491955209E+03  0.74729138521E+03  0.70000000000E+03 0. -1.
<mgrwt>
<rscale>  0 0.15182003E+04</rscale>
<asrwt>0</asrwt>
<pdfrwt beam="1">  1        3 0.10267894E+00 0.15182003E+04</pdfrwt>
<pdfrwt beam="2">  1       -3 0.11453038E+00 0.15182003E+04</pdfrwt>
<totfact> 0.13231449E+00</totfact>
</mgrwt>
</event>
<event>
 8    1  0.1714417E-029  0.1919746E+04  0.7818608E-02  0.8645090E-01
          3   -1    0    0  501    0  0.00000000000E+00  0.00000000000E+00  0.55220938178E+03  0.55220939101E+03  0.10100000000E+00 0.  1.
         -3   -1    0    0    0  501 -0.00000000000E+00 -0.00000000000E+00 -0.16684898803E+04  0.16684898833E+04  0.10100000000E+00 0. -1.
     200001    2    1    2    0    0  0.61397961208E+03 -0.10594139600E+03 -0.79153983651E+03  0.12289074409E+04  0.70390598944E+03 0.  0.
    5000001    2    3    3    0    0  0.68824387019E+02  0.22770654435E+02 -0.11678691922E+03  0.21942613309E+03  0.17103609101E+03 0.  0.
        -13    1    4    4    0    0 -0.20325065616E+02 -0.22062169401E+02 -0.11109197066E+03  0.11507078134E+03  0.10566000000E+00 0. -1.
     200003    1    4    4    0    0  0.89149452634E+02  0.44832823836E+02 -0.56949485630E+01  0.10435535174E+03  0.30000000000E+02 0. -1.
     200000    1    3    3    0    0  0.54515522506E+03 -0.12871205043E+03 -0.67475291729E+03  0.10094813078E+04  0.50000000000E+03 0. -1.
    -200001    1    1    2    0    0 -0.61397961208E+03  0.10594139600E+03 -0.32474066199E+03  0.99179183349E+03  0.70000000000E+03 0. -1.
<mgrwt>
<rscale>  0 0.19197456E+04</rscale>
<asrwt>0</asrwt>
<pdfrwt beam="1">  1        3 0.78887056E-01 0.19197456E+04</pdfrwt>
<pdfrwt beam="2">  1       -3 0.23835570E+00 0.19197456E+04</pdfrwt>
<totfact> 0.31607437E-01</totfact>
</mgrwt>
</event>
<event>
 8    1  0.1714417E-029  0.1865918E+04  0.7818608E-02  0.8672010E-01
         -3   -1    0    0    0  501 -0.00000000000E+00  0.00000000000E+00  0.34505582207E+03  0.34505583686E+03  0.10100000000E+00 0. -1.
          3   -1    0    0  501    0  0.00000000000E+00 -0.00000000000E+00 -0.25225268796E+04  0.25225268817E+04  0.10100000000E+00 0.  1.
     200001    2    1    2    0    0 -0.57538383666E+03 -0.20335694431E+03 -0.95218831099E+03  0.13301372999E+04  0.70013002407E+03 0.  0.
    5000001    2    3    3    0    0 -0.22897987537E+03 -0.12478919580E+03 -0.29651114932E+03  0.43231708632E+03  0.17599737141E+03 0.  0.
        -13    1    4    4    0    0 -0.16527791736E+03 -0.28111715474E+02 -0.81802223754E+02  0.18654402561E+03  0.10566000000E+00 0. -1.
     200003    1    4    4    0    0 -0.63701958009E+02 -0.96677480324E+02 -0.21470892556E+03  0.24577306071E+03  0.30000000000E+02 0.  1.
     200000    1    3    3    0    0 -0.34640396129E+03 -0.78567748516E+02 -0.65567716167E+03  0.89782021354E+03  0.50000000000E+03 0. -1.
    -200001    1    1    2    0    0  0.57538383666E+03  0.20335694431E+03 -0.12252827466E+04  0.15374454187E+04  0.70000000000E+03 0.  1.
<mgrwt>
<rscale>  0 0.18659181E+04</rscale>
<asrwt>0</asrwt>
<pdfrwt beam="1">  1        3 0.36036098E+00 0.18659181E+04</pdfrwt>
<pdfrwt beam="2">  1       -3 0.49293691E-01 0.18659181E+04</pdfrwt>
<totfact> 0.18366988E-01</totfact>
</mgrwt>
</event>
<event>
 8    1  0.1714417E-029  0.1582157E+04  0.7818608E-02  0.8831585E-01
          3   -1    0    0  501    0  0.00000000000E+00  0.00000000000E+00  0.83935531206E+03  0.83935531813E+03  0.10100000000E+00 0.  1.
         -3   -1    0    0    0  501 -0.00000000000E+00 -0.00000000000E+00 -0.74557859788E+03  0.74557860472E+03  0.10100000000E+00 0. -1.
     200001    2    1    2    0    0  0.15873328578E+03 -0.20719266673E+02 -0.28567216493E+03  0.77277199572E+03  0.69995887559E+03 0.  0.
    5000001    2    3    3    0    0  0.12373846486E+02 -0.70927202802E+02 -0.80190654895E+02  0.21048686050E+03  0.18080485927E+03 0.  0.
        -13    1    4    4    0    0 -0.42184457111E+02 -0.27970677577E+02  0.42673886343E+02  0.66203919563E+02  0.10566000000E+00 0. -1.
     200003    1    4    4    0    0  0.54558303597E+02 -0.42956525225E+02 -0.12286454124E+03  0.14428294093E+03  0.30000000000E+02 0. -1.
     200000    1    3    3    0    0  0.14635943930E+03  0.50207936129E+02 -0.20548151004E+03  0.56228513522E+03  0.50000000000E+03 0. -1.
    -200001    1    1    2    0    0 -0.15873328578E+03  0.20719266673E+02  0.37944887911E+03  0.81216192713E+03  0.70000000000E+03 0.  1.
<mgrwt>
<rscale>  0 0.15821572E+04</rscale>
<asrwt>0</asrwt>
<pdfrwt beam="1">  1        3 0.11990790E+00 0.15821572E+04</pdfrwt>
<pdfrwt beam="2">  1       -3 0.10651123E+00 0.15821572E+04</pdfrwt>
<totfact> 0.10811316E+00</totfact>
</mgrwt>
</event>
<event>
 8    1  0.1714417E-029  0.1622108E+04  0.7818608E-02  0.8807080E-01
         -3   -1    0    0    0  501 -0.00000000000E+00  0.00000000000E+00  0.11755688565E+04  0.11755688609E+04  0.10100000000E+00 0. -1.
          3   -1    0    0  501    0  0.00000000000E+00 -0.00000000000E+00 -0.55956600718E+03  0.55956601630E+03  0.10100000000E+00 0.  1.
     200001    2    1    2    0    0 -0.17684539874E+03 -0.44201167643E+02  0.70056532434E+03  0.10068637392E+04  0.69982481901E+03 0.  0.
    5000001    2    3    3    0    0 -0.12292941092E+02 -0.42777293445E+02  0.41491526742E+02  0.16338415470E+03  0.15163054435E+03 0.  0.
        -13    1    4    4    0    0 -0.16063245775E+02 -0.71931000653E+01 -0.54157385685E+02  0.56945606868E+02  0.10566000000E+00 0. -1.
     200003    1    4    4    0    0  0.37703046827E+01 -0.35584193379E+02  0.95648912427E+02  0.10643854783E+03  0.30000000000E+02 0. -1.
     200000    1    3    3    0    0 -0.16455245765E+03 -0.14238741989E+01  0.65907379760E+03  0.84347958447E+03  0.50000000000E+03 0. -1.
    -200001    1    1    2    0    0  0.17684539874E+03  0.44201167643E+02 -0.84562474983E+02  0.72827113801E+03  0.70000000000E+03 0.  1.
<mgrwt>
<rscale>  0 0.16221077E+04</rscale>
<asrwt>0</asrwt>
<pdfrwt beam="1">  1        3 0.79938003E-01 0.16221077E+04</pdfrwt>
<pdfrwt beam="2">  1       -3 0.16793841E+00 0.16221077E+04</pdfrwt>
<totfact> 0.87850678E-01</totfact>
</mgrwt>
</event>
<event>
 8    1  0.1714417E-029  0.2877013E+04  0.7818608E-02  0.8279750E-01
         -3   -1    0    0    0  501 -0.00000000000E+00  0.00000000000E+00  0.14710010515E+04  0.14710010550E+04  0.10100000000E+00 0. -1.
          3   -1    0    0  501    0  0.00000000000E+00 -0.00000000000E+00 -0.14067294032E+04  0.14067294068E+04  0.10100000000E+00 0.  1.
     200001    2    1    2    0    0 -0.42507431328E+03  0.11637582157E+04  0.24208636951E+03  0.14436316397E+04  0.70031788815E+03 0.  0.
    5000001    2    3    3    0    0 -0.16226385510E+02  0.40080607094E+03  0.36640751291E+02  0.42311191659E+03  0.12950809712E+03 0.  0.
        -13    1    4    4    0    0 -0.28084831197E+02  0.94276635236E+02 -0.38874658352E+02  0.10577377709E+03  0.10566000000E+00 0. -1.
     200003    1    4    4    0    0  0.11858445687E+02  0.30652943570E+03  0.75515409643E+02  0.31733813950E+03  0.30000000000E+02 0. -1.
     200000    1    3    3    0    0 -0.40884792777E+03  0.76295214477E+03  0.20544561822E+03  0.10205197231E+04  0.50000000000E+03 0.  1.
    -200001    1    1    2    0    0  0.42507431328E+03 -0.11637582157E+04 -0.17781472118E+03  0.14340988221E+04  0.70000000000E+03 0. -1.
<mgrwt>
<rscale>  0 0.28770126E+04</rscale>
<asrwt>0</asrwt>
<pdfrwt beam="1">  1        3 0.20096134E+00 0.28770126E+04</pdfrwt>
<pdfrwt beam="2">  1       -3 0.21014301E+00 0.28770126E+04</pdfrwt>
<totfact> 0.41712530E-02</totfact>
</mgrwt>
</event>
<event>
 8    1  0.1714417E-029  0.1607759E+04  0.7818608E-02  0.8815795E-01
         -3   -1    0    0    0  501 -0.00000000000E+00  0.00000000000E+00  0.21292711501E+03  0.21292713896E+03  0.10100000000E+00 0. -1.
          3   -1    0    0  501    0  0.00000000000E+00 -0.00000000000E+00 -0.30349469208E+04  0.30349469225E+04  0.10100000000E+00 0.  1.
     200001    2    1    2    0    0 -0.33938168509E+01 -0.35229289538E+03 -0.10468299013E+04  0.13074047885E+04  0.69952314949E+03 0.  0.
    5000001    2    3    3    0    0 -0.83043300079E+01 -0.14199111089E+03 -0.39974101326E+03  0.46302632911E+03  0.18539165650E+03 0.  0.
        -13    1    4    4    0    0  0.47173491969E+02 -0.10353782213E+03 -0.36322010167E+03  0.38062353103E+03  0.10566000000E+00 0. -1.
     200003    1    4    4    0    0 -0.55477821976E+02 -0.38453288756E+02 -0.36520911590E+02  0.82402798076E+02  0.30000000000E+02 0. -1.
     200000    1    3    3    0    0  0.49105131570E+01 -0.21030178449E+03 -0.64708888804E+03  0.84437845941E+03  0.50000000000E+03 0. -1.
    -200001    1    1    2    0    0  0.33938168509E+01  0.35229289538E+03 -0.17751899045E+04  0.19404692730E+04  0.70000000000E+03 0. -1.
<mgrwt>
<rscale>  0 0.16077594E+04</rscale>
<asrwt>0</asrwt>
<pdfrwt beam="1">  1        3 0.43356382E+00 0.16077594E+04</pdfrwt>
<pdfrwt beam="2">  1       -3 0.30418163E-01 0.16077594E+04</pdfrwt>
<totfact> 0.19952178E-01</totfact>
</mgrwt>
</event>
<event>
 8    1  0.1714417E-029  0.1477630E+04  0.7818608E-02  0.8899466E-01
          3   -1    0    0  501    0  0.00000000000E+00  0.00000000000E+00  0.18930699212E+03  0.18930701906E+03  0.10100000000E+00 0. -1.
         -3   -1    0    0    0  501 -0.00000000000E+00 -0.00000000000E+00 -0.28833987225E+04  0.28833987243E+04  0.10100000000E+00 0.  1.
     200001    2    1    2    0    0 -0.11729690807E+03 -0.19980725640E+03 -0.14409167547E+04  0.16187012646E+04  0.70019367738E+03 0.  0.
    5000001    2    3    3    0    0 -0.74306978003E+02 -0.96423224231E+01 -0.29804472945E+03  0.35609788183E+03  0.17989035363E+03 0.  0.
        -13    1    4    4    0    0  0.56885249059E+01  0.75401370495E+01  0.22243245126E+02  0.24165804354E+02  0.10566000000E+00 0. -1.
     200003    1    4    4    0    0 -0.79995502909E+02 -0.17182459473E+02 -0.32028797458E+03  0.33193207748E+03  0.30000000000E+02 0. -1.
     200000    1    3    3    0    0 -0.42989930067E+02 -0.19016493398E+03 -0.11428720252E+04  0.12626033828E+04  0.50000000000E+03 0.  1.
    -200001    1    1    2    0    0  0.11729690807E+03  0.19980725640E+03 -0.12531749757E+04  0.14540044787E+04  0.70000000000E+03 0. -1.
<mgrwt>
<rscale>  0 0.14776300E+04</rscale>
<asrwt>0</asrwt>
<pdfrwt beam="1">  1        3 0.27043860E-01 0.14776300E+04</pdfrwt>
<pdfrwt beam="2">  1       -3 0.41191408E+00 0.14776300E+04</pdfrwt>
<totfact> 0.30921724E-01</totfact>
</mgrwt>
</event>
<event>
 8    1  0.1714417E-029  0.1596797E+04  0.7818608E-02  0.8822518E-01
          3   -1    0    0  501    0  0.00000000000E+00  0.00000000000E+00  0.37738405936E+03  0.37738407287E+03  0.10100000000E+00 0. -1.
         -3   -1    0    0    0  501 -0.00000000000E+00 -0.00000000000E+00 -0.16891029452E+04  0.16891029482E+04  0.10100000000E+00 0.  1.
     200001    2    1    2    0    0  0.52105329611E+02 -0.35240860638E+03 -0.84555129753E+03  0.11531311148E+04  0.69846086495E+03 0.  0.
    5000001    2    3    3    0    0  0.18804349615E+02 -0.18850414856E+03 -0.31568293462E+03  0.40564592524E+03  0.17030996407E+03 0.  0.
        -13    1    4    4    0    0 -0.22929345027E+01 -0.12201940615E+03 -0.54513275167E+02  0.13366264011E+03  0.10566000000E+00 0. -1.
     200003    1    4    4    0    0  0.21097284118E+02 -0.66484742404E+02 -0.26116965946E+03  0.27198328513E+03  0.30000000000E+02 0. -1.
     200000    1    3    3    0    0  0.33300979996E+02 -0.16390445782E+03 -0.52986836290E+03  0.74748518953E+03  0.50000000000E+03 0.  1.
    -200001    1    1    2    0    0 -0.52105329611E+02  0.35240860638E+03 -0.46616758831E+03  0.91335590633E+03  0.70000000000E+03 0.  1.
<mgrwt>
<rscale>  0 0.15967975E+04</rscale>
<asrwt>0</asrwt>
<pdfrwt beam="1">  1        3 0.53912010E-01 0.15967975E+04</pdfrwt>
<pdfrwt beam="2">  1       -3 0.24130042E+00 0.15967975E+04</pdfrwt>
<totfact> 0.70574001E-01</totfact>
</mgrwt>
</event>
<event>
 8    1  0.1714417E-029  0.1776908E+04  0.7818608E-02  0.8718677E-01
         -3   -1    0    0    0  501 -0.00000000000E+00  0.00000000000E+00  0.74919647568E+03  0.74919648249E+03  0.10100000000E+00 0. -1.
          3   -1    0    0  501    0  0.00000000000E+00 -0.00000000000E+00 -0.10535955458E+04  0.10535955506E+04  0.10100000000E+00 0.  1.
     200001    2    1    2    0    0  0.10808195957E+03 -0.63850437687E+02  0.38850337009E+03  0.80988096962E+03  0.69943815166E+03 0.  0.
    5000001    2    3    3    0    0  0.11609087028E+02 -0.63374393246E+02  0.23675237084E+02  0.18345714473E+03  0.17013207364E+03 0.  0.
        -13    1    4    4    0    0 -0.61144939689E+02 -0.75821443301E+02  0.33886797498E+02  0.10313060226E+03  0.10566000000E+00 0. -1.
     200003    1    4    4    0    0  0.72754026718E+02  0.12447050055E+02 -0.10211560414E+02  0.80326542468E+02  0.30000000000E+02 0. -1.
     200000    1    3    3    0    0  0.96472872540E+02 -0.47604444003E+00  0.36482813301E+03  0.62642382489E+03  0.50000000000E+03 0. -1.
    -200001    1    1    2    0    0 -0.10808195957E+03  0.63850437687E+02 -0.69290244020E+03  0.99291106350E+03  0.70000000000E+03 0.  1.
<mgrwt>
<rscale>  0 0.17769075E+04</rscale>
<asrwt>0</asrwt>
<pdfrwt beam="1">  1        3 0.15051365E+00 0.17769075E+04</pdfrwt>
<pdfrwt beam="2">  1       -3 0.10702807E+00 0.17769075E+04</pdfrwt>
<totfact> 0.59469223E-01</totfact>
</mgrwt>
</event>
<event>
 8    1  0.1714417E-029  0.1584871E+04  0.7818608E-02  0.8829897E-01
         -3   -1    0    0    0  501 -0.00000000000E+00  0.00000000000E+00  0.72443087705E+03  0.72443088409E+03  0.10100000000E+00 0. -1.
          3   -1    0    0  501    0  0.00000000000E+00 -0.00000000000E+00 -0.86682362011E+03  0.86682362600E+03  0.10100000000E+00 0.  1.
     200001    2    1    2    0    0  0.10232095192E+01  0.14315167759E+03 -0.41538554744E+03  0.82638947559E+03  0.69991496811E+03 0.  0.
    5000001    2    3    3    0    0  0.10097286367E+02  0.23503853725E+02 -0.11920818473E+03  0.23299334246E+03  0.19854702212E+03 0.  0.
        -13    1    4    4    0    0  0.12542419933E+01  0.16835095596E+02  0.54144651366E+02  0.56715500547E+02  0.10566000000E+00 0. -1.
     200003    1    4    4    0    0  0.88430443742E+01  0.66687581286E+01 -0.17335283609E+03  0.17627784192E+03  0.30000000000E+02 0. -1.
     200000    1    3    3    0    0 -0.90740768483E+01  0.11964782386E+03 -0.29617736272E+03  0.59339613313E+03  0.50000000000E+03 0.  1.
    -200001    1    1    2    0    0 -0.10232095192E+01 -0.14315167759E+03  0.27299280438E+03  0.76486503450E+03  0.70000000000E+03 0. -1.
<mgrwt>
<rscale>  0 0.15848707E+04</rscale>
<asrwt>0</asrwt>
<pdfrwt beam="1">  1        3 0.12383195E+00 0.15848707E+04</pdfrwt>
<pdfrwt beam="2">  1       -3 0.10349013E+00 0.15848707E+04</pdfrwt>
<totfact> 0.10693545E+00</totfact>
</mgrwt>
</event>
<event>
 8    1  0.1714417E-029  0.1431224E+04  0.7818608E-02  0.8931522E-01
          3   -1    0    0  501    0  0.00000000000E+00  0.00000000000E+00  0.62664634485E+03  0.62664635299E+03  0.10100000000E+00 0. -1.
         -3   -1    0    0    0  501 -0.00000000000E+00 -0.00000000000E+00 -0.81720814500E+03  0.81720815124E+03  0.10100000000E+00 0.  1.
     200001    2    1    2    0    0 -0.12656059323E+03 -0.71184785584E+02 -0.98607351922E+02  0.72306294074E+03  0.70143549166E+03 0.  0.
    5000001    2    3    3    0    0  0.42944718634E+00 -0.26153406299E+02  0.38991154868E+02  0.18725733742E+03  0.18127552282E+03 0.  0.
        -13    1    4    4    0    0  0.55953777006E+02 -0.63803134167E+02  0.67499455342E+02  0.10843363282E+03  0.10566000000E+00 0. -1.
     200003    1    4    4    0    0 -0.55524329819E+02  0.37649727868E+02 -0.28508300474E+02  0.78823704597E+02  0.30000000000E+02 0. -1.
     200000    1    3    3    0    0 -0.12699004041E+03 -0.45031379285E+02 -0.13759850679E+03  0.53580560333E+03  0.50000000000E+03 0. -1.
    -200001    1    1    2    0    0  0.12656059323E+03  0.71184785584E+02 -0.91954448225E+02  0.72079156349E+03  0.70000000000E+03 0.  1.
<mgrwt>
<rscale>  0 0.14312240E+04</rscale>
<asrwt>0</asrwt>
<pdfrwt beam="1">  1        3 0.89520908E-01 0.14312240E+04</pdfrwt>
<pdfrwt beam="2">  1       -3 0.11674402E+00 0.14312240E+04</pdfrwt>
<totfact> 0.17464475E+00</totfact>
</mgrwt>
</event>
<event>
 8    1  0.1714417E-029  0.1593494E+04  0.7818608E-02  0.8824555E-01
         -3   -1    0    0    0  501 -0.00000000000E+00  0.00000000000E+00  0.15496658409E+04  0.15496658442E+04  0.10100000000E+00 0. -1.
          3   -1    0    0  501    0  0.00000000000E+00 -0.00000000000E+00 -0.40964044397E+03  0.40964045642E+03  0.10100000000E+00 0.  1.
     200001    2    1    2    0    0 -0.34101118616E+03 -0.90540967682E+02  0.74535276514E+03  0.10816658377E+04  0.69997424521E+03 0.  0.
    5000001    2    3    3    0    0 -0.19926512570E+03  0.99382639631E+01  0.17566869255E+03  0.30402326926E+03  0.14753067239E+03 0.  0.
        -13    1    4    4    0    0 -0.20511566960E+03  0.22734635870E+02  0.11857656532E+03  0.23801200514E+03  0.10566000000E+00 0. -1.
     200003    1    4    4    0    0  0.58505439077E+01 -0.12796371907E+02  0.57092127230E+02  0.66011264112E+02  0.30000000000E+02 0. -1.
     200000    1    3    3    0    0 -0.14174606047E+03 -0.10047923164E+03  0.56968407258E+03  0.77764256841E+03  0.50000000000E+03 0.  1.
    -200001    1    1    2    0    0  0.34101118616E+03  0.90540967682E+02  0.39467263181E+03  0.87764046296E+03  0.70000000000E+03 0.  1.
<mgrwt>
<rscale>  0 0.15934940E+04</rscale>
<asrwt>0</asrwt>
<pdfrwt beam="1">  1        3 0.58520065E-01 0.15934940E+04</pdfrwt>
<pdfrwt beam="2">  1       -3 0.22138083E+00 0.15934940E+04</pdfrwt>
<totfact> 0.78117132E-01</totfact>
</mgrwt>
</event>
<event>
 8    1  0.1714417E-029  0.1474612E+04  0.7818608E-02  0.8901513E-01
         -3   -1    0    0    0  501 -0.00000000000E+00  0.00000000000E+00  0.10825770266E+04  0.10825770313E+04  0.10100000000E+00 0. -1.
          3   -1    0    0  501    0  0.00000000000E+00 -0.00000000000E+00 -0.50215390820E+03  0.50215391835E+03  0.10100000000E+00 0.  1.
     200001    2    1    2    0    0  0.11648107274E+03  0.30040280848E+01  0.50593358151E+03  0.87120060304E+03  0.69960334286E+03 0.  0.
    5000001    2    3    3    0    0  0.67273712411E+02 -0.46731613956E+02  0.57486503188E+02  0.19592304495E+03  0.16843855072E+03 0.  0.
        -13    1    4    4    0    0  0.65660379338E+02 -0.81893504925E+01  0.10735059494E+03  0.12610516355E+03  0.10566000000E+00 0. -1.
     200003    1    4    4    0    0  0.16133330723E+01 -0.38542263464E+02 -0.49864091752E+02  0.69817881397E+02  0.30000000000E+02 0. -1.
     200000    1    3    3    0    0  0.49207360333E+02  0.49735642041E+02  0.44844707832E+03  0.67527755809E+03  0.50000000000E+03 0. -1.
    -200001    1    1    2    0    0 -0.11648107274E+03 -0.30040280848E+01  0.74489536920E+02  0.71353034666E+03  0.70000000000E+03 0.  1.
<mgrwt>
<rscale>  0 0.14746122E+04</rscale>
<asrwt>0</asrwt>
<pdfrwt beam="1">  1        3 0.71736274E-01 0.14746122E+04</pdfrwt>
<pdfrwt beam="2">  1       -3 0.15465386E+00 0.14746122E+04</pdfrwt>
<totfact> 0.14049639E+00</totfact>
</mgrwt>
</event>
<event>
 8    1  0.1714417E-029  0.1743890E+04  0.7818608E-02  0.8736721E-01
          3   -1    0    0  501    0  0.00000000000E+00  0.00000000000E+00  0.31435578458E+03  0.31435580081E+03  0.10100000000E+00 0.  1.
         -3   -1    0    0    0  501 -0.00000000000E+00 -0.00000000000E+00 -0.24185587641E+04  0.24185587662E+04  0.10100000000E+00 0. -1.
     200001    2    1    2    0    0  0.47354965596E+03 -0.21353922065E+03 -0.10552624298E+04  0.13690507350E+04  0.70062318252E+03 0.  0.
    5000001    2    3    3    0    0  0.53276796887E+02 -0.64872193689E+02 -0.19644989328E+03  0.27988126525E+03  0.18081521913E+03 0.  0.
        -13    1    4    4    0    0  0.11647658834E+03 -0.49159069951E+02 -0.11013296191E+03  0.16766839372E+03  0.10566000000E+00 0. -1.
     200003    1    4    4    0    0 -0.63199791448E+02 -0.15713123738E+02 -0.86316931369E+02  0.11221287153E+03  0.30000000000E+02 0. -1.
     200000    1    3    3    0    0  0.42027285907E+03 -0.14866702696E+03 -0.85881253655E+03  0.10891694698E+04  0.50000000000E+03 0. -1.
    -200001    1    1    2    0    0 -0.47354965596E+03  0.21353922065E+03 -0.10489405497E+04  0.13638638320E+04  0.70000000000E+03 0.  1.
<mgrwt>
<rscale>  0 0.17438899E+04</rscale>
<asrwt>0</asrwt>
<pdfrwt beam="1">  1        3 0.44907972E-01 0.17438899E+04</pdfrwt>
<pdfrwt beam="2">  1       -3 0.34550839E+00 0.17438899E+04</pdfrwt>
<totfact> 0.26206714E-01</totfact>
</mgrwt>
</event>
<event>
 8    1  0.1714417E-029  0.1802571E+04  0.7818608E-02  0.8704934E-01
         -3   -1    0    0    0  501 -0.00000000000E+00  0.00000000000E+00  0.17344117653E+04  0.17344117683E+04  0.10100000000E+00 0. -1.
          3   -1    0    0  501    0  0.00000000000E+00 -0.00000000000E+00 -0.46835207078E+03  0.46835208167E+03  0.10100000000E+00 0.  1.
     200001    2    1    2    0    0  0.37890724431E+02 -0.46535149798E+03  0.10273093403E+04  0.13281270937E+04  0.70040657672E+03 0.  0.
    5000001    2    3    3    0    0  0.17041140515E+02 -0.14028292120E+03  0.27219711104E+03  0.36568293246E+03  0.19915582186E+03 0.  0.
        -13    1    4    4    0    0 -0.65993926005E+02 -0.88138436562E+02  0.22962541086E+03  0.25465942501E+03  0.10566000000E+00 0. -1.
     200003    1    4    4    0    0  0.83035066520E+02 -0.52144484641E+02  0.42571700188E+02  0.11102350745E+03  0.30000000000E+02 0. -1.
     200000    1    3    3    0    0  0.20849583915E+02 -0.32506857678E+03  0.75511222927E+03  0.96244416126E+03  0.50000000000E+03 0. -1.
    -200001    1    1    2    0    0 -0.37890724431E+02  0.46535149798E+03  0.23875035422E+03  0.87463675621E+03  0.70000000000E+03 0.  1.
<mgrwt>
<rscale>  0 0.18025708E+04</rscale>
<asrwt>0</asrwt>
<pdfrwt beam="1">  1        3 0.66907440E-01 0.18025708E+04</pdfrwt>
<pdfrwt beam="2">  1       -3 0.24777311E+00 0.18025708E+04</pdfrwt>
<totfact> 0.40312934E-01</totfact>
</mgrwt>
</event>
<event>
 8    1  0.1714417E-029  0.1690898E+04  0.7818608E-02  0.8766573E-01
          3   -1    0    0  501    0  0.00000000000E+00  0.00000000000E+00  0.42437397050E+03  0.42437398252E+03  0.10100000000E+00 0. -1.
         -3   -1    0    0    0  501 -0.00000000000E+00 -0.00000000000E+00 -0.16843255925E+04  0.16843255955E+04  0.10100000000E+00 0.  1.
     200001    2    1    2    0    0 -0.37426929241E+03  0.42805412577E+02 -0.27071472262E+03  0.83964502852E+03  0.69986249098E+03 0.  0.
    5000001    2    3    3    0    0 -0.14394727498E+03 -0.38841644912E+02 -0.11014782050E+03  0.26042468722E+03  0.18291797069E+03 0.  0.
        -13    1    4    4    0    0 -0.21821202657E+02 -0.62633705402E+02  0.28095493390E+02  0.72031339364E+02  0.10566000000E+00 0. -1.
     200003    1    4    4    0    0 -0.12212607232E+03  0.23792060490E+02 -0.13824331389E+03  0.18839334786E+03  0.30000000000E+02 0. -1.
     200000    1    3    3    0    0 -0.23032201744E+03  0.81647057489E+02 -0.16056690212E+03  0.57922034129E+03  0.50000000000E+03 0. -1.
    -200001    1    1    2    0    0  0.37426929241E+03 -0.42805412577E+02 -0.98923689939E+03  0.12690545495E+04  0.70000000000E+03 0.  1.
<mgrwt>
<rscale>  0 0.16908979E+04</rscale>
<asrwt>0</asrwt>
<pdfrwt beam="1">  1        3 0.60624855E-01 0.16908979E+04</pdfrwt>
<pdfrwt beam="2">  1       -3 0.24061794E+00 0.16908979E+04</pdfrwt>
<totfact> 0.55282903E-01</totfact>
</mgrwt>
</event>
<event>
 8    1  0.1714417E-029  0.1530693E+04  0.7818608E-02  0.8864295E-01
          3   -1    0    0  501    0  0.00000000000E+00  0.00000000000E+00  0.40112058889E+03  0.40112060160E+03  0.10100000000E+00 0. -1.
         -3   -1    0    0    0  501 -0.00000000000E+00 -0.00000000000E+00 -0.14602966726E+04  0.14602966761E+04  0.10100000000E+00 0.  1.
     200001    2    1    2    0    0 -0.26519200855E+03 -0.13348152390E+03 -0.63731711178E+03  0.99187193049E+03  0.69963755396E+03 0.  0.
    5000001    2    3    3    0    0 -0.84889073301E+00 -0.97443461190E+02 -0.22164155413E+03  0.28904748931E+03  0.15788452683E+03 0.  0.
        -13    1    4    4    0    0 -0.29366610560E+02 -0.13667874006E+02 -0.18637816713E+03  0.18917198773E+03  0.10566000000E+00 0. -1.
     200003    1    4    4    0    0  0.28517719827E+02 -0.83775587184E+02 -0.35263386999E+02  0.99875501575E+02  0.30000000000E+02 0. -1.
     200000    1    3    3    0    0 -0.26434311782E+03 -0.36038062707E+02 -0.41567555765E+03  0.70282444118E+03  0.50000000000E+03 0. -1.
    -200001    1    1    2    0    0  0.26519200855E+03  0.13348152390E+03 -0.42185897192E+03  0.86954534718E+03  0.70000000000E+03 0. -1.
<mgrwt>
<rscale>  0 0.15306928E+04</rscale>
<asrwt>0</asrwt>
<pdfrwt beam="1">  1        3 0.57302943E-01 0.15306928E+04</pdfrwt>
<pdfrwt beam="2">  1       -3 0.20861381E+00 0.15306928E+04</pdfrwt>
<totfact> 0.98215870E-01</totfact>
</mgrwt>
</event>
<event>
 8    1  0.1714417E-029  0.1562472E+04  0.7818608E-02  0.8843941E-01
          3   -1    0    0  501    0  0.00000000000E+00  0.00000000000E+00  0.16926025231E+04  0.16926025261E+04  0.10100000000E+00 0.  1.
         -3   -1    0    0    0  501 -0.00000000000E+00 -0.00000000000E+00 -0.36058637401E+03  0.36058638816E+03  0.10100000000E+00 0. -1.
     200001    2    1    2    0    0 -0.17870853445E+03 -0.12770013673E+03  0.10189377428E+04  0.12555284892E+04  0.69990970729E+03 0.  0.
    5000001    2    3    3    0    0  0.35746570712E+02 -0.40662194129E+02  0.21841311511E+03  0.28372281158E+03  0.17280947198E+03 0.  0.
        -13    1    4    4    0    0  0.50191709343E+02  0.27276768876E+02  0.19696553442E+03  0.20508208776E+03  0.10566000000E+00 0. -1.
     200003    1    4    4    0    0 -0.14445138631E+02 -0.67938963006E+02  0.21447580687E+02  0.78640723812E+02  0.30000000000E+02 0. -1.
     200000    1    3    3    0    0 -0.21445510516E+03 -0.87037942597E+02  0.80052462764E+03  0.97180567761E+03  0.50000000000E+03 0.  1.
    -200001    1    1    2    0    0  0.17870853445E+03  0.12770013673E+03  0.31307840631E+03  0.79766042506E+03  0.70000000000E+03 0. -1.
<mgrwt>
<rscale>  0 0.15624717E+04</rscale>
<asrwt>0</asrwt>
<pdfrwt beam="1">  1        3 0.24180036E+00 0.15624717E+04</pdfrwt>
<pdfrwt beam="2">  1       -3 0.51512340E-01 0.15624717E+04</pdfrwt>
<totfact> 0.77981689E-01</totfact>
</mgrwt>
</event>
<event>
 8    1  0.1714417E-029  0.1524609E+04  0.7818608E-02  0.8868251E-01
         -3   -1    0    0    0  501 -0.00000000000E+00  0.00000000000E+00  0.59308303051E+03  0.59308303911E+03  0.10100000000E+00 0. -1.
          3   -1    0    0  501    0  0.00000000000E+00 -0.00000000000E+00 -0.97980876358E+03  0.97980876879E+03  0.10100000000E+00 0.  1.
     200001    2    1    2    0    0 -0.42843579903E+02 -0.29287510976E+03 -0.12754054751E+03  0.76990465814E+03  0.69919610205E+03 0.  0.
    5000001    2    3    3    0    0 -0.30201578477E+02 -0.24830821967E+02  0.60427140890E+02  0.17212592626E+03  0.15635597229E+03 0.  0.
        -13    1    4    4    0    0 -0.89404331470E+01 -0.85930660646E+02  0.50652460877E+02  0.10014835366E+03  0.10566000000E+00 0. -1.
     200003    1    4    4    0    0 -0.21261145330E+02  0.61099838679E+02  0.97746800124E+01  0.71977572595E+02  0.30000000000E+02 0. -1.
     200000    1    3    3    0    0 -0.12642001425E+02 -0.26804428779E+03 -0.18796768840E+03  0.59777873189E+03  0.50000000000E+03 0.  1.
    -200001    1    1    2    0    0  0.42843579903E+02  0.29287510976E+03 -0.25918518557E+03  0.80298714975E+03  0.70000000000E+03 0.  1.
<mgrwt>
<rscale>  0 0.15246088E+04</rscale>
<asrwt>0</asrwt>
<pdfrwt beam="1">  1        3 0.13997268E+00 0.15246088E+04</pdfrwt>
<pdfrwt beam="2">  1       -3 0.84726149E-01 0.15246088E+04</pdfrwt>
<totfact> 0.12551193E+00</totfact>
</mgrwt>
</event>
<event>
 8    1  0.1714417E-029  0.2517775E+04  0.7818608E-02  0.8396680E-01
         -3   -1    0    0    0  501 -0.00000000000E+00  0.00000000000E+00  0.72965349941E+03  0.72965350640E+03  0.10100000000E+00 0. -1.
          3   -1    0    0  501    0  0.00000000000E+00 -0.00000000000E+00 -0.21719865805E+04  0.21719865829E+04  0.10100000000E+00 0.  1.
     200001    2    1    2    0    0 -0.93960504975E+03 -0.52496397473E+02 -0.19425632531E+03  0.11889494839E+04  0.70017985843E+03 0.  0.
    5000001    2    3    3    0    0 -0.18344968114E+03 -0.54132682891E+02 -0.76537628135E+02  0.27482076729E+03  0.18189093641E+03 0.  0.
        -13    1    4    4    0    0 -0.71252767003E+01  0.34629413775E+02  0.31886250360E+02  0.47609977867E+02  0.10566000000E+00 0. -1.
     200003    1    4    4    0    0 -0.17632440443E+03 -0.88762096666E+02 -0.10842387849E+03  0.22721078943E+03  0.30000000000E+02 0. -1.
     200000    1    3    3    0    0 -0.75615536862E+03  0.16362854182E+01 -0.11771869718E+03  0.91412871664E+03  0.50000000000E+03 0. -1.
    -200001    1    1    2    0    0  0.93960504975E+03  0.52496397473E+02 -0.12480767558E+04  0.17126906053E+04  0.70000000000E+03 0.  1.
<mgrwt>
<rscale>  0 0.25177749E+04</rscale>
<asrwt>0</asrwt>
<pdfrwt beam="1">  1        3 0.31028379E+00 0.25177749E+04</pdfrwt>
<pdfrwt beam="2">  1       -3 0.10423622E+00 0.25177749E+04</pdfrwt>
<totfact> 0.62981022E-02</totfact>
</mgrwt>
</event>
<event>
 8    1  0.1714417E-029  0.1756444E+04  0.7818608E-02  0.8729811E-01
         -3   -1    0    0    0  501 -0.00000000000E+00  0.00000000000E+00  0.91699109930E+03  0.91699110487E+03  0.10100000000E+00 0. -1.
          3   -1    0    0  501    0  0.00000000000E+00 -0.00000000000E+00 -0.84109175196E+03  0.84109175802E+03  0.10100000000E+00 0.  1.
     200001    2    1    2    0    0 -0.45261052613E+03 -0.16031943050E+03 -0.18693151272E+03  0.86946670888E+03  0.70033589031E+03 0.  0.
    5000001    2    3    3    0    0 -0.11194173360E+03 -0.26826751579E+02 -0.67455153192E+02  0.23847532858E+03  0.19766046223E+03 0.  0.
        -13    1    4    4    0    0  0.46429716577E+02 -0.46246966470E+02 -0.10198368523E+02  0.66321326688E+02  0.10566000000E+00 0. -1.
     200003    1    4    4    0    0 -0.15837145018E+03  0.19420214891E+02 -0.57256784668E+02  0.17215400189E+03  0.30000000000E+02 0. -1.
     200000    1    3    3    0    0 -0.34066879252E+03 -0.13349267892E+03 -0.11947635953E+03  0.63099138030E+03  0.50000000000E+03 0.  1.
    -200001    1    1    2    0    0  0.45261052613E+03  0.16031943050E+03  0.26283086007E+03  0.88861615401E+03  0.70000000000E+03 0. -1.
<mgrwt>
<rscale>  0 0.17564437E+04</rscale>
<asrwt>0</asrwt>
<pdfrwt beam="1">  1        3 0.12015597E+00 0.17564437E+04</pdfrwt>
<pdfrwt beam="2">  1       -3 0.13099873E+00 0.17564437E+04</pdfrwt>
<totfact> 0.64167377E-01</totfact>
</mgrwt>
</event>
<event>
 8    1  0.1714417E-029  0.1577728E+04  0.7818608E-02  0.8834349E-01
          3   -1    0    0  501    0  0.00000000000E+00  0.00000000000E+00  0.67016845665E+03  0.67016846426E+03  0.10100000000E+00 0.  1.
         -3   -1    0    0    0  501 -0.00000000000E+00 -0.00000000000E+00 -0.92858213755E+03  0.92858214305E+03  0.10100000000E+00 0. -1.
     200001    2    1    2    0    0  0.18573537707E+03 -0.10429065579E+03  0.15761835687E+03  0.75705183242E+03  0.70916130702E+03 0.  0.
    5000001    2    3    3    0    0  0.79193862207E+02 -0.83778400472E+02  0.56110264696E+01  0.22331212479E+03  0.19117095298E+03 0.  0.
        -13    1    4    4    0    0 -0.61858598352E+02 -0.27067177157E+02  0.10193620830E+02  0.68286450625E+02  0.10566000000E+00 0. -1.
     200003    1    4    4    0    0  0.14105246056E+03 -0.56711223315E+02 -0.45825943600E+01  0.15502567417E+03  0.30000000000E+02 0. -1.
     200000    1    3    3    0    0  0.10654151486E+03 -0.20512255320E+02  0.15200733040E+03  0.53373970763E+03  0.50000000000E+03 0.  1.
    -200001    1    1    2    0    0 -0.18573537707E+03  0.10429065579E+03 -0.41603203778E+03  0.84169877488E+03  0.70000000000E+03 0. -1.
<mgrwt>
<rscale>  0 0.15777281E+04</rscale>
<asrwt>0</asrwt>
<pdfrwt beam="1">  1        3 0.95738352E-01 0.15777281E+04</pdfrwt>
<pdfrwt beam="2">  1       -3 0.13265459E+00 0.15777281E+04</pdfrwt>
<totfact> 0.10809114E+00</totfact>
</mgrwt>
</event>
<event>
 8    1  0.1714417E-029  0.2103593E+04  0.7818608E-02  0.8559662E-01
         -3   -1    0    0    0  501 -0.00000000000E+00  0.00000000000E+00  0.27741090022E+03  0.27741091861E+03  0.10100000000E+00 0. -1.
          3   -1    0    0  501    0  0.00000000000E+00 -0.00000000000E+00 -0.39878599391E+04  0.39878599404E+04  0.10100000000E+00 0.  1.
     200001    2    1    2    0    0  0.74766094256E+03  0.14623060653E+03 -0.22318792701E+04  0.24606798149E+04  0.70233880695E+03 0.  0.
    5000001    2    3    3    0    0  0.28816560766E+03  0.50361616537E+02 -0.75923234093E+03  0.83617502756E+03  0.19281913635E+03 0.  0.
        -13    1    4    4    0    0 -0.14692135264E+02  0.42743598952E+02 -0.11747212932E+03  0.12586733659E+03  0.10566000000E+00 0. -1.
     200003    1    4    4    0    0  0.30285774292E+03  0.76180175847E+01 -0.64176021161E+03  0.71030769097E+03  0.30000000000E+02 0. -1.
     200000    1    3    3    0    0  0.45949533490E+03  0.95868989998E+02 -0.14726469291E+04  0.16245047873E+04  0.50000000000E+03 0.  1.
    -200001    1    1    2    0    0 -0.74766094256E+03 -0.14623060653E+03 -0.14785697688E+04  0.18045910441E+04  0.70000000000E+03 0. -1.
<mgrwt>
<rscale>  0 0.21035930E+04</rscale>
<asrwt>0</asrwt>
<pdfrwt beam="1">  1        3 0.56969424E+00 0.21035930E+04</pdfrwt>
<pdfrwt beam="2">  1       -3 0.39630132E-01 0.21035930E+04</pdfrwt>
<totfact> 0.24362553E-02</totfact>
</mgrwt>
</event>
<event>
 8    1  0.1714417E-029  0.1656742E+04  0.7818608E-02  0.8786428E-01
          3   -1    0    0  501    0  0.00000000000E+00  0.00000000000E+00  0.18330144507E+04  0.18330144535E+04  0.10100000000E+00 0.  1.
         -3   -1    0    0    0  501 -0.00000000000E+00 -0.00000000000E+00 -0.37435524262E+03  0.37435525624E+03  0.10100000000E+00 0. -1.
     200001    2    1    2    0    0 -0.22356732177E+03  0.38409754168E+03  0.71769633947E+03  0.10953718493E+04  0.69802448648E+03 0.  0.
    5000001    2    3    3    0    0 -0.32193315217E+02  0.10993782260E+03  0.31102023282E+03  0.36930503582E+03  0.16287998612E+03 0.  0.
        -13    1    4    4    0    0 -0.57307002855E+02 -0.50035407527E+01  0.18739928080E+03  0.19602966511E+03  0.10566000000E+00 0. -1.
     200003    1    4    4    0    0  0.25113687638E+02  0.11494136336E+03  0.12362095202E+03  0.17327537071E+03  0.30000000000E+02 0. -1.
     200000    1    3    3    0    0 -0.19137400656E+03  0.27415971908E+03  0.40667610665E+03  0.72606681350E+03  0.50000000000E+03 0. -1.
    -200001    1    1    2    0    0  0.22356732177E+03 -0.38409754168E+03  0.74096286865E+03  0.11119978604E+04  0.70000000000E+03 0.  1.
<mgrwt>
<rscale>  0 0.16567421E+04</rscale>
<asrwt>0</asrwt>
<pdfrwt beam="1">  1        3 0.26185921E+00 0.16567421E+04</pdfrwt>
<pdfrwt beam="2">  1       -3 0.53479322E-01 0.16567421E+04</pdfrwt>
<totfact> 0.54967284E-01</totfact>
</mgrwt>
</event>
<event>
 8    1  0.1714417E-029  0.1967881E+04  0.7818608E-02  0.8621787E-01
         -3   -1    0    0    0  501 -0.00000000000E+00  0.00000000000E+00  0.85754133577E+03  0.85754134172E+03  0.10100000000E+00 0.  1.
          3   -1    0    0  501    0  0.00000000000E+00 -0.00000000000E+00 -0.11289700322E+04  0.11289700368E+04  0.10100000000E+00 0. -1.
     200001    2    1    2    0    0  0.17066486272E+03 -0.36985635075E+02 -0.81106555941E+03  0.10855661102E+04  0.70009428322E+03 0.  0.
    5000001    2    3    3    0    0  0.89831264769E+02 -0.79866700986E+02 -0.11220622029E+03  0.22140337539E+03  0.14825947763E+03 0.  0.
        -13    1    4    4    0    0 -0.12950848171E+02  0.28133673554E+02 -0.46191492537E+02  0.55613786086E+02  0.10566000000E+00 0. -1.
     200003    1    4    4    0    0  0.10278211294E+03 -0.10800037454E+03 -0.66014727752E+02  0.16578958930E+03  0.30000000000E+02 0. -1.
     200000    1    3    3    0    0  0.80833597954E+02  0.42881065910E+02 -0.69885933912E+03  0.86416273481E+03  0.50000000000E+03 0. -1.
    -200001    1    1    2    0    0 -0.17066486272E+03  0.36985635075E+02  0.53963686294E+03  0.90094526827E+03  0.70000000000E+03 0.  1.
<mgrwt>
<rscale>  0 0.19678806E+04</rscale>
<asrwt>0</asrwt>
<pdfrwt beam="1">  1        3 0.16128143E+00 0.19678806E+04</pdfrwt>
<pdfrwt beam="2">  1       -3 0.12250591E+00 0.19678806E+04</pdfrwt>
<totfact> 0.35266965E-01</totfact>
</mgrwt>
</event>
<event>
 8    1  0.1714417E-029  0.1984632E+04  0.7818608E-02  0.8613840E-01
          3   -1    0    0  501    0  0.00000000000E+00  0.00000000000E+00  0.48663277486E+03  0.48663278534E+03  0.10100000000E+00 0.  1.
         -3   -1    0    0    0  501 -0.00000000000E+00 -0.00000000000E+00 -0.20234783632E+04  0.20234783657E+04  0.10100000000E+00 0. -1.
     200001    2    1    2    0    0  0.64347325976E+03  0.27443167948E+03 -0.67630486313E+03  0.11986612197E+04  0.70002133464E+03 0.  0.
    5000001    2    3    3    0    0  0.24585115171E+03  0.56476438929E+02 -0.27073266568E+03  0.41119907137E+03  0.17932128449E+03 0.  0.
        -13    1    4    4    0    0  0.14082234814E+02  0.71661886283E+02 -0.86611608142E+02  0.11329305853E+03  0.10566000000E+00 0. -1.
     200003    1    4    4    0    0  0.23176891690E+03 -0.15185447354E+02 -0.18412105754E+03  0.29790601283E+03  0.30000000000E+02 0. -1.
     200000    1    3    3    0    0  0.39762210805E+03  0.21795524055E+03 -0.40557219745E+03  0.78746214832E+03  0.50000000000E+03 0.  1.
    -200001    1    1    2    0    0 -0.64347325976E+03 -0.27443167948E+03 -0.86054072517E+03  0.13114499313E+04  0.70000000000E+03 0. -1.
<mgrwt>
<rscale>  0 0.19846319E+04</rscale>
<asrwt>0</asrwt>
<pdfrwt beam="1">  1        3 0.69518970E-01 0.19846319E+04</pdfrwt>
<pdfrwt beam="2">  1       -3 0.28906833E+00 0.19846319E+04</pdfrwt>
<totfact> 0.21247589E-01</totfact>
</mgrwt>
</event>
<event>
 8    1  0.1714417E-029  0.2180110E+04  0.7818608E-02  0.8526753E-01
          3   -1    0    0  501    0  0.00000000000E+00  0.00000000000E+00  0.17725567838E+04  0.17725567867E+04  0.10100000000E+00 0.  1.
         -3   -1    0    0    0  501 -0.00000000000E+00 -0.00000000000E+00 -0.67034233752E+03  0.67034234512E+03  0.10100000000E+00 0. -1.
     200001    2    1    2    0    0 -0.39829183066E+03  0.57509404797E+03  0.39140014873E+02  0.99048844845E+03  0.70011847524E+03 0.  0.
    5000001    2    3    3    0    0 -0.10281880722E+03  0.26648260951E+02  0.45486799607E+02  0.19165344011E+03  0.15290570701E+03 0.  0.
        -13    1    4    4    0    0 -0.98625167154E+02  0.34526692171E+02 -0.31012209413E+02  0.10899901084E+03  0.10566000000E+00 0. -1.
     200003    1    4    4    0    0 -0.41936400662E+01 -0.78784312200E+01  0.76499009020E+02  0.82654429261E+02  0.30000000000E+02 0. -1.
     200000    1    3    3    0    0 -0.29547302344E+03  0.54844578702E+03 -0.63467847340E+01  0.79883500835E+03  0.50000000000E+03 0. -1.
    -200001    1    1    2    0    0  0.39829183066E+03 -0.57509404797E+03  0.10630744314E+04  0.14524106833E+04  0.70000000000E+03 0.  1.
<mgrwt>
<rscale>  0 0.21801100E+04</rscale>
<asrwt>0</asrwt>
<pdfrwt beam="1">  1        3 0.25322240E+00 0.21801100E+04</pdfrwt>
<pdfrwt beam="2">  1       -3 0.95763192E-01 0.21801100E+04</pdfrwt>
<totfact> 0.16484911E-01</totfact>
</mgrwt>
</event>
<event>
 8    1  0.1714417E-029  0.1468523E+04  0.7818608E-02  0.8905659E-01
         -3   -1    0    0    0  501 -0.00000000000E+00  0.00000000000E+00  0.94533235407E+03  0.94533235947E+03  0.10100000000E+00 0. -1.
          3   -1    0    0  501    0  0.00000000000E+00 -0.00000000000E+00 -0.57031822302E+03  0.57031823197E+03  0.10100000000E+00 0.  1.
     200001    2    1    2    0    0  0.64502366609E+02 -0.17952870969E+03  0.30139024095E+03  0.78639645871E+03  0.70085105410E+03 0.  0.
    5000001    2    3    3    0    0 -0.28545435665E+02 -0.51955439753E+02  0.24233282232E+01  0.18281212524E+03  0.17291671694E+03 0.  0.
        -13    1    4    4    0    0 -0.69484497647E+02 -0.31425922003E+01 -0.57580252738E+02  0.90296555684E+02  0.10566000000E+00 0. -1.
     200003    1    4    4    0    0  0.40939061982E+02 -0.48812847552E+02  0.60003580961E+02  0.92515569556E+02  0.30000000000E+02 0. -1.
     200000    1    3    3    0    0  0.93047802274E+02 -0.12757326993E+03  0.29896691272E+03  0.60358433347E+03  0.50000000000E+03 0. -1.
    -200001    1    1    2    0    0 -0.64502366609E+02  0.17952870969E+03  0.73623890103E+02  0.72925413272E+03  0.70000000000E+03 0. -1.
<mgrwt>
<rscale>  0 0.14685234E+04</rscale>
<asrwt>0</asrwt>
<pdfrwt beam="1">  1        3 0.81474033E-01 0.14685234E+04</pdfrwt>
<pdfrwt beam="2">  1       -3 0.13504748E+00 0.14685234E+04</pdfrwt>
<totfact> 0.15034746E+00</totfact>
</mgrwt>
</event>
<event>
 8    1  0.1714417E-029  0.2128943E+04  0.7818608E-02  0.8548600E-01
          3   -1    0    0  501    0  0.00000000000E+00  0.00000000000E+00  0.10969029046E+04  0.10969029093E+04  0.10100000000E+00 0.  1.
         -3   -1    0    0    0  501 -0.00000000000E+00 -0.00000000000E+00 -0.10329991279E+04  0.10329991329E+04  0.10100000000E+00 0. -1.
     200001    2    1    2    0    0  0.25429348301E+03  0.75230360314E+03 -0.78701233692E+02  0.10617437787E+04  0.70034283074E+03 0.  0.
    5000001    2    3    3    0    0  0.14064268724E+03  0.95840092228E+02  0.50719015661E+02  0.21876664644E+03  0.12775264494E+03 0.  0.
        -13    1    4    4    0    0  0.11542232003E+03  0.77992807452E+01  0.36791310812E+02  0.12139502649E+03  0.10566000000E+00 0. -1.
     200003    1    4    4    0    0  0.25220367218E+02  0.88040811482E+02  0.13927704848E+02  0.97371619949E+02  0.30000000000E+02 0. -1.
     200000    1    3    3    0    0  0.11365079577E+03  0.65646351092E+03 -0.12942024935E+03  0.84297713224E+03  0.50000000000E+03 0.  1.
    -200001    1    1    2    0    0 -0.25429348301E+03 -0.75230360314E+03  0.14260501040E+03  0.10681582635E+04  0.70000000000E+03 0. -1.
<mgrwt>
<rscale>  0 0.21289432E+04</rscale>
<asrwt>0</asrwt>
<pdfrwt beam="1">  1        3 0.15670041E+00 0.21289432E+04</pdfrwt>
<pdfrwt beam="2">  1       -3 0.14757131E+00 0.21289432E+04</pdfrwt>
<totfact> 0.23510039E-01</totfact>
</mgrwt>
</event>
<event>
 8    1  0.1714417E-029  0.1980303E+04  0.7818608E-02  0.8615885E-01
          3   -1    0    0  501    0  0.00000000000E+00  0.00000000000E+00  0.95298723395E+03  0.95298723931E+03  0.10100000000E+00 0. -1.
         -3   -1    0    0    0  501 -0.00000000000E+00 -0.00000000000E+00 -0.10287655021E+04  0.10287655070E+04  0.10100000000E+00 0.  1.
     200001    2    1    2    0    0 -0.39374572728E+03  0.33039002098E+03 -0.51356179549E+03  0.10092057395E+04  0.70039791770E+03 0.  0.
    5000001    2    3    3    0    0 -0.12222895759E+03  0.18710886737E+03 -0.22509707687E+03  0.35539939271E+03  0.16028221361E+03 0.  0.
        -13    1    4    4    0    0 -0.25573582014E+02  0.31973905360E+02 -0.15006832356E+03  0.15555337226E+03  0.10566000000E+00 0. -1.
     200003    1    4    4    0    0 -0.96655375580E+02  0.15513496201E+03 -0.75028753306E+02  0.19984602045E+03  0.30000000000E+02 0. -1.
     200000    1    3    3    0    0 -0.27151676969E+03  0.14328115361E+03 -0.28846471863E+03  0.65380634678E+03  0.50000000000E+03 0. -1.
    -200001    1    1    2    0    0  0.39374572728E+03 -0.33039002098E+03  0.43778352736E+03  0.97254700686E+03  0.70000000000E+03 0.  1.
<mgrwt>
<rscale>  0 0.19803034E+04</rscale>
<asrwt>0</asrwt>
<pdfrwt beam="1">  1        3 0.13614103E+00 0.19803034E+04</pdfrwt>
<pdfrwt beam="2">  1       -3 0.14696650E+00 0.19803034E+04</pdfrwt>
<totfact> 0.34543217E-01</totfact>
</mgrwt>
</event>
<event>
 8    1  0.1714417E-029  0.1628895E+04  0.7818608E-02  0.8802991E-01
          3   -1    0    0  501    0  0.00000000000E+00  0.00000000000E+00  0.61778914936E+03  0.61778915761E+03  0.10100000000E+00 0. -1.
         -3   -1    0    0    0  501 -0.00000000000E+00 -0.00000000000E+00 -0.10737066460E+04  0.10737066507E+04  0.10100000000E+00 0.  1.
     200001    2    1    2    0    0 -0.57546756617E+02 -0.10937334919E+03 -0.64121767954E+03  0.95691407942E+03  0.69946428367E+03 0.  0.
    5000001    2    3    3    0    0 -0.34866317436E+02  0.40830667562E+02 -0.17271944450E+03  0.25508344087E+03  0.17986870710E+03 0.  0.
        -13    1    4    4    0    0 -0.23959604927E-01  0.10092843596E+03 -0.54450937972E+02  0.11467983942E+03  0.10566000000E+00 0. -1.
     200003    1    4    4    0    0 -0.34842357831E+02 -0.60097768396E+02 -0.11826850653E+03  0.14040360145E+03  0.30000000000E+02 0. -1.
     200000    1    3    3    0    0 -0.22680439181E+02 -0.15020401675E+03 -0.46849823504E+03  0.70183063855E+03  0.50000000000E+03 0.  1.
    -200001    1    1    2    0    0  0.57546756617E+02  0.10937334919E+03  0.18530018290E+03  0.73458172894E+03  0.70000000000E+03 0. -1.
<mgrwt>
<rscale>  0 0.16288945E+04</rscale>
<asrwt>0</asrwt>
<pdfrwt beam="1">  1        3 0.88255594E-01 0.16288945E+04</pdfrwt>
<pdfrwt beam="2">  1       -3 0.15338666E+00 0.16288945E+04</pdfrwt>
<totfact> 0.89461243E-01</totfact>
</mgrwt>
</event>
<event>
 8    1  0.1714417E-029  0.1484623E+04  0.7818608E-02  0.8894743E-01
         -3   -1    0    0    0  501 -0.00000000000E+00  0.00000000000E+00  0.19425170677E+04  0.19425170703E+04  0.10100000000E+00 0. -1.
          3   -1    0    0  501    0  0.00000000000E+00 -0.00000000000E+00 -0.28366622012E+03  0.28366623810E+03  0.10100000000E+00 0.  1.
     200001    2    1    2    0    0  0.49339715876E+02  0.16921111083E+03  0.57035607809E+03  0.92008696022E+03  0.70013366650E+03 0.  0.
    5000001    2    3    3    0    0  0.96680351097E+02  0.10135254746E+03  0.14170806078E+03  0.25632115581E+03  0.16124494181E+03 0.  0.
        -13    1    4    4    0    0  0.85884951403E+02  0.13688508928E+03  0.86351068771E+02  0.18322191678E+03  0.10566000000E+00 0. -1.
     200003    1    4    4    0    0  0.10795399694E+02 -0.35532541820E+02  0.55356992006E+02  0.73099239029E+02  0.30000000000E+02 0. -1.
     200000    1    3    3    0    0 -0.47340635221E+02  0.67858563366E+02  0.42864801731E+03  0.66376580442E+03  0.50000000000E+03 0.  1.
    -200001    1    1    2    0    0 -0.49339715876E+02 -0.16921111083E+03  0.10884947695E+04  0.13060963482E+04  0.70000000000E+03 0. -1.
<mgrwt>
<rscale>  0 0.14846232E+04</rscale>
<asrwt>0</asrwt>
<pdfrwt beam="1">  1        3 0.40523747E-01 0.14846232E+04</pdfrwt>
<pdfrwt beam="2">  1       -3 0.27750244E+00 0.14846232E+04</pdfrwt>
<totfact> 0.78733531E-01</totfact>
</mgrwt>
</event>
<event>
 8    1  0.1714417E-029  0.1572392E+04  0.7818608E-02  0.8837690E-01
          3   -1    0    0  501    0  0.00000000000E+00  0.00000000000E+00  0.10053997741E+04  0.10053997791E+04  0.10100000000E+00 0.  1.
         -3   -1    0    0    0  501 -0.00000000000E+00 -0.00000000000E+00 -0.61478476569E+03  0.61478477398E+03  0.10100000000E+00 0. -1.
     200001    2    1    2    0    0  0.17628497776E+03 -0.25403839423E+03  0.99090401110E+01  0.76546299998E+03  0.70015963618E+03 0.  0.
    5000001    2    3    3    0    0  0.96652312261E+02 -0.83581676542E+02 -0.22547522081E+02  0.23025249705E+03  0.19021108150E+03 0.  0.
        -13    1    4    4    0    0  0.29220439997E+02 -0.10227930033E+03 -0.81464516978E+02  0.13398271560E+03  0.10566000000E+00 0. -1.
     200003    1    4    4    0    0  0.67431872264E+02  0.18697623787E+02  0.58916994897E+02  0.96269781447E+02  0.30000000000E+02 0. -1.
     200000    1    3    3    0    0  0.79632665501E+02 -0.17045671769E+03  0.32456562192E+02  0.53521050293E+03  0.50000000000E+03 0. -1.
    -200001    1    1    2    0    0 -0.17628497776E+03  0.25403839423E+03  0.38070596827E+03  0.85472155314E+03  0.70000000000E+03 0. -1.
<mgrwt>
<rscale>  0 0.15723924E+04</rscale>
<asrwt>0</asrwt>
<pdfrwt beam="1">  1        3 0.14362854E+00 0.15723924E+04</pdfrwt>
<pdfrwt beam="2">  1       -3 0.87826396E-01 0.15723924E+04</pdfrwt>
<totfact> 0.10794465E+00</totfact>
</mgrwt>
</event>
<event>
 8    1  0.1714417E-029  0.1659307E+04  0.7818608E-02  0.8784919E-01
         -3   -1    0    0    0  501 -0.00000000000E+00  0.00000000000E+00  0.67467911370E+03  0.67467912126E+03  0.10100000000E+00 0. -1.
          3   -1    0    0  501    0  0.00000000000E+00 -0.00000000000E+00 -0.10202258999E+04  0.10202259049E+04  0.10100000000E+00 0.  1.
     200001    2    1    2    0    0  0.40394208748E+03  0.52207082200E+02  0.10226728719E+02  0.81033191816E+03  0.70045588165E+03 0.  0.
    5000001    2    3    3    0    0  0.98571752297E+02 -0.26018601576E+02  0.40914541934E+02  0.21846027575E+03  0.18883202684E+03 0.  0.
        -13    1    4    4    0    0  0.53684122231E+02  0.74621401784E+02 -0.11789342113E+02  0.92678683284E+02  0.10566000000E+00 0. -1.
     200003    1    4    4    0    0  0.44887630067E+02 -0.10064000336E+03  0.52703884047E+02  0.12578159246E+03  0.30000000000E+02 0. -1.
     200000    1    3    3    0    0  0.30537033518E+03  0.78225683775E+02 -0.30687813215E+02  0.59187164241E+03  0.50000000000E+03 0.  1.
    -200001    1    1    2    0    0 -0.40394208748E+03 -0.52207082200E+02 -0.35577351491E+03  0.88457310799E+03  0.70000000000E+03 0.  1.
<mgrwt>
<rscale>  0 0.16593072E+04</rscale>
<asrwt>0</asrwt>
<pdfrwt beam="1">  1        3 0.14574656E+00 0.16593072E+04</pdfrwt>
<pdfrwt beam="2">  1       -3 0.96382731E-01 0.16593072E+04</pdfrwt>
<totfact> 0.83432044E-01</totfact>
</mgrwt>
</event>
<event>
 8    1  0.1714417E-029  0.2296990E+04  0.7818608E-02  0.8479109E-01
          3   -1    0    0  501    0  0.00000000000E+00  0.00000000000E+00  0.39815534693E+04  0.39815534706E+04  0.10100000000E+00 0. -1.
         -3   -1    0    0    0  501 -0.00000000000E+00 -0.00000000000E+00 -0.33128807215E+03  0.33128808754E+03  0.10100000000E+00 0.  1.
     200001    2    1    2    0    0  0.48101917926E+03  0.70689858763E+03  0.12384590111E+04  0.16599384111E+04  0.70037828514E+03 0.  0.
    5000001    2    3    3    0    0  0.59212010718E+02  0.29024834727E+03  0.24584966184E+03  0.40025907469E+03  0.10961343592E+03 0.  0.
        -13    1    4    4    0    0  0.36129832344E+02  0.21961397747E+03  0.22705755826E+03  0.31794780989E+03  0.10566000000E+00 0. -1.
     200003    1    4    4    0    0  0.23082178374E+02  0.70634369796E+02  0.18792103579E+02  0.82311264794E+02  0.30000000000E+02 0. -1.
     200000    1    3    3    0    0  0.42180716855E+03  0.41665024036E+03  0.99260934930E+03  0.12596793364E+04  0.50000000000E+03 0. -1.
    -200001    1    1    2    0    0 -0.48101917926E+03 -0.70689858763E+03  0.24118063860E+04  0.26529031471E+04  0.70000000000E+03 0.  1.
<mgrwt>
<rscale>  0 0.22969904E+04</rscale>
<asrwt>0</asrwt>
<pdfrwt beam="1">  1        3 0.56879334E+00 0.22969904E+04</pdfrwt>
<pdfrwt beam="2">  1       -3 0.47326870E-01 0.22969904E+04</pdfrwt>
<totfact> 0.16931096E-02</totfact>
</mgrwt>
</event>
<event>
 8    1  0.1714417E-029  0.1670735E+04  0.7818608E-02  0.8778234E-01
          3   -1    0    0  501    0  0.00000000000E+00  0.00000000000E+00  0.75224266423E+03  0.75224267101E+03  0.10100000000E+00 0. -1.
         -3   -1    0    0    0  501 -0.00000000000E+00 -0.00000000000E+00 -0.92767746289E+03  0.92767746839E+03  0.10100000000E+00 0.  1.
     200001    2    1    2    0    0  0.10507067258E+03  0.41528902278E+03 -0.24351044564E+03  0.85642811613E+03  0.70047623962E+03 0.  0.
    5000001    2    3    3    0    0  0.10749925404E+02  0.16720325013E+03 -0.85384562780E+02  0.26868093513E+03  0.19190214587E+03 0.  0.
        -13    1    4    4    0    0  0.32324125550E+02  0.19443022401E+03 -0.34398219192E+02  0.20007800916E+03  0.10566000000E+00 0. -1.
     200003    1    4    4    0    0 -0.21574200146E+02 -0.27226973884E+02 -0.50986343588E+02  0.68602925968E+02  0.30000000000E+02 0. -1.
     200000    1    3    3    0    0  0.94320747180E+02  0.24808577266E+03 -0.15812588286E+03  0.58774718100E+03  0.50000000000E+03 0. -1.
    -200001    1    1    2    0    0 -0.10507067258E+03 -0.41528902278E+03  0.68075646983E+02  0.82349202327E+03  0.70000000000E+03 0.  1.
<mgrwt>
<rscale>  0 0.16707347E+04</rscale>
<asrwt>0</asrwt>
<pdfrwt beam="1">  1        3 0.10746324E+00 0.16707347E+04</pdfrwt>
<pdfrwt beam="2">  1       -3 0.13252535E+00 0.16707347E+04</pdfrwt>
<totfact> 0.82042329E-01</totfact>
</mgrwt>
</event>
<event>
 8    1  0.1714417E-029  0.1899240E+04  0.7818608E-02  0.8655235E-01
          3   -1    0    0  501    0  0.00000000000E+00  0.00000000000E+00  0.78838663240E+03  0.78838663887E+03  0.10100000000E+00 0.  1.
         -3   -1    0    0    0  501 -0.00000000000E+00 -0.00000000000E+00 -0.11438268268E+04  0.11438268312E+04  0.10100000000E+00 0. -1.
     200001    2    1    2    0    0  0.43225836887E+03  0.45229266783E+03 -0.31788648356E+03  0.99262513684E+03  0.70202342627E+03 0.  0.
    5000001    2    3    3    0    0  0.22084047859E+02  0.82738360307E+02 -0.12536055369E+03  0.22328802381E+03  0.16373433274E+03 0.  0.
        -13    1    4    4    0    0  0.87000981610E+02  0.27041601202E+02 -0.42713902719E+02  0.10062260008E+03  0.10566000000E+00 0. -1.
     200003    1    4    4    0    0 -0.64916933750E+02  0.55696759105E+02 -0.82646650969E+02  0.12266542373E+03  0.30000000000E+02 0. -1.
     200000    1    3    3    0    0  0.41017432101E+03  0.36955430752E+03 -0.19252592987E+03  0.76933711304E+03  0.50000000000E+03 0. -1.
    -200001    1    1    2    0    0 -0.43225836887E+03 -0.45229266783E+03 -0.37553710828E+02  0.93958833327E+03  0.70000000000E+03 0.  1.
<mgrwt>
<rscale>  0 0.18992396E+04</rscale>
<asrwt>0</asrwt>
<pdfrwt beam="1">  1        3 0.11262666E+00 0.18992396E+04</pdfrwt>
<pdfrwt beam="2">  1       -3 0.16340383E+00 0.18992396E+04</pdfrwt>
<totfact> 0.41901365E-01</totfact>
</mgrwt>
</event>
<event>
 8    1  0.1714417E-029  0.1665095E+04  0.7818608E-02  0.8781526E-01
          3   -1    0    0  501    0  0.00000000000E+00  0.00000000000E+00  0.71870797414E+03  0.71870798124E+03  0.10100000000E+00 0.  1.
         -3   -1    0    0    0  501 -0.00000000000E+00 -0.00000000000E+00 -0.96441884143E+03  0.96441884671E+03  0.10100000000E+00 0. -1.
     200001    2    1    2    0    0 -0.41050314396E+03 -0.55607633321E+02  0.57101901981E+02  0.81519790615E+03  0.69977279091E+03 0.  0.
    5000001    2    3    3    0    0 -0.18314176605E+02 -0.14137472174E+03  0.23502013534E+02  0.17309422910E+03  0.95326001160E+02 0.  0.
        -13    1    4    4    0    0 -0.21099039213E+02 -0.13971410439E+03  0.20327313745E+02  0.14275297289E+03  0.10566000000E+00 0. -1.
     200003    1    4    4    0    0  0.27848626079E+01 -0.16606173483E+01  0.31746997886E+01  0.30341256211E+02  0.30000000000E+02 0. -1.
     200000    1    3    3    0    0 -0.39218896735E+03  0.85767088418E+02  0.33599888447E+02  0.64210367704E+03  0.50000000000E+03 0.  1.
    -200001    1    1    2    0    0  0.41050314396E+03  0.55607633321E+02 -0.30281276926E+03  0.86792892181E+03  0.70000000000E+03 0.  1.
<mgrwt>
<rscale>  0 0.16650952E+04</rscale>
<asrwt>0</asrwt>
<pdfrwt beam="1">  1        3 0.10267257E+00 0.16650952E+04</pdfrwt>
<pdfrwt beam="2">  1       -3 0.13777412E+00 0.16650952E+04</pdfrwt>
<totfact> 0.82924063E-01</totfact>
</mgrwt>
</event>
<event>
 8    1  0.1714417E-029  0.2291092E+04  0.7818608E-02  0.8481442E-01
          3   -1    0    0  501    0  0.00000000000E+00  0.00000000000E+00  0.20941387429E+04  0.20941387453E+04  0.10100000000E+00 0.  1.
         -3   -1    0    0    0  501 -0.00000000000E+00 -0.00000000000E+00 -0.62664199447E+03  0.62664200261E+03  0.10100000000E+00 0. -1.
     200001    2    1    2    0    0 -0.51819572371E+03 -0.65950485593E+03  0.11431320303E+04  0.15811817248E+04  0.69993667226E+03 0.  0.
    5000001    2    3    3    0    0 -0.93843361938E+02 -0.17394669630E+03  0.33571972758E+03  0.43324606465E+03  0.18955312532E+03 0.  0.
        -13    1    4    4    0    0 -0.21474794847E+02 -0.50026756714E+02  0.26488974340E+03  0.27042638651E+03  0.10566000000E+00 0. -1.
     200003    1    4    4    0    0 -0.72368567090E+02 -0.12391993959E+03  0.70829984177E+02  0.16281967814E+03  0.30000000000E+02 0. -1.
     200000    1    3    3    0    0 -0.42435236177E+03 -0.48555815962E+03  0.80741230274E+03  0.11479356602E+04  0.50000000000E+03 0.  1.
    -200001    1    1    2    0    0  0.51819572371E+03  0.65950485593E+03  0.32436471810E+03  0.11395990231E+04  0.70000000000E+03 0. -1.
<mgrwt>
<rscale>  0 0.22910917E+04</rscale>
<asrwt>0</asrwt>
<pdfrwt beam="1">  1        3 0.29916268E+00 0.22910917E+04</pdfrwt>
<pdfrwt beam="2">  1       -3 0.89520286E-01 0.22910917E+04</pdfrwt>
<totfact> 0.10529945E-01</totfact>
</mgrwt>
</event>
<event>
 8    1  0.1714417E-029  0.2088110E+04  0.7818608E-02  0.8566499E-01
          3   -1    0    0  501    0  0.00000000000E+00  0.00000000000E+00  0.10927927914E+04  0.10927927960E+04  0.10100000000E+00 0.  1.
         -3   -1    0    0    0  501 -0.00000000000E+00 -0.00000000000E+00 -0.99749110156E+03  0.99749110667E+03  0.10100000000E+00 0. -1.
     200001    2    1    2    0    0 -0.61218470011E+03 -0.43875809854E+03  0.22823965014E+03  0.10534853314E+04  0.70032794429E+03 0.  0.
    5000001    2    3    3    0    0 -0.23723145477E+03 -0.61055570234E+02  0.36411958869E+02  0.29847076255E+03  0.16659057463E+03 0.  0.
        -13    1    4    4    0    0 -0.24722754919E+03 -0.72874524902E+02  0.49151013795E+02  0.26238900659E+03  0.10566000000E+00 0. -1.
     200003    1    4    4    0    0  0.99960944126E+01  0.11818954668E+02 -0.12739054925E+02  0.36081755962E+02  0.30000000000E+02 0. -1.
     200000    1    3    3    0    0 -0.37495324534E+03 -0.37770252830E+03  0.19182769127E+03  0.75501456888E+03  0.50000000000E+03 0.  1.
    -200001    1    1    2    0    0  0.61218470011E+03  0.43875809854E+03 -0.13293796035E+03  0.10367985713E+04  0.70000000000E+03 0. -1.
<mgrwt>
<rscale>  0 0.20881102E+04</rscale>
<asrwt>0</asrwt>
<pdfrwt beam="1">  1        3 0.15611326E+00 0.20881102E+04</pdfrwt>
<pdfrwt beam="2">  1       -3 0.14249873E+00 0.20881102E+04</pdfrwt>
<totfact> 0.26068754E-01</totfact>
</mgrwt>
</event>
<event>
 8    1  0.1714417E-029  0.1769220E+04  0.7818608E-02  0.8722841E-01
         -3   -1    0    0    0  501 -0.00000000000E+00  0.00000000000E+00  0.24712230279E+03  0.24712232343E+03  0.10100000000E+00 0. -1.
          3   -1    0    0  501    0  0.00000000000E+00 -0.00000000000E+00 -0.31665907838E+04  0.31665907854E+04  0.10100000000E+00 0.  1.
     200001    2    1    2    0    0 -0.25287918568E+03 -0.45149685993E+03 -0.11576280218E+04  0.14485466780E+04  0.70027676280E+03 0.  0.
    5000001    2    3    3    0    0 -0.25377760289E+02 -0.81074424213E+02 -0.39920548104E+03  0.44148440103E+03  0.16830438877E+03 0.  0.
        -13    1    4    4    0    0 -0.40680882905E+02 -0.73561553977E+02 -0.67009739979E+02  0.10750140870E+03  0.10566000000E+00 0. -1.
     200003    1    4    4    0    0  0.15303122616E+02 -0.75128702357E+01 -0.33219574106E+03  0.33398299232E+03  0.30000000000E+02 0. -1.
     200000    1    3    3    0    0 -0.22750142539E+03 -0.37042243571E+03 -0.75842254074E+03  0.10070622770E+04  0.50000000000E+03 0. -1.
    -200001    1    1    2    0    0  0.25287918568E+03  0.45149685993E+03 -0.17618404592E+04  0.19651664308E+04  0.70000000000E+03 0. -1.
<mgrwt>
<rscale>  0 0.17692204E+04</rscale>
<asrwt>0</asrwt>
<pdfrwt beam="1">  1        3 0.45237009E+00 0.17692204E+04</pdfrwt>
<pdfrwt beam="2">  1       -3 0.35303190E-01 0.17692204E+04</pdfrwt>
<totfact> 0.11810638E-01</totfact>
</mgrwt>
</event>
<event>
 8    1  0.1714417E-029  0.2258712E+04  0.7818608E-02  0.8494381E-01
         -3   -1    0    0    0  501 -0.00000000000E+00  0.00000000000E+00  0.53056555206E+03  0.53056556167E+03  0.10100000000E+00 0. -1.
          3   -1    0    0  501    0  0.00000000000E+00 -0.00000000000E+00 -0.24039337356E+04  0.24039337377E+04  0.10100000000E+00 0.  1.
     200001    2    1    2    0    0  0.87243000924E+03  0.76997111518E+02 -0.76010725912E+03  0.13544953241E+04  0.69987989063E+03 0.  0.
    5000001    2    3    3    0    0  0.23185458870E+03  0.16407917155E+02 -0.24936143481E+03  0.39279411426E+03  0.19514179711E+03 0.  0.
        -13    1    4    4    0    0  0.50168873513E+02 -0.12436589039E+01  0.29455069731E+02  0.58189989293E+02  0.10566000000E+00 0. -1.
     200003    1    4    4    0    0  0.18168571519E+03  0.17651576059E+02 -0.27881650454E+03  0.33460412496E+03  0.30000000000E+02 0. -1.
     200000    1    3    3    0    0  0.64057542054E+03  0.60589194363E+02 -0.51074582432E+03  0.96170120980E+03  0.50000000000E+03 0. -1.
    -200001    1    1    2    0    0 -0.87243000924E+03 -0.76997111518E+02 -0.11132609244E+04  0.15800039753E+04  0.70000000000E+03 0.  1.
<mgrwt>
<rscale>  0 0.22587115E+04</rscale>
<asrwt>0</asrwt>
<pdfrwt beam="1">  1        3 0.34341910E+00 0.22587115E+04</pdfrwt>
<pdfrwt beam="2">  1       -3 0.75795081E-01 0.22587115E+04</pdfrwt>
<totfact> 0.87882606E-02</totfact>
</mgrwt>
</event>
<event>
 8    1  0.1714417E-029  0.1558162E+04  0.7818608E-02  0.8846671E-01
         -3   -1    0    0    0  501 -0.00000000000E+00  0.00000000000E+00  0.32559804898E+03  0.32559806465E+03  0.10100000000E+00 0. -1.
          3   -1    0    0  501    0  0.00000000000E+00 -0.00000000000E+00 -0.18641606818E+04  0.18641606846E+04  0.10100000000E+00 0.  1.
     200001    2    1    2    0    0  0.37027652124E+02 -0.13619136213E+03 -0.32988756481E+03  0.78590172151E+03  0.69921139601E+03 0.  0.
    5000001    2    3    3    0    0  0.24862057705E+02  0.28505874510E+02 -0.10611286524E+03  0.21375812274E+03  0.18166421792E+03 0.  0.
        -13    1    4    4    0    0  0.46904462370E+02 -0.65200183953E+02 -0.70355596380E+02  0.10677552942E+03  0.10566000000E+00 0. -1.
     200003    1    4    4    0    0 -0.22042404666E+02  0.93706058463E+02 -0.35757268857E+02  0.10698259331E+03  0.30000000000E+02 0. -1.
     200000    1    3    3    0    0  0.12165594419E+02 -0.16469723664E+03 -0.22377469957E+03  0.57214359877E+03  0.50000000000E+03 0. -1.
    -200001    1    1    2    0    0 -0.37027652124E+02  0.13619136213E+03 -0.12086750680E+04  0.14038570277E+04  0.70000000000E+03 0.  1.
<mgrwt>
<rscale>  0 0.15581619E+04</rscale>
<asrwt>0</asrwt>
<pdfrwt beam="1">  1        3 0.26630866E+00 0.15581619E+04</pdfrwt>
<pdfrwt beam="2">  1       -3 0.46514009E-01 0.15581619E+04</pdfrwt>
<totfact> 0.69598138E-01</totfact>
</mgrwt>
</event>
<event>
 8    1  0.1714417E-029  0.3779219E+04  0.7818608E-02  0.8050629E-01
         -3   -1    0    0    0  501 -0.00000000000E+00  0.00000000000E+00  0.15859811756E+04  0.15859811788E+04  0.10100000000E+00 0.  1.
          3   -1    0    0  501    0  0.00000000000E+00 -0.00000000000E+00 -0.22513657684E+04  0.22513657707E+04  0.10100000000E+00 0. -1.
     200001    2    1    2    0    0 -0.11619213757E+04 -0.10213991418E+04  0.50889760245E+03  0.17728237202E+04  0.70043535243E+03 0.  0.
    5000001    2    3    3    0    0 -0.30554203465E+03 -0.34512126863E+03  0.15209294647E+03  0.52060692585E+03  0.18824102071E+03 0.  0.
        -13    1    4    4    0    0 -0.16521153155E+03 -0.30601489637E+03  0.88504745869E+02  0.35884964562E+03  0.10566000000E+00 0. -1.
     200003    1    4    4    0    0 -0.14033050310E+03 -0.39106372264E+02  0.63588200605E+02  0.16175728023E+03  0.30000000000E+02 0. -1.
     200000    1    3    3    0    0 -0.85637934106E+03 -0.67627787320E+03  0.35680465598E+03  0.12522167944E+04  0.50000000000E+03 0.  1.
    -200001    1    1    2    0    0  0.11619213757E+04  0.10213991418E+04 -0.11742821953E+04  0.20645232293E+04  0.70000000000E+03 0. -1.
<mgrwt>
<rscale>  0 0.37792188E+04</rscale>
<asrwt>0</asrwt>
<pdfrwt beam="1">  1        3 0.32162368E+00 0.37792188E+04</pdfrwt>
<pdfrwt beam="2">  1       -3 0.22656874E+00 0.37792188E+04</pdfrwt>
<totfact> 0.62079467E-03</totfact>
</mgrwt>
</event>
<event>
 8    1  0.1714417E-029  0.1598531E+04  0.7818608E-02  0.8821451E-01
         -3   -1    0    0    0  501 -0.00000000000E+00  0.00000000000E+00  0.19695218150E+04  0.19695218176E+04  0.10100000000E+00 0. -1.
          3   -1    0    0  501    0  0.00000000000E+00 -0.00000000000E+00 -0.32435555936E+03  0.32435557508E+03  0.10100000000E+00 0.  1.
     200001    2    1    2    0    0 -0.20766958249E+03 -0.20039284687E+03  0.45652848394E+03  0.88457128650E+03  0.70054561286E+03 0.  0.
    5000001    2    3    3    0    0 -0.10842355506E+03 -0.20700308224E+02  0.18904490804E+03  0.28150690704E+03  0.17698585085E+03 0.  0.
        -13    1    4    4    0    0  0.31275570545E+02 -0.50778406950E+02  0.77339935225E+02  0.97663118269E+02  0.10566000000E+00 0. -1.
     200003    1    4    4    0    0 -0.13969912561E+03  0.30078098726E+02  0.11170497281E+03  0.18384378877E+03  0.30000000000E+02 0. -1.
     200000    1    3    3    0    0 -0.99246027426E+02 -0.17969253865E+03  0.26748357590E+03  0.60306437946E+03  0.50000000000E+03 0.  1.
    -200001    1    1    2    0    0  0.20766958249E+03  0.20039284687E+03  0.11886377717E+04  0.14093061062E+04  0.70000000000E+03 0. -1.
<mgrwt>
<rscale>  0 0.15985310E+04</rscale>
<asrwt>0</asrwt>
<pdfrwt beam="1">  1        3 0.46336511E-01 0.15985310E+04</pdfrwt>
<pdfrwt beam="2">  1       -3 0.28136025E+00 0.15985310E+04</pdfrwt>
<totfact> 0.56723309E-01</totfact>
</mgrwt>
</event>
<event>
 8    1  0.1714417E-029  0.1522583E+04  0.7818608E-02  0.8869573E-01
          3   -1    0    0  501    0  0.00000000000E+00  0.00000000000E+00  0.32194684162E+03  0.32194685746E+03  0.10100000000E+00 0.  1.
         -3   -1    0    0    0  501 -0.00000000000E+00 -0.00000000000E+00 -0.18001866881E+04  0.18001866909E+04  0.10100000000E+00 0. -1.
     200001    2    1    2    0    0 -0.91292326472E+02  0.16065910045E+03 -0.10750680708E+04  0.12934640629E+04  0.69507718264E+03 0.  0.
    5000001    2    3    3    0    0  0.21651982454E+02  0.65759389206E+02 -0.31246198106E+03  0.36970520900E+03  0.18508470046E+03 0.  0.
        -13    1    4    4    0    0 -0.25597110646E+01 -0.62329878180E+02 -0.12114096994E+03  0.13625972111E+03  0.10566000000E+00 0. -1.
     200003    1    4    4    0    0  0.24211693519E+02  0.12808926739E+03 -0.19132101112E+03  0.23344548789E+03  0.30000000000E+02 0. -1.
     200000    1    3    3    0    0 -0.11294430893E+03  0.94899711242E+02 -0.76260608974E+03  0.92375885393E+03  0.50000000000E+03 0. -1.
    -200001    1    1    2    0    0  0.91292326472E+02 -0.16065910045E+03 -0.40317177569E+03  0.82866948547E+03  0.70000000000E+03 0.  1.
<mgrwt>
<rscale>  0 0.15225826E+04</rscale>
<asrwt>0</asrwt>
<pdfrwt beam="1">  1        3 0.45992408E-01 0.15225826E+04</pdfrwt>
<pdfrwt beam="2">  1       -3 0.25716952E+00 0.15225826E+04</pdfrwt>
<totfact> 0.79522292E-01</totfact>
</mgrwt>
</event>
<event>
 8    1  0.1714417E-029  0.1462989E+04  0.7818608E-02  0.8909445E-01
          3   -1    0    0  501    0  0.00000000000E+00  0.00000000000E+00  0.26183341903E+04  0.26183341922E+04  0.10100000000E+00 0.  1.
         -3   -1    0    0    0  501 -0.00000000000E+00 -0.00000000000E+00 -0.20436044966E+03  0.20436047462E+03  0.10100000000E+00 0. -1.
     200001    2    1    2    0    0  0.32933196343E+02  0.12193930937E+03  0.15366939864E+04  0.16932817407E+04  0.69987202755E+03 0.  0.
    5000001    2    3    3    0    0 -0.10469557578E+03  0.11234548954E+02  0.37512707402E+03  0.41639689278E+03  0.14689680725E+03 0.  0.
        -13    1    4    4    0    0 -0.11172967460E+03 -0.41437606002E+02  0.23238035389E+03  0.26115366246E+03  0.10566000000E+00 0. -1.
     200003    1    4    4    0    0  0.70340988205E+01  0.52672154956E+02  0.14274672012E+03  0.15524323032E+03  0.30000000000E+02 0. -1.
     200000    1    3    3    0    0  0.13762877212E+03  0.11070476042E+03  0.11615669124E+04  0.12768848479E+04  0.50000000000E+03 0.  1.
    -200001    1    1    2    0    0 -0.32933196343E+02 -0.12193930937E+03  0.87727975422E+03  0.11294129262E+04  0.70000000000E+03 0. -1.
<mgrwt>
<rscale>  0 0.14629887E+04</rscale>
<asrwt>0</asrwt>
<pdfrwt beam="1">  1        3 0.37404776E+00 0.14629887E+04</pdfrwt>
<pdfrwt beam="2">  1       -3 0.29194351E-01 0.14629887E+04</pdfrwt>
<totfact> 0.45020184E-01</totfact>
</mgrwt>
</event>
<event>
 8    1  0.1714417E-029  0.1829512E+04  0.7818608E-02  0.8690761E-01
         -3   -1    0    0    0  501 -0.00000000000E+00  0.00000000000E+00  0.60262016251E+03  0.60262017098E+03  0.10100000000E+00 0. -1.
          3   -1    0    0  501    0  0.00000000000E+00 -0.00000000000E+00 -0.13885666267E+04  0.13885666304E+04  0.10100000000E+00 0.  1.
     200001    2    1    2    0    0  0.52501662527E+03 -0.23689846371E+03 -0.25729847452E+03  0.94179076750E+03  0.69928821372E+03 0.  0.
    5000001    2    3    3    0    0  0.15095952047E+03 -0.15723861630E+03  0.46876318350E+02  0.24265793781E+03  0.95774350860E+02 0.  0.
        -13    1    4    4    0    0  0.72211546675E+02 -0.10925414789E+03 -0.80518024121E+01  0.13120906596E+03  0.10566000000E+00 0. -1.
     200003    1    4    4    0    0  0.78747973794E+02 -0.47984468409E+02  0.54928120762E+02  0.11144887184E+03  0.30000000000E+02 0.  1.
     200000    1    3    3    0    0  0.37405710480E+03 -0.79659847411E+02 -0.30417479286E+03  0.69913282969E+03  0.50000000000E+03 0. -1.
    -200001    1    1    2    0    0 -0.52501662527E+03  0.23689846371E+03 -0.52864798972E+03  0.10493960339E+04  0.70000000000E+03 0. -1.
<mgrwt>
<rscale>  0 0.18295117E+04</rscale>
<asrwt>0</asrwt>
<pdfrwt beam="1">  1        3 0.19836666E+00 0.18295117E+04</pdfrwt>
<pdfrwt beam="2">  1       -3 0.86088596E-01 0.18295117E+04</pdfrwt>
<totfact> 0.46141058E-01</totfact>
</mgrwt>
</event>
<event>
 8    1  0.1714417E-029  0.1451244E+04  0.7818608E-02  0.8917539E-01
         -3   -1    0    0    0  501 -0.00000000000E+00  0.00000000000E+00  0.30620787593E+03  0.30620789259E+03  0.10100000000E+00 0. -1.
          3   -1    0    0  501    0  0.00000000000E+00 -0.00000000000E+00 -0.17195081958E+04  0.17195081988E+04  0.10100000000E+00 0.  1.
     200001    2    1    2    0    0 -0.11625477126E+03  0.37642969666E+02 -0.50999516931E+03  0.87641527782E+03  0.70219406254E+03 0.  0.
    5000001    2    3    3    0    0  0.41878773815E+02  0.96461686808E+01 -0.24163411827E+03  0.28666304793E+03  0.14812756553E+03 0.  0.
        -13    1    4    4    0    0 -0.32354531781E+02 -0.45623768855E+02 -0.72825494404E+02  0.91825420285E+02  0.10566000000E+00 0. -1.
     200003    1    4    4    0    0  0.74233305596E+02  0.55269937536E+02 -0.16880862387E+03  0.19483762765E+03  0.30000000000E+02 0. -1.
     200000    1    3    3    0    0 -0.15813354507E+03  0.27996800985E+02 -0.26836105104E+03  0.58975222989E+03  0.50000000000E+03 0. -1.
    -200001    1    1    2    0    0  0.11625477126E+03 -0.37642969666E+02 -0.90330515060E+03  0.11493008136E+04  0.70000000000E+03 0.  1.
<mgrwt>
<rscale>  0 0.14512436E+04</rscale>
<asrwt>0</asrwt>
<pdfrwt beam="1">  1        3 0.24564402E+00 0.14512436E+04</pdfrwt>
<pdfrwt beam="2">  1       -3 0.43743985E-01 0.14512436E+04</pdfrwt>
<totfact> 0.10418822E+00</totfact>
</mgrwt>
</event>
<event>
 8    1  0.1714417E-029  0.1513575E+04  0.7818608E-02  0.8875476E-01
          3   -1    0    0  501    0  0.00000000000E+00  0.00000000000E+00  0.26866160025E+03  0.26866161923E+03  0.10100000000E+00 0.  1.
         -3   -1    0    0    0  501 -0.00000000000E+00 -0.00000000000E+00 -0.21317797200E+04  0.21317797223E+04  0.10100000000E+00 0. -1.
     200001    2    1    2    0    0  0.26778657027E+03  0.45200202479E+02 -0.78109158670E+03  0.10834242105E+04  0.69996517590E+03 0.  0.
    5000001    2    3    3    0    0  0.72712799622E+02  0.69664068834E+02 -0.10774174456E+03  0.22199965389E+03  0.16593772654E+03 0.  0.
        -13    1    4    4    0    0  0.49525159085E+02  0.15495121763E+02  0.36420066379E+02  0.63397733240E+02  0.10566000000E+00 0. -1.
     200003    1    4    4    0    0  0.23187640537E+02  0.54168947071E+02 -0.14416181094E+03  0.15860192065E+03  0.30000000000E+02 0.  1.
     200000    1    3    3    0    0  0.19507377065E+03 -0.24463866355E+02 -0.67334984214E+03  0.86142455657E+03  0.50000000000E+03 0.  1.
    -200001    1    1    2    0    0 -0.26778657027E+03 -0.45200202479E+02 -0.10820265330E+04  0.13170171311E+04  0.70000000000E+03 0. -1.
<mgrwt>
<rscale>  0 0.15135751E+04</rscale>
<asrwt>0</asrwt>
<pdfrwt beam="1">  1        3 0.38380232E-01 0.15135751E+04</pdfrwt>
<pdfrwt beam="2">  1       -3 0.30453995E+00 0.15135751E+04</pdfrwt>
<totfact> 0.61690242E-01</totfact>
</mgrwt>
</event>
<event>
 8    1  0.1714417E-029  0.1505366E+04  0.7818608E-02  0.8880892E-01
          3   -1    0    0  501    0  0.00000000000E+00  0.00000000000E+00  0.17527030754E+04  0.17527030783E+04  0.10100000000E+00 0.  1.
         -3   -1    0    0    0  501 -0.00000000000E+00 -0.00000000000E+00 -0.32323327950E+03  0.32323329528E+03  0.10100000000E+00 0. -1.
     200001    2    1    2    0    0  0.19554367459E+03  0.60617165373E+02  0.45739887342E+03  0.86068592708E+03  0.69975336103E+03 0.  0.
    5000001    2    3    3    0    0  0.10478426560E+02  0.15987844582E+02 -0.11095278446E+02  0.14954058847E+03  0.14789818727E+03 0.  0.
        -13    1    4    4    0    0 -0.11873085182E+02  0.24567378218E+02  0.61578823940E+02  0.67353462763E+02  0.10566000000E+00 0. -1.
     200003    1    4    4    0    0  0.22351511742E+02 -0.85795336361E+01 -0.72674102385E+02  0.82187125708E+02  0.30000000000E+02 0. -1.
     200000    1    3    3    0    0  0.18506524803E+03  0.44629320791E+02  0.46849415186E+03  0.71114533861E+03  0.50000000000E+03 0. -1.
    -200001    1    1    2    0    0 -0.19554367459E+03 -0.60617165373E+02  0.97207092252E+03  0.12152504465E+04  0.70000000000E+03 0.  1.
<mgrwt>
<rscale>  0 0.15053664E+04</rscale>
<asrwt>0</asrwt>
<pdfrwt beam="1">  1        3 0.25038615E+00 0.15053664E+04</pdfrwt>
<pdfrwt beam="2">  1       -3 0.46176185E-01 0.15053664E+04</pdfrwt>
<totfact> 0.87368954E-01</totfact>
</mgrwt>
</event>
<event>
 8    1  0.1714417E-029  0.1619399E+04  0.7818608E-02  0.8808718E-01
          3   -1    0    0  501    0  0.00000000000E+00  0.00000000000E+00  0.85416717205E+03  0.85416717802E+03  0.10100000000E+00 0.  1.
         -3   -1    0    0    0  501 -0.00000000000E+00 -0.00000000000E+00 -0.76754667192E+03  0.76754667857E+03  0.10100000000E+00 0. -1.
     200001    2    1    2    0    0  0.30740230713E+03  0.24861058145E+03  0.14576146044E+03  0.81561147300E+03  0.69833535776E+03 0.  0.
    5000001    2    3    3    0    0 -0.64160970571E+01 -0.35525761382E+01 -0.46293941238E+01  0.15630452022E+03  0.15606371984E+03 0.  0.
        -13    1    4    4    0    0  0.39185806840E+02  0.15170431854E+02  0.57689674648E+02  0.71370716582E+02  0.10566000000E+00 0. -1.
     200003    1    4    4    0    0 -0.45601903897E+02 -0.18723007992E+02 -0.62319068772E+02  0.84933803635E+02  0.30000000000E+02 0. -1.
     200000    1    3    3    0    0  0.31381840419E+03  0.25216315759E+03  0.15039085457E+03  0.65930695278E+03  0.50000000000E+03 0.  1.
    -200001    1    1    2    0    0 -0.30740230713E+03 -0.24861058145E+03 -0.59140960315E+02  0.80610238359E+03  0.70000000000E+03 0. -1.
<mgrwt>
<rscale>  0 0.16193989E+04</rscale>
<asrwt>0</asrwt>
<pdfrwt beam="1">  1        3 0.12202388E+00 0.16193989E+04</pdfrwt>
<pdfrwt beam="2">  1       -3 0.10964953E+00 0.16193989E+04</pdfrwt>
<totfact> 0.96386008E-01</totfact>
</mgrwt>
</event>
<event>
 8    1  0.1714417E-029  0.1904426E+04  0.7818608E-02  0.8652657E-01
         -3   -1    0    0    0  501 -0.00000000000E+00  0.00000000000E+00  0.88892877373E+03  0.88892877947E+03  0.10100000000E+00 0.  1.
          3   -1    0    0  501    0  0.00000000000E+00 -0.00000000000E+00 -0.10200020768E+04  0.10200020818E+04  0.10100000000E+00 0. -1.
     200001    2    1    2    0    0 -0.59834824977E+03 -0.26448262610E+02  0.17269257681E+03  0.93888248700E+03  0.70210929328E+03 0.  0.
    5000001    2    3    3    0    0 -0.30066111846E+03 -0.39852857442E+02 -0.90402551583E+01  0.32910864899E+03  0.12745751536E+03 0.  0.
        -13    1    4    4    0    0 -0.14638573341E+02 -0.17488648433E+02  0.30358250953E+02  0.37970715274E+02  0.10566000000E+00 0. -1.
     200003    1    4    4    0    0 -0.28602254512E+03 -0.22364209009E+02 -0.39398506111E+02  0.29113793371E+03  0.30000000000E+02 0. -1.
     200000    1    3    3    0    0 -0.29768713130E+03  0.13404594831E+02  0.18173283197E+03  0.60977383801E+03  0.50000000000E+03 0.  1.
    -200001    1    1    2    0    0  0.59834824977E+03  0.26448262610E+02 -0.30376587983E+03  0.97004837423E+03  0.70000000000E+03 0. -1.
<mgrwt>
<rscale>  0 0.19044256E+04</rscale>
<asrwt>0</asrwt>
<pdfrwt beam="1">  1        3 0.14571458E+00 0.19044256E+04</pdfrwt>
<pdfrwt beam="2">  1       -3 0.12698983E+00 0.19044256E+04</pdfrwt>
<totfact> 0.42289633E-01</totfact>
</mgrwt>
</event>
<event>
 8    1  0.1714417E-029  0.1593854E+04  0.7818608E-02  0.8824332E-01
          3   -1    0    0  501    0  0.00000000000E+00  0.00000000000E+00  0.19010508995E+04  0.19010509022E+04  0.10100000000E+00 0.  1.
         -3   -1    0    0    0  501 -0.00000000000E+00 -0.00000000000E+00 -0.33407468172E+03  0.33407469699E+03  0.10100000000E+00 0. -1.
     200001    2    1    2    0    0 -0.28499137607E+03  0.18804750971E+03  0.10123745228E+04  0.12790058418E+04  0.70311579315E+03 0.  0.
    5000001    2    3    3    0    0 -0.19968401524E-01 -0.76952545178E+01  0.26322793539E+03  0.31425481569E+03  0.17148739275E+03 0.  0.
        -13    1    4    4    0    0 -0.41645361563E+02 -0.26115353645E+02  0.25430653357E+03  0.25901384522E+03  0.10566000000E+00 0. -1.
     200003    1    4    4    0    0  0.41625393161E+02  0.18420099127E+02  0.89214018172E+01  0.55240970466E+02  0.30000000000E+02 0. -1.
     200000    1    3    3    0    0 -0.28497140766E+03  0.19574276423E+03  0.74914658745E+03  0.96475102613E+03  0.50000000000E+03 0.  1.
    -200001    1    1    2    0    0  0.28499137607E+03 -0.18804750971E+03  0.55460169491E+03  0.95611975732E+03  0.70000000000E+03 0. -1.
<mgrwt>
<rscale>  0 0.15938544E+04</rscale>
<asrwt>0</asrwt>
<pdfrwt beam="1">  1        3 0.27157870E+00 0.15938544E+04</pdfrwt>
<pdfrwt beam="2">  1       -3 0.47724957E-01 0.15938544E+04</pdfrwt>
<totfact> 0.61520941E-01</totfact>
</mgrwt>
</event>
<event>
 8    1  0.1714417E-029  0.1714800E+04  0.7818608E-02  0.8752968E-01
          3   -1    0    0  501    0  0.00000000000E+00  0.00000000000E+00  0.53014516405E+03  0.53014517368E+03  0.10100000000E+00 0.  1.
         -3   -1    0    0    0  501 -0.00000000000E+00 -0.00000000000E+00 -0.13866671316E+04  0.13866671353E+04  0.10100000000E+00 0. -1.
     200001    2    1    2    0    0  0.45812355840E+03 -0.81076537546E+02 -0.24309340112E+03  0.87626187490E+03  0.70163371643E+03 0.  0.
    5000001    2    3    3    0    0  0.12915347453E+03 -0.98564977921E+02 -0.97228953156E+02  0.25997979760E+03  0.17815821892E+03 0.  0.
        -13    1    4    4    0    0 -0.32753475762E+02 -0.62621204539E+02 -0.14136575594E+02  0.72069822853E+02  0.10566000000E+00 0. -1.
     200003    1    4    4    0    0  0.16190695030E+03 -0.35943773381E+02 -0.83092377562E+02  0.18790997474E+03  0.30000000000E+02 0. -1.
     200000    1    3    3    0    0  0.32897008386E+03  0.17488440375E+02 -0.14586444796E+03  0.61628207730E+03  0.50000000000E+03 0.  1.
    -200001    1    1    2    0    0 -0.45812355840E+03  0.81076537546E+02 -0.61342856642E+03  0.10405504341E+04  0.70000000000E+03 0. -1.
<mgrwt>
<rscale>  0 0.17148001E+04</rscale>
<asrwt>0</asrwt>
<pdfrwt beam="1">  1        3 0.75735025E-01 0.17148001E+04</pdfrwt>
<pdfrwt beam="2">  1       -3 0.19809530E+00 0.17148001E+04</pdfrwt>
<totfact> 0.61910298E-01</totfact>
</mgrwt>
</event>
<event>
 8    1  0.1714417E-029  0.1655584E+04  0.7818608E-02  0.8787110E-01
          3   -1    0    0  501    0  0.00000000000E+00  0.00000000000E+00  0.10019114485E+04  0.10019114536E+04  0.10100000000E+00 0. -1.
         -3   -1    0    0    0  501 -0.00000000000E+00 -0.00000000000E+00 -0.68393247773E+03  0.68393248519E+03  0.10100000000E+00 0.  1.
     200001    2    1    2    0    0  0.35809672952E+03 -0.24280324105E+03  0.69888039297E+02  0.82634653227E+03  0.70055518826E+03 0.  0.
    5000001    2    3    3    0    0  0.10761964897E+03 -0.65384189958E+02  0.92931624084E+02  0.23919468277E+03  0.18088871819E+03 0.  0.
        -13    1    4    4    0    0  0.58543919778E+02 -0.11433536523E+03  0.12816839310E+02  0.12909008025E+03  0.10566000000E+00 0. -1.
     200003    1    4    4    0    0  0.49075729191E+02  0.48951175273E+02  0.80114784774E+02  0.11010460252E+03  0.30000000000E+02 0. -1.
     200000    1    3    3    0    0  0.25047708055E+03 -0.17741905109E+03 -0.23043584787E+02  0.58715184950E+03  0.50000000000E+03 0.  1.
    -200001    1    1    2    0    0 -0.35809672952E+03  0.24280324105E+03  0.24809093150E+03  0.85949740654E+03  0.70000000000E+03 0. -1.
<mgrwt>
<rscale>  0 0.16555842E+04</rscale>
<asrwt>0</asrwt>
<pdfrwt beam="1">  1        3 0.14313021E+00 0.16555842E+04</pdfrwt>
<pdfrwt beam="2">  1       -3 0.97704641E-01 0.16555842E+04</pdfrwt>
<totfact> 0.84703612E-01</totfact>
</mgrwt>
</event>
<event>
 8    1  0.1714417E-029  0.1843908E+04  0.7818608E-02  0.8683292E-01
          3   -1    0    0  501    0  0.00000000000E+00  0.00000000000E+00  0.14226410546E+04  0.14226410582E+04  0.10100000000E+00 0.  1.
         -3   -1    0    0    0  501 -0.00000000000E+00 -0.00000000000E+00 -0.59747997657E+03  0.59747998511E+03  0.10100000000E+00 0. -1.
     200001    2    1    2    0    0 -0.31346393272E+03  0.27742023510E+02 -0.14727543978E+03  0.78130627177E+03  0.69980009872E+03 0.  0.
    5000001    2    3    3    0    0 -0.91552450239E+02  0.78524007124E+02  0.56111878723E+02  0.19548213669E+03  0.14323704825E+03 0.  0.
        -13    1    4    4    0    0 -0.12400416401E+03  0.66932323913E+02  0.49290609727E+02  0.14928678457E+03  0.10566000000E+00 0. -1.
     200003    1    4    4    0    0  0.32451713775E+02  0.11591683211E+02  0.68212689960E+01  0.46195352118E+02  0.30000000000E+02 0. -1.
     200000    1    3    3    0    0 -0.22191148248E+03 -0.50781983615E+02 -0.20338731850E+03  0.58582413508E+03  0.50000000000E+03 0. -1.
    -200001    1    1    2    0    0  0.31346393272E+03 -0.27742023510E+02  0.97243651781E+03  0.12388147715E+04  0.70000000000E+03 0.  1.
<mgrwt>
<rscale>  0 0.18439084E+04</rscale>
<asrwt>0</asrwt>
<pdfrwt beam="1">  1        3 0.20323444E+00 0.18439084E+04</pdfrwt>
<pdfrwt beam="2">  1       -3 0.85354284E-01 0.18439084E+04</pdfrwt>
<totfact> 0.43786729E-01</totfact>
</mgrwt>
</event>
<event>
 8    1  0.1714417E-029  0.1532247E+04  0.7818608E-02  0.8863288E-01
          3   -1    0    0  501    0  0.00000000000E+00  0.00000000000E+00  0.64999411826E+03  0.64999412610E+03  0.10100000000E+00 0.  1.
         -3   -1    0    0    0  501 -0.00000000000E+00 -0.00000000000E+00 -0.90300119661E+03  0.90300120226E+03  0.10100000000E+00 0. -1.
     200001    2    1    2    0    0  0.22767166846E+03 -0.21406751929E+02  0.84677880343E+02  0.74285721114E+03  0.70169356209E+03 0.  0.
    5000001    2    3    3    0    0  0.11042473126E+03  0.40618209063E+02  0.62803048804E+02  0.22510007858E+03  0.18133494493E+03 0.  0.
        -13    1    4    4    0    0  0.18853331511E+01 -0.58823264401E+02 -0.73237724481E+01  0.59307501404E+02  0.10566000000E+00 0. -1.
     200003    1    4    4    0    0  0.10853939811E+03  0.99441473464E+02  0.70126821252E+02  0.16579257717E+03  0.30000000000E+02 0. -1.
     200000    1    3    3    0    0  0.11724693720E+03 -0.62024960993E+02  0.21874831539E+02  0.51775713257E+03  0.50000000000E+03 0.  1.
    -200001    1    1    2    0    0 -0.22767166846E+03  0.21406751929E+02 -0.33768495870E+03  0.81013811722E+03  0.70000000000E+03 0. -1.
<mgrwt>
<rscale>  0 0.15322473E+04</rscale>
<asrwt>0</asrwt>
<pdfrwt beam="1">  1        3 0.92856304E-01 0.15322473E+04</pdfrwt>
<pdfrwt beam="2">  1       -3 0.12900017E+00 0.15322473E+04</pdfrwt>
<totfact> 0.12476872E+00</totfact>
</mgrwt>
</event>
<event>
 8    1  0.1714417E-029  0.1583273E+04  0.7818608E-02  0.8830890E-01
          3   -1    0    0  501    0  0.00000000000E+00  0.00000000000E+00  0.54558058398E+03  0.54558059332E+03  0.10100000000E+00 0. -1.
         -3   -1    0    0    0  501 -0.00000000000E+00 -0.00000000000E+00 -0.11486636526E+04  0.11486636571E+04  0.10100000000E+00 0.  1.
     200001    2    1    2    0    0 -0.32006100646E+03 -0.16937401774E+03 -0.22234591501E+03  0.81898006975E+03  0.70011716376E+03 0.  0.
    5000001    2    3    3    0    0 -0.16333853511E+03 -0.52820221948E+02 -0.37121123263E+02  0.25112890632E+03  0.17949455952E+03 0.  0.
        -13    1    4    4    0    0  0.15098428964E+02  0.41070480199E+02 -0.14144122772E+02  0.45987109868E+02  0.10566000000E+00 0. -1.
     200003    1    4    4    0    0 -0.17843696408E+03 -0.93890702147E+02 -0.22977000490E+02  0.20514179645E+03  0.30000000000E+02 0. -1.
     200000    1    3    3    0    0 -0.15672247135E+03 -0.11655379579E+03 -0.18522479175E+03  0.56785116344E+03  0.50000000000E+03 0. -1.
    -200001    1    1    2    0    0  0.32006100646E+03  0.16937401774E+03 -0.38073715364E+03  0.87526418063E+03  0.70000000000E+03 0.  1.
<mgrwt>
<rscale>  0 0.15832733E+04</rscale>
<asrwt>0</asrwt>
<pdfrwt beam="1">  1        3 0.77940085E-01 0.15832733E+04</pdfrwt>
<pdfrwt beam="2">  1       -3 0.16409481E+00 0.15832733E+04</pdfrwt>
<totfact> 0.99208659E-01</totfact>
</mgrwt>
</event>
<event>
 8    1  0.1714417E-029  0.1505919E+04  0.7818608E-02  0.8880526E-01
         -3   -1    0    0    0  501 -0.00000000000E+00  0.00000000000E+00  0.31823693263E+03  0.31823694866E+03  0.10100000000E+00 0. -1.
          3   -1    0    0  501    0  0.00000000000E+00 -0.00000000000E+00 -0.17815287585E+04  0.17815287614E+04  0.10100000000E+00 0.  1.
     200001    2    1    2    0    0 -0.25176080463E+03 -0.98362975833E+02 -0.82354107732E+03  0.11136927928E+04  0.69930891100E+03 0.  0.
    5000001    2    3    3    0    0 -0.87820959942E+02 -0.37465765296E+02 -0.59912263372E+02  0.18433080285E+03  0.14584978918E+03 0.  0.
        -13    1    4    4    0    0 -0.45748354726E+02  0.34410940861E+02  0.24263770287E+02  0.62175288690E+02  0.10566000000E+00 0. -1.
     200003    1    4    4    0    0 -0.42072605215E+02 -0.71876706158E+02 -0.84176033659E+02  0.12215551416E+03  0.30000000000E+02 0. -1.
     200000    1    3    3    0    0 -0.16393984469E+03 -0.60897210536E+02 -0.76362881394E+03  0.92936198998E+03  0.50000000000E+03 0.  1.
    -200001    1    1    2    0    0  0.25176080463E+03  0.98362975833E+02 -0.63975074857E+03  0.98607291721E+03  0.70000000000E+03 0. -1.
<mgrwt>
<rscale>  0 0.15059193E+04</rscale>
<asrwt>0</asrwt>
<pdfrwt beam="1">  1        3 0.25450410E+00 0.15059193E+04</pdfrwt>
<pdfrwt beam="2">  1       -3 0.45462421E-01 0.15059193E+04</pdfrwt>
<totfact> 0.85396172E-01</totfact>
</mgrwt>
</event>
<event>
 8    1  0.1714417E-029  0.1723077E+04  0.7818608E-02  0.8748311E-01
         -3   -1    0    0    0  501 -0.00000000000E+00  0.00000000000E+00  0.97829375897E+03  0.97829376418E+03  0.10100000000E+00 0. -1.
          3   -1    0    0  501    0  0.00000000000E+00 -0.00000000000E+00 -0.75871778499E+03  0.75871779171E+03  0.10100000000E+00 0.  1.
     200001    2    1    2    0    0 -0.35715870581E+03 -0.23056769916E+03 -0.15763225378E+03  0.83534096631E+03  0.70158591600E+03 0.  0.
    5000001    2    3    3    0    0 -0.20418995319E+03 -0.51093626402E+02  0.10585847508E+02  0.25749348499E+03  0.14794167432E+03 0.  0.
        -13    1    4    4    0    0 -0.20568279612E+03 -0.57840522850E+02 -0.19372262796E+02  0.21453725651E+03  0.10566000000E+00 0. -1.
     200003    1    4    4    0    0  0.14928429274E+01  0.67468964482E+01  0.29958110304E+02  0.42956228474E+02  0.30000000000E+02 0. -1.
     200000    1    3    3    0    0 -0.15296875262E+03 -0.17947407276E+03 -0.16821810129E+03  0.57784748132E+03  0.50000000000E+03 0.  1.
    -200001    1    1    2    0    0  0.35715870581E+03  0.23056769916E+03  0.37720822776E+03  0.90167058959E+03  0.70000000000E+03 0. -1.
<mgrwt>
<rscale>  0 0.17230773E+04</rscale>
<asrwt>0</asrwt>
<pdfrwt beam="1">  1        3 0.10838826E+00 0.17230773E+04</pdfrwt>
<pdfrwt beam="2">  1       -3 0.13975625E+00 0.17230773E+04</pdfrwt>
<totfact> 0.70020156E-01</totfact>
</mgrwt>
</event>
<event>
 8    1  0.1714417E-029  0.1836329E+04  0.7818608E-02  0.8687215E-01
          3   -1    0    0  501    0  0.00000000000E+00  0.00000000000E+00  0.14533236380E+04  0.14533236415E+04  0.10100000000E+00 0. -1.
         -3   -1    0    0    0  501 -0.00000000000E+00 -0.00000000000E+00 -0.58006750002E+03  0.58006750881E+03  0.10100000000E+00 0.  1.
     200001    2    1    2    0    0  0.17197248377E+03 -0.17190684380E+03 -0.16339110042E+03  0.75912116518E+03  0.70031549577E+03 0.  0.
    5000001    2    3    3    0    0 -0.35136706478E+01 -0.55694738910E+02 -0.65270455752E+02  0.20782423555E+03  0.18925229368E+03 0.  0.
        -13    1    4    4    0    0 -0.18077757725E+02  0.32287351405E+02  0.47977290362E+02  0.60589685093E+02  0.10566000000E+00 0. -1.
     200003    1    4    4    0    0  0.14564087077E+02 -0.87982090315E+02 -0.11324774611E+03  0.14723455046E+03  0.30000000000E+02 0. -1.
     200000    1    3    3    0    0  0.17548615441E+03 -0.11621210489E+03 -0.98120644667E+02  0.55129692963E+03  0.50000000000E+03 0.  1.
    -200001    1    1    2    0    0 -0.17197248377E+03  0.17190684380E+03  0.10366472384E+04  0.12742699851E+04  0.70000000000E+03 0. -1.
<mgrwt>
<rscale>  0 0.18363288E+04</rscale>
<asrwt>0</asrwt>
<pdfrwt beam="1">  1        3 0.20761767E+00 0.18363288E+04</pdfrwt>
<pdfrwt beam="2">  1       -3 0.82866785E-01 0.18363288E+04</pdfrwt>
<totfact> 0.43982302E-01</totfact>
</mgrwt>
</event>
<event>
 8    1  0.1714417E-029  0.1482166E+04  0.7818608E-02  0.8896400E-01
         -3   -1    0    0    0  501 -0.00000000000E+00  0.00000000000E+00  0.13244947919E+04  0.13244947957E+04  0.10100000000E+00 0. -1.
          3   -1    0    0  501    0  0.00000000000E+00 -0.00000000000E+00 -0.41465182551E+03  0.41465183781E+03  0.10100000000E+00 0.  1.
     200001    2    1    2    0    0  0.22573769371E+03 -0.81001600790E+01  0.56096063123E+03  0.92505695622E+03  0.70002173074E+03 0.  0.
    5000001    2    3    3    0    0  0.70283567934E+02  0.46779525338E+02  0.73210000279E+02  0.20736729969E+03  0.17468082015E+03 0.  0.
        -13    1    4    4    0    0  0.11589851068E+03 -0.70604617544E+01  0.55379590734E+02  0.12864379166E+03  0.10566000000E+00 0. -1.
     200003    1    4    4    0    0 -0.45614942750E+02  0.53839987092E+02  0.17830409545E+02  0.78723508031E+02  0.30000000000E+02 0. -1.
     200000    1    3    3    0    0  0.15545412577E+03 -0.54879685417E+02  0.48775063095E+03  0.71768965653E+03  0.50000000000E+03 0.  1.
    -200001    1    1    2    0    0 -0.22573769371E+03  0.81001600790E+01  0.34888233514E+03  0.81408967732E+03  0.70000000000E+03 0.  1.
<mgrwt>
<rscale>  0 0.14821662E+04</rscale>
<asrwt>0</asrwt>
<pdfrwt beam="1">  1        3 0.59235976E-01 0.14821662E+04</pdfrwt>
<pdfrwt beam="2">  1       -3 0.18921354E+00 0.14821662E+04</pdfrwt>
<totfact> 0.12210837E+00</totfact>
</mgrwt>
</event>
<event>
 8    1  0.1714417E-029  0.1614775E+04  0.7818608E-02  0.8811522E-01
          3   -1    0    0  501    0  0.00000000000E+00  0.00000000000E+00  0.24129060869E+03  0.24129062983E+03  0.10100000000E+00 0. -1.
         -3   -1    0    0    0  501 -0.00000000000E+00 -0.00000000000E+00 -0.27016144947E+04  0.27016144966E+04  0.10100000000E+00 0.  1.
     200001    2    1    2    0    0 -0.29482841641E+03 -0.26213296677E+03 -0.10946096387E+04  0.13583506487E+04  0.70093418839E+03 0.  0.
    5000001    2    3    3    0    0 -0.36029971103E+02 -0.16517252998E+03 -0.36758197740E+03  0.43371710951E+03  0.15624947199E+03 0.  0.
        -13    1    4    4    0    0 -0.40108573785E+02 -0.15979199280E+03 -0.36774942135E+03  0.40296628485E+03  0.10566000000E+00 0. -1.
     200003    1    4    4    0    0  0.40786026821E+01 -0.53805371869E+01  0.16744395305E+00  0.30750824668E+02  0.30000000000E+02 0. -1.
     200000    1    3    3    0    0 -0.25879844531E+03 -0.96960436786E+02 -0.72702766128E+03  0.92463353923E+03  0.50000000000E+03 0. -1.
    -200001    1    1    2    0    0  0.29482841641E+03  0.26213296677E+03 -0.13657142474E+04  0.15845544777E+04  0.70000000000E+03 0. -1.
<mgrwt>
<rscale>  0 0.16147746E+04</rscale>
<asrwt>0</asrwt>
<pdfrwt beam="1">  1        3 0.34470090E-01 0.16147746E+04</pdfrwt>
<pdfrwt beam="2">  1       -3 0.38594491E+00 0.16147746E+04</pdfrwt>
<totfact> 0.26715402E-01</totfact>
</mgrwt>
</event>
<event>
 8    1  0.1714417E-029  0.1437240E+04  0.7818608E-02  0.8927295E-01
         -3   -1    0    0    0  501 -0.00000000000E+00  0.00000000000E+00  0.37182588160E+03  0.37182589532E+03  0.10100000000E+00 0. -1.
          3   -1    0    0  501    0  0.00000000000E+00 -0.00000000000E+00 -0.13888612352E+04  0.13888612389E+04  0.10100000000E+00 0.  1.
     200001    2    1    2    0    0 -0.83819626259E+02  0.10445948055E+03 -0.39853223703E+03  0.81703273875E+03  0.70055480828E+03 0.  0.
    5000001    2    3    3    0    0 -0.22925682988E+02 -0.93388960125E+02 -0.11306709890E+03  0.20519744809E+03  0.14168535222E+03 0.  0.
        -13    1    4    4    0    0 -0.50424467975E+02 -0.36970692119E+02 -0.11997560407E+03  0.13529085624E+03  0.10566000000E+00 0. -1.
     200003    1    4    4    0    0  0.27498784987E+02 -0.56418268006E+02  0.69085051638E+01  0.69906591850E+02  0.30000000000E+02 0. -1.
     200000    1    3    3    0    0 -0.60893943271E+02  0.19784844068E+03 -0.28546513813E+03  0.61183529066E+03  0.50000000000E+03 0. -1.
    -200001    1    1    2    0    0  0.83819626259E+02 -0.10445948055E+03 -0.61850311654E+03  0.94365439542E+03  0.70000000000E+03 0.  1.
<mgrwt>
<rscale>  0 0.14372398E+04</rscale>
<asrwt>0</asrwt>
<pdfrwt beam="1">  1        3 0.19840875E+00 0.14372398E+04</pdfrwt>
<pdfrwt beam="2">  1       -3 0.53117985E-01 0.14372398E+04</pdfrwt>
<totfact> 0.13504625E+00</totfact>
</mgrwt>
</event>
<event>
 8    1  0.1714417E-029  0.1940569E+04  0.7818608E-02  0.8634922E-01
          3   -1    0    0  501    0  0.00000000000E+00  0.00000000000E+00  0.53748381712E+03  0.53748382661E+03  0.10100000000E+00 0.  1.
         -3   -1    0    0    0  501 -0.00000000000E+00 -0.00000000000E+00 -0.17515917054E+04  0.17515917083E+04  0.10100000000E+00 0. -1.
     200001    2    1    2    0    0 -0.21315897109E+02 -0.17692511856E+03 -0.13710289989E+04  0.15498995749E+04  0.70050789529E+03 0.  0.
    5000001    2    3    3    0    0  0.58380021077E+01 -0.48257770283E+02 -0.48412653334E+03  0.52330880727E+03  0.19264140991E+03 0.  0.
        -13    1    4    4    0    0  0.86121118185E+02  0.19751643572E+02 -0.24143128619E+03  0.25709152366E+03  0.10566000000E+00 0. -1.
     200003    1    4    4    0    0 -0.80283116078E+02 -0.68009413855E+02 -0.24269524715E+03  0.26621728361E+03  0.30000000000E+02 0. -1.
     200000    1    3    3    0    0 -0.27153899217E+02 -0.12866734828E+03 -0.88690246552E+03  0.10265907676E+04  0.50000000000E+03 0. -1.
    -200001    1    1    2    0    0  0.21315897109E+02  0.17692511856E+03  0.15692111055E+03  0.73917596010E+03  0.70000000000E+03 0.  1.
<mgrwt>
<rscale>  0 0.19405692E+04</rscale>
<asrwt>0</asrwt>
<pdfrwt beam="1">  1        3 0.76783404E-01 0.19405692E+04</pdfrwt>
<pdfrwt beam="2">  1       -3 0.25022738E+00 0.19405692E+04</pdfrwt>
<totfact> 0.28558124E-01</totfact>
</mgrwt>
</event>
<event>
 8    1  0.1714417E-029  0.1786618E+04  0.7818608E-02  0.8713448E-01
          3   -1    0    0  501    0  0.00000000000E+00  0.00000000000E+00  0.20978661514E+04  0.20978661538E+04  0.10100000000E+00 0.  1.
         -3   -1    0    0    0  501 -0.00000000000E+00 -0.00000000000E+00 -0.38038690664E+03  0.38038692005E+03  0.10100000000E+00 0. -1.
     200001    2    1    2    0    0 -0.25150077253E+03 -0.45679633111E+03  0.59467902478E+03  0.10560731061E+04  0.69980835681E+03 0.  0.
    5000001    2    3    3    0    0 -0.38127270953E+02 -0.13305972310E+03  0.24830050680E+03  0.33474674430E+03  0.17675876906E+03 0.  0.
        -13    1    4    4    0    0 -0.38923343976E+02 -0.11484489367E+03  0.26823841036E+03  0.29437430640E+03  0.10566000000E+00 0. -1.
     200003    1    4    4    0    0  0.79607302305E+00 -0.18214829427E+02 -0.19937903566E+02  0.40372437899E+02  0.30000000000E+02 0. -1.
     200000    1    3    3    0    0 -0.21337350158E+03 -0.32373660801E+03  0.34637851798E+03  0.72132636182E+03  0.50000000000E+03 0. -1.
    -200001    1    1    2    0    0  0.25150077253E+03  0.45679633111E+03  0.11228002200E+04  0.14221799677E+04  0.70000000000E+03 0.  1.
<mgrwt>
<rscale>  0 0.17866179E+04</rscale>
<asrwt>0</asrwt>
<pdfrwt beam="1">  1        3 0.29969517E+00 0.17866179E+04</pdfrwt>
<pdfrwt beam="2">  1       -3 0.54340988E-01 0.17866179E+04</pdfrwt>
<totfact> 0.32350824E-01</totfact>
</mgrwt>
</event>
