<event>
 4    1  0.6086918E-004  0.1621731E+03  0.7818608E-02  0.1186265E+00
          2   -1    0    0  501    0  0.00000000000E+00  0.00000000000E+00  0.17590455839E+03  0.17590455840E+03  0.25500000000E-02 0.  1.
         -2   -1    0    0    0  501 -0.00000000000E+00 -0.00000000000E+00 -0.37378400855E+02  0.37378400942E+02  0.25500000000E-02 0. -1.
    5000001    1    1    2    0    0 -0.65788277641E+01 -0.43640931169E+01  0.37488931983E+02  0.86004338871E+02  0.77000000000E+02 0.  0.
   -5000001    1    1    2    0    0  0.65788277641E+01  0.43640931169E+01  0.10103722555E+03  0.12727862048E+03  0.77000000000E+02 0.  0.
<mgrwt>
<rscale>  0 0.16217313E+03</rscale>
<asrwt>0</asrwt>
<pdfrwt beam="1">  1        2 0.27062239E-01 0.16217313E+03</pdfrwt>
<pdfrwt beam="2">  1       -2 0.57505233E-02 0.16217313E+03</pdfrwt>
<totfact> 0.29249982E+04</totfact>
</mgrwt>
</event>
<event>
 4    1  0.6086918E-004  0.4419046E+03  0.7818608E-02  0.1030164E+00
         -2   -1    0    0    0  501 -0.00000000000E+00  0.00000000000E+00  0.28759552045E+02  0.28759552158E+02  0.25500000000E-02 0. -1.
          2   -1    0    0  501    0  0.00000000000E+00 -0.00000000000E+00 -0.16975199948E+04  0.16975199948E+04  0.25500000000E-02 0.  1.
    5000001    1    1    2    0    0 -0.26346749312E+02  0.11895007946E+03 -0.14886107408E+04  0.14955715330E+04  0.77000000000E+02 0.  0.
   -5000001    1    1    2    0    0  0.26346749312E+02 -0.11895007946E+03 -0.18014970193E+03  0.23070801397E+03  0.77000000000E+02 0.  0.
<mgrwt>
<rscale>  0 0.44190458E+03</rscale>
<asrwt>0</asrwt>
<pdfrwt beam="1">  1        2 0.26115684E+00 0.44190458E+03</pdfrwt>
<pdfrwt beam="2">  1       -2 0.44245478E-02 0.44190458E+03</pdfrwt>
<totfact> 0.25162649E+03</totfact>
</mgrwt>
</event>
<event>
 4    1  0.6086918E-004  0.2300950E+03  0.7818608E-02  0.1126573E+00
         -2   -1    0    0    0  501 -0.00000000000E+00  0.00000000000E+00  0.65494809484E+02  0.65494809534E+02  0.25500000000E-02 0. -1.
          2   -1    0    0  501    0  0.00000000000E+00 -0.00000000000E+00 -0.20209131188E+03  0.20209131190E+03  0.25500000000E-02 0.  1.
    5000001    1    1    2    0    0  0.15049553579E+02 -0.82529381658E+02 -0.87384036856E+02  0.14353591118E+03  0.77000000000E+02 0.  0.
   -5000001    1    1    2    0    0 -0.15049553579E+02  0.82529381658E+02 -0.49212465541E+02  0.12405021026E+03  0.77000000000E+02 0.  0.
<mgrwt>
<rscale>  0 0.23009504E+03</rscale>
<asrwt>0</asrwt>
<pdfrwt beam="1">  1        2 0.31090971E-01 0.23009504E+03</pdfrwt>
<pdfrwt beam="2">  1       -2 0.10076125E-01 0.23009504E+03</pdfrwt>
<totfact> 0.10818960E+04</totfact>
</mgrwt>
</event>
<event>
 4    1  0.6086918E-004  0.2014675E+03  0.7818608E-02  0.1148507E+00
         -2   -1    0    0    0  501 -0.00000000000E+00  0.00000000000E+00  0.10788323070E+02  0.10788323372E+02  0.25500000000E-02 0. -1.
          2   -1    0    0  501    0  0.00000000000E+00 -0.00000000000E+00 -0.94058108867E+03  0.94058108867E+03  0.25500000000E-02 0.  1.
    5000001    1    1    2    0    0  0.20915529539E+02  0.59254881398E+02 -0.38734697368E+03  0.39989408393E+03  0.77000000000E+02 0.  0.
   -5000001    1    1    2    0    0 -0.20915529539E+02 -0.59254881398E+02 -0.54244579192E+03  0.55147532811E+03  0.77000000000E+02 0.  0.
<mgrwt>
<rscale>  0 0.20146754E+03</rscale>
<asrwt>0</asrwt>
<pdfrwt beam="1">  1        2 0.14470472E+00 0.20146754E+03</pdfrwt>
<pdfrwt beam="2">  1       -2 0.16597428E-02 0.20146754E+03</pdfrwt>
<totfact> 0.28422720E+04</totfact>
</mgrwt>
</event>
<event>
 4    1  0.6086918E-004  0.2972307E+03  0.7818608E-02  0.1086633E+00
         -2   -1    0    0    0  501 -0.00000000000E+00  0.00000000000E+00  0.19189078901E+02  0.19189079071E+02  0.25500000000E-02 0. -1.
          2   -1    0    0  501    0  0.00000000000E+00 -0.00000000000E+00 -0.11509940093E+04  0.11509940093E+04  0.25500000000E-02 0.  1.
    5000001    1    1    2    0    0  0.21106410707E+02  0.12493259589E+03 -0.60602866380E+03  0.62390173540E+03  0.77000000000E+02 0.  0.
   -5000001    1    1    2    0    0 -0.21106410707E+02 -0.12493259589E+03 -0.52577626661E+03  0.54628135299E+03  0.77000000000E+02 0.  0.
<mgrwt>
<rscale>  0 0.29723065E+03</rscale>
<asrwt>0</asrwt>
<pdfrwt beam="1">  1        2 0.17707595E+00 0.29723065E+03</pdfrwt>
<pdfrwt beam="2">  1       -2 0.29521669E-02 0.29723065E+03</pdfrwt>
<totfact> 0.92609915E+03</totfact>
</mgrwt>
</event>
<event>
 4    1  0.6086918E-004  0.2195464E+03  0.7818608E-02  0.1134222E+00
         -2   -1    0    0    0  501 -0.00000000000E+00  0.00000000000E+00  0.46342231127E+02  0.46342231197E+02  0.25500000000E-02 0. -1.
          2   -1    0    0  501    0  0.00000000000E+00 -0.00000000000E+00 -0.26002545928E+03  0.26002545930E+03  0.25500000000E-02 0.  1.
    5000001    1    1    2    0    0  0.63466102685E+02 -0.16075459731E+01 -0.43036556665E+02  0.10868153295E+03  0.77000000000E+02 0.  0.
   -5000001    1    1    2    0    0 -0.63466102685E+02  0.16075459731E+01 -0.17064667149E+03  0.19768615755E+03  0.77000000000E+02 0.  0.
<mgrwt>
<rscale>  0 0.21954644E+03</rscale>
<asrwt>0</asrwt>
<pdfrwt beam="1">  1        2 0.40003916E-01 0.21954644E+03</pdfrwt>
<pdfrwt beam="2">  1       -2 0.71295742E-02 0.21954644E+03</pdfrwt>
<totfact> 0.14111517E+04</totfact>
</mgrwt>
</event>
<event>
 4    1  0.6086918E-004  0.2971675E+03  0.7818608E-02  0.1086665E+00
         -2   -1    0    0    0  501 -0.00000000000E+00  0.00000000000E+00  0.11727887999E+03  0.11727888001E+03  0.25500000000E-02 0. -1.
          2   -1    0    0  501    0  0.00000000000E+00 -0.00000000000E+00 -0.18824470331E+03  0.18824470333E+03  0.25500000000E-02 0.  1.
    5000001    1    1    2    0    0  0.12161847848E+03 -0.20866266496E+02 -0.42701790689E+01  0.14551182019E+03  0.77000000000E+02 0.  0.
   -5000001    1    1    2    0    0 -0.12161847848E+03  0.20866266496E+02 -0.66695644256E+02  0.16001176315E+03  0.77000000000E+02 0.  0.
<mgrwt>
<rscale>  0 0.29716748E+03</rscale>
<asrwt>0</asrwt>
<pdfrwt beam="1">  1        2 0.28960724E-01 0.29716748E+03</pdfrwt>
<pdfrwt beam="2">  1       -2 0.18042905E-01 0.29716748E+03</pdfrwt>
<totfact> 0.45608731E+03</totfact>
</mgrwt>
</event>
<event>
 4    1  0.6086918E-004  0.2328645E+03  0.7818608E-02  0.1124640E+00
          2   -1    0    0  501    0  0.00000000000E+00  0.00000000000E+00  0.40173883380E+02  0.40173883461E+02  0.25500000000E-02 0.  1.
         -2   -1    0    0    0  501 -0.00000000000E+00 -0.00000000000E+00 -0.33744472666E+03  0.33744472667E+03  0.25500000000E-02 0. -1.
    5000001    1    1    2    0    0 -0.66025559483E+01 -0.35865143883E+02 -0.19947905727E+02  0.87503264132E+02  0.77000000000E+02 0.  0.
   -5000001    1    1    2    0    0  0.66025559483E+01  0.35865143883E+02 -0.27732293756E+03  0.29011534600E+03  0.77000000000E+02 0.  0.
<mgrwt>
<rscale>  0 0.23286447E+03</rscale>
<asrwt>0</asrwt>
<pdfrwt beam="1">  1        2 0.61805977E-02 0.23286447E+03</pdfrwt>
<pdfrwt beam="2">  1       -2 0.51914571E-01 0.23286447E+03</pdfrwt>
<totfact> 0.41737301E+03</totfact>
</mgrwt>
</event>
<event>
 4    1  0.6086918E-004  0.4453689E+03  0.7818608E-02  0.1029112E+00
         -2   -1    0    0    0  501 -0.00000000000E+00  0.00000000000E+00  0.77074578201E+02  0.77074578243E+02  0.25500000000E-02 0. -1.
          2   -1    0    0  501    0  0.00000000000E+00 -0.00000000000E+00 -0.64338170957E+03  0.64338170957E+03  0.25500000000E-02 0.  1.
    5000001    1    1    2    0    0 -0.15723652489E+02  0.19444427276E+03 -0.16206031683E+03  0.26504406190E+03  0.77000000000E+02 0.  0.
   -5000001    1    1    2    0    0  0.15723652489E+02 -0.19444427276E+03 -0.40424681454E+03  0.45541222592E+03  0.77000000000E+02 0.  0.
<mgrwt>
<rscale>  0 0.44536894E+03</rscale>
<asrwt>0</asrwt>
<pdfrwt beam="1">  1        2 0.98981798E-01 0.44536894E+03</pdfrwt>
<pdfrwt beam="2">  1       -2 0.11857628E-01 0.44536894E+03</pdfrwt>
<totfact> 0.23539636E+03</totfact>
</mgrwt>
</event>
<event>
 4    1  0.6086918E-004  0.4988087E+03  0.7818608E-02  0.1014090E+00
          2   -1    0    0  501    0  0.00000000000E+00  0.00000000000E+00  0.15111063061E+04  0.15111063061E+04  0.25500000000E-02 0.  1.
         -2   -1    0    0    0  501 -0.00000000000E+00 -0.00000000000E+00 -0.41163572165E+02  0.41163572244E+02  0.25500000000E-02 0. -1.
    5000001    1    1    2    0    0 -0.20634238588E+03 -0.10825193942E+03  0.59657261544E+03  0.64507638935E+03  0.77000000000E+02 0.  0.
   -5000001    1    1    2    0    0  0.20634238588E+03  0.10825193942E+03  0.87337011853E+03  0.90719348903E+03  0.77000000000E+02 0.  0.
<mgrwt>
<rscale>  0 0.49880872E+03</rscale>
<asrwt>0</asrwt>
<pdfrwt beam="1">  1        2 0.23247785E+00 0.49880872E+03</pdfrwt>
<pdfrwt beam="2">  1       -2 0.63328585E-02 0.49880872E+03</pdfrwt>
<totfact> 0.18196186E+03</totfact>
</mgrwt>
</event>
<event>
 4    1  0.6086918E-004  0.3289196E+03  0.7818608E-02  0.1071616E+00
         -2   -1    0    0    0  501 -0.00000000000E+00  0.00000000000E+00  0.19216203351E+02  0.19216203520E+02  0.25500000000E-02 0. -1.
          2   -1    0    0  501    0  0.00000000000E+00 -0.00000000000E+00 -0.14075112901E+04  0.14075112901E+04  0.25500000000E-02 0.  1.
    5000001    1    1    2    0    0  0.11164285124E+03 -0.88567609180E+01 -0.10958272391E+04  0.11042232140E+04  0.77000000000E+02 0.  0.
   -5000001    1    1    2    0    0 -0.11164285124E+03  0.88567609180E+01 -0.29246784767E+03  0.32250427961E+03  0.77000000000E+02 0.  0.
<mgrwt>
<rscale>  0 0.32891958E+03</rscale>
<asrwt>0</asrwt>
<pdfrwt beam="1">  1        2 0.21654012E+00 0.32891958E+03</pdfrwt>
<pdfrwt beam="2">  1       -2 0.29563401E-02 0.32891958E+03</pdfrwt>
<totfact> 0.66474238E+03</totfact>
</mgrwt>
</event>
<event>
 4    1  0.6086918E-004  0.2031513E+03  0.7818608E-02  0.1147107E+00
         -2   -1    0    0    0  501 -0.00000000000E+00  0.00000000000E+00  0.76803050809E+01  0.76803055042E+01  0.25500000000E-02 0. -1.
          2   -1    0    0  501    0  0.00000000000E+00 -0.00000000000E+00 -0.13433851878E+04  0.13433851879E+04  0.25500000000E-02 0.  1.
    5000001    1    1    2    0    0  0.65214930405E+02  0.61428379544E+01 -0.73365137818E+03  0.74058359846E+03  0.77000000000E+02 0.  0.
   -5000001    1    1    2    0    0 -0.65214930405E+02 -0.61428379544E+01 -0.60205350459E+03  0.61048189489E+03  0.77000000000E+02 0.  0.
<mgrwt>
<rscale>  0 0.20315126E+03</rscale>
<asrwt>0</asrwt>
<pdfrwt beam="1">  1        2 0.20667446E+00 0.20315126E+03</pdfrwt>
<pdfrwt beam="2">  1       -2 0.11815865E-02 0.20315126E+03</pdfrwt>
<totfact> 0.27283192E+04</totfact>
</mgrwt>
</event>
<event>
 4    1  0.6086918E-004  0.1650021E+03  0.7818608E-02  0.1183162E+00
          2   -1    0    0  501    0  0.00000000000E+00  0.00000000000E+00  0.47754958423E+03  0.47754958424E+03  0.25500000000E-02 0.  1.
         -2   -1    0    0    0  501 -0.00000000000E+00 -0.00000000000E+00 -0.14252812841E+02  0.14252813069E+02  0.25500000000E-02 0. -1.
    5000001    1    1    2    0    0 -0.16271900018E+02  0.24538385641E+02  0.24131476110E+03  0.25500729603E+03  0.77000000000E+02 0.  0.
   -5000001    1    1    2    0    0  0.16271900018E+02 -0.24538385641E+02  0.22198201029E+03  0.23679510128E+03  0.77000000000E+02 0.  0.
<mgrwt>
<rscale>  0 0.16500212E+03</rscale>
<asrwt>0</asrwt>
<pdfrwt beam="1">  1        2 0.73469157E-01 0.16500212E+03</pdfrwt>
<pdfrwt beam="2">  1       -2 0.21927408E-02 0.16500212E+03</pdfrwt>
<totfact> 0.41931386E+04</totfact>
</mgrwt>
</event>
<event>
 4    1  0.6086918E-004  0.2130185E+03  0.7818608E-02  0.1139198E+00
         -2   -1    0    0    0  501 -0.00000000000E+00  0.00000000000E+00  0.36872365594E+02  0.36872365682E+02  0.25500000000E-02 0. -1.
          2   -1    0    0  501    0  0.00000000000E+00 -0.00000000000E+00 -0.30766180402E+03  0.30766180403E+03  0.25500000000E-02 0.  1.
    5000001    1    1    2    0    0 -0.38126926235E+02  0.40015319533E+02 -0.21397279635E+03  0.23402616494E+03  0.77000000000E+02 0.  0.
   -5000001    1    1    2    0    0  0.38126926235E+02 -0.40015319533E+02 -0.56816642083E+02  0.11050800477E+03  0.77000000000E+02 0.  0.
<mgrwt>
<rscale>  0 0.21301848E+03</rscale>
<asrwt>0</asrwt>
<pdfrwt beam="1">  1        2 0.47332583E-01 0.21301848E+03</pdfrwt>
<pdfrwt beam="2">  1       -2 0.56726719E-02 0.21301848E+03</pdfrwt>
<totfact> 0.16701814E+04</totfact>
</mgrwt>
</event>
<event>
 4    1  0.6086918E-004  0.2273930E+03  0.7818608E-02  0.1128488E+00
         -2   -1    0    0    0  501 -0.00000000000E+00  0.00000000000E+00  0.16576310271E+02  0.16576310467E+02  0.25500000000E-02 0. -1.
          2   -1    0    0  501    0  0.00000000000E+00 -0.00000000000E+00 -0.77984176476E+03  0.77984176477E+03  0.25500000000E-02 0.  1.
    5000001    1    1    2    0    0  0.31707919616E+02  0.64198178760E+02 -0.53313268997E+03  0.54340248751E+03  0.77000000000E+02 0.  0.
   -5000001    1    1    2    0    0 -0.31707919616E+02 -0.64198178760E+02 -0.23013276452E+03  0.25301558772E+03  0.77000000000E+02 0.  0.
<mgrwt>
<rscale>  0 0.22739304E+03</rscale>
<asrwt>0</asrwt>
<pdfrwt beam="1">  1        2 0.11997563E+00 0.22739304E+03</pdfrwt>
<pdfrwt beam="2">  1       -2 0.25502022E-02 0.22739304E+03</pdfrwt>
<totfact> 0.19470200E+04</totfact>
</mgrwt>
</event>
<event>
 4    1  0.6086918E-004  0.2439256E+03  0.7818608E-02  0.1117205E+00
         -2   -1    0    0    0  501 -0.00000000000E+00  0.00000000000E+00  0.52064154465E+01  0.52064160709E+01  0.25500000000E-02 0. -1.
          2   -1    0    0  501    0  0.00000000000E+00 -0.00000000000E+00 -0.28570365965E+04  0.28570365965E+04  0.25500000000E-02 0.  1.
    5000001    1    1    2    0    0  0.17942308499E+01 -0.82779372878E+02 -0.19623920257E+04  0.19656467400E+04  0.77000000000E+02 0.  0.
   -5000001    1    1    2    0    0 -0.17942308499E+01  0.82779372878E+02 -0.88943815534E+03  0.89659627259E+03  0.77000000000E+02 0.  0.
<mgrwt>
<rscale>  0 0.24392557E+03</rscale>
<asrwt>0</asrwt>
<pdfrwt beam="1">  1        2 0.43954284E+00 0.24392557E+03</pdfrwt>
<pdfrwt beam="2">  1       -2 0.80098932E-03 0.24392557E+03</pdfrwt>
<totfact> 0.74366429E+03</totfact>
</mgrwt>
</event>
<event>
 4    1  0.6086918E-004  0.2348625E+03  0.7818608E-02  0.1123263E+00
         -2   -1    0    0    0  501 -0.00000000000E+00  0.00000000000E+00  0.75642638274E+01  0.75642642572E+01  0.25500000000E-02 0. -1.
          2   -1    0    0  501    0  0.00000000000E+00 -0.00000000000E+00 -0.18230591674E+04  0.18230591674E+04  0.25500000000E-02 0.  1.
    5000001    1    1    2    0    0 -0.36218586052E+02  0.80259211537E+02 -0.98866488433E+03  0.99556043539E+03  0.77000000000E+02 0.  0.
   -5000001    1    1    2    0    0  0.36218586052E+02 -0.80259211537E+02 -0.82683001923E+03  0.83506299626E+03  0.77000000000E+02 0.  0.
<mgrwt>
<rscale>  0 0.23486252E+03</rscale>
<asrwt>0</asrwt>
<pdfrwt beam="1">  1        2 0.28047029E+00 0.23486252E+03</pdfrwt>
<pdfrwt beam="2">  1       -2 0.11637344E-02 0.23486252E+03</pdfrwt>
<totfact> 0.15657969E+04</totfact>
</mgrwt>
</event>
<event>
 4    1  0.6086918E-004  0.2253586E+03  0.7818608E-02  0.1129950E+00
         -2   -1    0    0    0  501 -0.00000000000E+00  0.00000000000E+00  0.35575839212E+02  0.35575839303E+02  0.25500000000E-02 0. -1.
          2   -1    0    0  501    0  0.00000000000E+00 -0.00000000000E+00 -0.35688906432E+03  0.35688906433E+03  0.25500000000E-02 0.  1.
    5000001    1    1    2    0    0  0.33460477915E+02 -0.72050828571E+02 -0.19787378126E+03  0.22670235727E+03  0.77000000000E+02 0.  0.
   -5000001    1    1    2    0    0 -0.33460477915E+02  0.72050828571E+02 -0.12343944385E+03  0.16576254637E+03  0.77000000000E+02 0.  0.
<mgrwt>
<rscale>  0 0.22535863E+03</rscale>
<asrwt>0</asrwt>
<pdfrwt beam="1">  1        2 0.54906007E-01 0.22535863E+03</pdfrwt>
<pdfrwt beam="2">  1       -2 0.54732063E-02 0.22535863E+03</pdfrwt>
<totfact> 0.15095459E+04</totfact>
</mgrwt>
</event>
<event>
 4    1  0.6086918E-004  0.7431020E+03  0.7818608E-02  0.9646235E-01
         -2   -1    0    0    0  501 -0.00000000000E+00  0.00000000000E+00  0.28689560588E+03  0.28689560589E+03  0.25500000000E-02 0.  1.
          2   -1    0    0  501    0  0.00000000000E+00 -0.00000000000E+00 -0.48118603379E+03  0.48118603380E+03  0.25500000000E-02 0. -1.
    5000001    1    1    2    0    0 -0.11991420441E+03 -0.32333378993E+03 -0.21588508799E+03  0.41407671674E+03  0.77000000000E+02 0.  0.
   -5000001    1    1    2    0    0  0.11991420441E+03  0.32333378993E+03  0.21594660086E+02  0.35400492295E+03  0.77000000000E+02 0.  0.
<mgrwt>
<rscale>  0 0.74310204E+03</rscale>
<asrwt>0</asrwt>
<pdfrwt beam="1">  1        2 0.74028621E-01 0.74310204E+03</pdfrwt>
<pdfrwt beam="2">  1       -2 0.44137785E-01 0.74310204E+03</pdfrwt>
<totfact> 0.31589644E+02</totfact>
</mgrwt>
</event>
<event>
 4    1  0.6086918E-004  0.2230045E+03  0.7818608E-02  0.1131663E+00
         -2   -1    0    0    0  501 -0.00000000000E+00  0.00000000000E+00  0.64684212829E+01  0.64684217856E+01  0.25500000000E-02 0. -1.
          2   -1    0    0  501    0  0.00000000000E+00 -0.00000000000E+00 -0.19220696155E+04  0.19220696155E+04  0.25500000000E-02 0.  1.
    5000001    1    1    2    0    0  0.67129083420E+01 -0.68255956208E+02 -0.13246845957E+04  0.13286919194E+04  0.77000000000E+02 0.  0.
   -5000001    1    1    2    0    0 -0.67129083420E+01  0.68255956208E+02 -0.59091659858E+03  0.59984611791E+03  0.77000000000E+02 0.  0.
<mgrwt>
<rscale>  0 0.22300454E+03</rscale>
<asrwt>0</asrwt>
<pdfrwt beam="1">  1        2 0.29570256E+00 0.22300454E+03</pdfrwt>
<pdfrwt beam="2">  1       -2 0.99514331E-03 0.22300454E+03</pdfrwt>
<totfact> 0.17412514E+04</totfact>
</mgrwt>
</event>
<event>
 4    1  0.6086918E-004  0.1978769E+03  0.7818608E-02  0.1151543E+00
          2   -1    0    0  501    0  0.00000000000E+00  0.00000000000E+00  0.10578669277E+03  0.10578669280E+03  0.25500000000E-02 0.  1.
         -2   -1    0    0    0  501 -0.00000000000E+00 -0.00000000000E+00 -0.92533582742E+02  0.92533582777E+02  0.25500000000E-02 0. -1.
    5000001    1    1    2    0    0 -0.13677246104E+02 -0.60603251475E+02  0.66031586086E+01  0.99158574283E+02  0.77000000000E+02 0.  0.
   -5000001    1    1    2    0    0  0.13677246104E+02  0.60603251475E+02  0.66499514232E+01  0.99161701298E+02  0.77000000000E+02 0.  0.
<mgrwt>
<rscale>  0 0.19787695E+03</rscale>
<asrwt>0</asrwt>
<pdfrwt beam="1">  1        2 0.16274876E-01 0.19787695E+03</pdfrwt>
<pdfrwt beam="2">  1       -2 0.14235936E-01 0.19787695E+03</pdfrwt>
<totfact> 0.12742984E+04</totfact>
</mgrwt>
</event>
<event>
 4    1  0.6086918E-004  0.2499410E+03  0.7818608E-02  0.1113342E+00
         -2   -1    0    0    0  501 -0.00000000000E+00  0.00000000000E+00  0.14321243081E+02  0.14321243308E+02  0.25500000000E-02 0. -1.
          2   -1    0    0  501    0  0.00000000000E+00 -0.00000000000E+00 -0.10905217716E+04  0.10905217716E+04  0.25500000000E-02 0.  1.
    5000001    1    1    2    0    0 -0.39018247811E+02 -0.89658945264E+02 -0.48819117959E+03  0.50380629011E+03  0.77000000000E+02 0.  0.
   -5000001    1    1    2    0    0  0.39018247811E+02  0.89658945264E+02 -0.58800934892E+03  0.60103672479E+03  0.77000000000E+02 0.  0.
<mgrwt>
<rscale>  0 0.24994101E+03</rscale>
<asrwt>0</asrwt>
<pdfrwt beam="1">  1        2 0.16777252E+00 0.24994101E+03</pdfrwt>
<pdfrwt beam="2">  1       -2 0.22032690E-02 0.24994101E+03</pdfrwt>
<totfact> 0.15410250E+04</totfact>
</mgrwt>
</event>
<event>
 4    1  0.6086918E-004  0.2419436E+03  0.7818608E-02  0.1118505E+00
         -2   -1    0    0    0  501 -0.00000000000E+00  0.00000000000E+00  0.21718753180E+02  0.21718753329E+02  0.25500000000E-02 0. -1.
          2   -1    0    0  501    0  0.00000000000E+00 -0.00000000000E+00 -0.67380387341E+03  0.67380387341E+03  0.25500000000E-02 0.  1.
    5000001    1    1    2    0    0 -0.78529208059E+02 -0.48793441404E+02 -0.36212513263E+03  0.38159041933E+03  0.77000000000E+02 0.  0.
   -5000001    1    1    2    0    0  0.78529208059E+02  0.48793441404E+02 -0.28995998760E+03  0.31393220741E+03  0.77000000000E+02 0.  0.
<mgrwt>
<rscale>  0 0.24194363E+03</rscale>
<asrwt>0</asrwt>
<pdfrwt beam="1">  1        2 0.10366212E+00 0.24194363E+03</pdfrwt>
<pdfrwt beam="2">  1       -2 0.33413472E-02 0.24194363E+03</pdfrwt>
<totfact> 0.15645303E+04</totfact>
</mgrwt>
</event>
<event>
 4    1  0.6086918E-004  0.3189994E+03  0.7818608E-02  0.1076111E+00
         -2   -1    0    0    0  501 -0.00000000000E+00  0.00000000000E+00  0.18949908180E+02  0.18949908351E+02  0.25500000000E-02 0. -1.
          2   -1    0    0  501    0  0.00000000000E+00 -0.00000000000E+00 -0.13424947088E+04  0.13424947088E+04  0.25500000000E-02 0.  1.
    5000001    1    1    2    0    0 -0.35975647797E+02 -0.10637502406E+03 -0.10163197856E+04  0.10253998243E+04  0.77000000000E+02 0.  0.
   -5000001    1    1    2    0    0  0.35975647797E+02  0.10637502406E+03 -0.30722501497E+03  0.33604479285E+03  0.77000000000E+02 0.  0.
<mgrwt>
<rscale>  0 0.31899938E+03</rscale>
<asrwt>0</asrwt>
<pdfrwt beam="1">  1        2 0.20653757E+00 0.31899938E+03</pdfrwt>
<pdfrwt beam="2">  1       -2 0.29153716E-02 0.31899938E+03</pdfrwt>
<totfact> 0.73665628E+03</totfact>
</mgrwt>
</event>
<event>
 4    1  0.6086918E-004  0.2352968E+03  0.7818608E-02  0.1122966E+00
         -2   -1    0    0    0  501 -0.00000000000E+00  0.00000000000E+00  0.40843360415E+02  0.40843360495E+02  0.25500000000E-02 0. -1.
          2   -1    0    0  501    0  0.00000000000E+00 -0.00000000000E+00 -0.33888361999E+03  0.33888362000E+03  0.25500000000E-02 0.  1.
    5000001    1    1    2    0    0 -0.79784175742E+02  0.13733378858E+02 -0.20849169828E+03  0.23654155797E+03  0.77000000000E+02 0.  0.
   -5000001    1    1    2    0    0  0.79784175742E+02 -0.13733378858E+02 -0.89548561287E+02  0.14318542252E+03  0.77000000000E+02 0.  0.
<mgrwt>
<rscale>  0 0.23529680E+03</rscale>
<asrwt>0</asrwt>
<pdfrwt beam="1">  1        2 0.52135940E-01 0.23529680E+03</pdfrwt>
<pdfrwt beam="2">  1       -2 0.62835941E-02 0.23529680E+03</pdfrwt>
<totfact> 0.12956212E+04</totfact>
</mgrwt>
</event>
<event>
 4    1  0.6086918E-004  0.2720094E+03  0.7818608E-02  0.1100135E+00
         -2   -1    0    0    0  501 -0.00000000000E+00  0.00000000000E+00  0.75979076364E+02  0.75979076407E+02  0.25500000000E-02 0. -1.
          2   -1    0    0  501    0  0.00000000000E+00 -0.00000000000E+00 -0.24345234749E+03  0.24345234751E+03  0.25500000000E-02 0.  1.
    5000001    1    1    2    0    0 -0.97341378383E+02  0.50091648904E+02 -0.11211017573E+03  0.17459154830E+03  0.77000000000E+02 0.  0.
   -5000001    1    1    2    0    0  0.97341378383E+02 -0.50091648904E+02 -0.55363095397E+02  0.14483987561E+03  0.77000000000E+02 0.  0.
<mgrwt>
<rscale>  0 0.27200944E+03</rscale>
<asrwt>0</asrwt>
<pdfrwt beam="1">  1        2 0.37454207E-01 0.27200944E+03</pdfrwt>
<pdfrwt beam="2">  1       -2 0.11689089E-01 0.27200944E+03</pdfrwt>
<totfact> 0.70252084E+03</totfact>
</mgrwt>
</event>
<event>
 4    1  0.6086918E-004  0.1959748E+03  0.7818608E-02  0.1153180E+00
          2   -1    0    0  501    0  0.00000000000E+00  0.00000000000E+00  0.31023070536E+04  0.31023070536E+04  0.25500000000E-02 0.  1.
         -2   -1    0    0    0  501 -0.00000000000E+00 -0.00000000000E+00 -0.30949642548E+01  0.30949653053E+01  0.25500000000E-02 0. -1.
    5000001    1    1    2    0    0  0.73131034026E+01 -0.53952458124E+02  0.19712928249E+04  0.19735472507E+04  0.77000000000E+02 0.  0.
   -5000001    1    1    2    0    0 -0.73131034026E+01  0.53952458124E+02  0.11279192645E+04  0.11318547683E+04  0.77000000000E+02 0.  0.
<mgrwt>
<rscale>  0 0.19597481E+03</rscale>
<asrwt>0</asrwt>
<pdfrwt beam="1">  1        2 0.47728044E+00 0.19597481E+03</pdfrwt>
<pdfrwt beam="2">  1       -2 0.47614600E-03 0.19597481E+03</pdfrwt>
<totfact> 0.11264202E+04</totfact>
</mgrwt>
</event>
<event>
 4    1  0.6086918E-004  0.4052281E+03  0.7818608E-02  0.1041984E+00
         -2   -1    0    0    0  501 -0.00000000000E+00  0.00000000000E+00  0.42484840967E+02  0.42484841044E+02  0.25500000000E-02 0. -1.
          2   -1    0    0  501    0  0.00000000000E+00 -0.00000000000E+00 -0.96628479220E+03  0.96628479221E+03  0.25500000000E-02 0.  1.
    5000001    1    1    2    0    0 -0.11379153111E+02  0.16341442345E+03 -0.68855312505E+03  0.71194674305E+03  0.77000000000E+02 0.  0.
   -5000001    1    1    2    0    0  0.11379153111E+02 -0.16341442345E+03 -0.23524682619E+03  0.29682289021E+03  0.77000000000E+02 0.  0.
<mgrwt>
<rscale>  0 0.40522811E+03</rscale>
<asrwt>0</asrwt>
<pdfrwt beam="1">  1        2 0.14865918E+00 0.40522811E+03</pdfrwt>
<pdfrwt beam="2">  1       -2 0.65361302E-02 0.40522811E+03</pdfrwt>
<totfact> 0.35878091E+03</totfact>
</mgrwt>
</event>
<event>
 4    1  0.6086918E-004  0.2696639E+03  0.7818608E-02  0.1101472E+00
          2   -1    0    0  501    0  0.00000000000E+00  0.00000000000E+00  0.17530892186E+04  0.17530892186E+04  0.25500000000E-02 0.  1.
         -2   -1    0    0    0  501 -0.00000000000E+00 -0.00000000000E+00 -0.10370069828E+02  0.10370070142E+02  0.25500000000E-02 0. -1.
    5000001    1    1    2    0    0 -0.50326499717E+02 -0.87883562768E+02  0.11634024539E+04  0.11703377918E+04  0.77000000000E+02 0.  0.
   -5000001    1    1    2    0    0  0.50326499717E+02  0.87883562768E+02  0.57931669491E+03  0.59312149698E+03  0.77000000000E+02 0.  0.
<mgrwt>
<rscale>  0 0.26966392E+03</rscale>
<asrwt>0</asrwt>
<pdfrwt beam="1">  1        2 0.26970559E+00 0.26966392E+03</pdfrwt>
<pdfrwt beam="2">  1       -2 0.15953980E-02 0.26966392E+03</pdfrwt>
<totfact> 0.10792529E+04</totfact>
</mgrwt>
</event>
<event>
 4    1  0.6086918E-004  0.2152604E+03  0.7818608E-02  0.1137467E+00
         -2   -1    0    0    0  501 -0.00000000000E+00  0.00000000000E+00  0.99559708978E+01  0.99559712243E+01  0.25500000000E-02 0. -1.
          2   -1    0    0  501    0  0.00000000000E+00 -0.00000000000E+00 -0.11635489791E+04  0.11635489791E+04  0.25500000000E-02 0.  1.
    5000001    1    1    2    0    0 -0.16554959593E+02 -0.72566588282E+02 -0.63532999763E+03  0.64429277685E+03  0.77000000000E+02 0.  0.
   -5000001    1    1    2    0    0  0.16554959593E+02  0.72566588282E+02 -0.51826301061E+03  0.52921217351E+03  0.77000000000E+02 0.  0.
<mgrwt>
<rscale>  0 0.21526040E+03</rscale>
<asrwt>0</asrwt>
<pdfrwt beam="1">  1        2 0.17900743E+00 0.21526040E+03</pdfrwt>
<pdfrwt beam="2">  1       -2 0.15316888E-02 0.21526040E+03</pdfrwt>
<totfact> 0.23637988E+04</totfact>
</mgrwt>
</event>
<event>
 4    1  0.6086918E-004  0.3327714E+03  0.7818608E-02  0.1069917E+00
          2   -1    0    0  501    0  0.00000000000E+00  0.00000000000E+00  0.12642378135E+04  0.12642378135E+04  0.25500000000E-02 0.  1.
         -2   -1    0    0    0  501 -0.00000000000E+00 -0.00000000000E+00 -0.21897933929E+02  0.21897934078E+02  0.25500000000E-02 0. -1.
    5000001    1    1    2    0    0 -0.12994192056E+03 -0.22380344402E+02  0.87664730956E+03  0.88984565398E+03  0.77000000000E+02 0.  0.
   -5000001    1    1    2    0    0  0.12994192056E+03  0.22380344402E+02  0.36569257004E+03  0.39629009364E+03  0.77000000000E+02 0.  0.
<mgrwt>
<rscale>  0 0.33277137E+03</rscale>
<asrwt>0</asrwt>
<pdfrwt beam="1">  1        2 0.19449818E+00 0.33277137E+03</pdfrwt>
<pdfrwt beam="2">  1       -2 0.33689119E-02 0.33277137E+03</pdfrwt>
<totfact> 0.65625658E+03</totfact>
</mgrwt>
</event>
<event>
 4    1  0.6086918E-004  0.2078700E+03  0.7818608E-02  0.1143264E+00
         -2   -1    0    0    0  501 -0.00000000000E+00  0.00000000000E+00  0.80668448965E+01  0.80668452995E+01  0.25500000000E-02 0. -1.
          2   -1    0    0  501    0  0.00000000000E+00 -0.00000000000E+00 -0.13391210543E+04  0.13391210543E+04  0.25500000000E-02 0.  1.
    5000001    1    1    2    0    0  0.36190617725E+02  0.42418583326E+02 -0.39329891846E+03  0.40462592142E+03  0.77000000000E+02 0.  0.
   -5000001    1    1    2    0    0 -0.36190617725E+02 -0.42418583326E+02 -0.93775529094E+03  0.94256197818E+03  0.77000000000E+02 0.  0.
<mgrwt>
<rscale>  0 0.20786998E+03</rscale>
<asrwt>0</asrwt>
<pdfrwt beam="1">  1        2 0.20601845E+00 0.20786998E+03</pdfrwt>
<pdfrwt beam="2">  1       -2 0.12410542E-02 0.20786998E+03</pdfrwt>
<totfact> 0.25579569E+04</totfact>
</mgrwt>
</event>
<event>
 4    1  0.6086918E-004  0.1706356E+03  0.7818608E-02  0.1177187E+00
          2   -1    0    0  501    0  0.00000000000E+00  0.00000000000E+00  0.67196200323E+03  0.67196200324E+03  0.25500000000E-02 0.  1.
         -2   -1    0    0    0  501 -0.00000000000E+00 -0.00000000000E+00 -0.10832646496E+02  0.10832646796E+02  0.25500000000E-02 0. -1.
    5000001    1    1    2    0    0 -0.32563147588E+02  0.71429136032E+01  0.39239329989E+03  0.40126410454E+03  0.77000000000E+02 0.  0.
   -5000001    1    1    2    0    0  0.32563147588E+02 -0.71429136032E+01  0.26873605685E+03  0.28153054550E+03  0.77000000000E+02 0.  0.
<mgrwt>
<rscale>  0 0.17063560E+03</rscale>
<asrwt>0</asrwt>
<pdfrwt beam="1">  1        2 0.10337879E+00 0.17063560E+03</pdfrwt>
<pdfrwt beam="2">  1       -2 0.16665608E-02 0.17063560E+03</pdfrwt>
<totfact> 0.42585880E+04</totfact>
</mgrwt>
</event>
<event>
 4    1  0.6086918E-004  0.2463283E+03  0.7818608E-02  0.1115647E+00
         -2   -1    0    0    0  501 -0.00000000000E+00  0.00000000000E+00  0.19694505885E+03  0.19694505886E+03  0.25500000000E-02 0. -1.
          2   -1    0    0  501    0  0.00000000000E+00 -0.00000000000E+00 -0.77023536502E+02  0.77023536544E+02  0.25500000000E-02 0.  1.
    5000001    1    1    2    0    0 -0.66121779653E+02  0.69469801014E+02  0.52730379430E+02  0.13381941530E+03  0.77000000000E+02 0.  0.
   -5000001    1    1    2    0    0  0.66121779653E+02 -0.69469801014E+02  0.67191142915E+02  0.14014918010E+03  0.77000000000E+02 0.  0.
<mgrwt>
<rscale>  0 0.24632828E+03</rscale>
<asrwt>0</asrwt>
<pdfrwt beam="1">  1        2 0.11849775E-01 0.24632828E+03</pdfrwt>
<pdfrwt beam="2">  1       -2 0.30299240E-01 0.24632828E+03</pdfrwt>
<totfact> 0.51459031E+03</totfact>
</mgrwt>
</event>
<event>
 4    1  0.6086918E-004  0.2264374E+03  0.7818608E-02  0.1129173E+00
         -2   -1    0    0    0  501 -0.00000000000E+00  0.00000000000E+00  0.13280616376E+03  0.13280616378E+03  0.25500000000E-02 0. -1.
          2   -1    0    0  501    0  0.00000000000E+00 -0.00000000000E+00 -0.96520215811E+02  0.96520215844E+02  0.25500000000E-02 0.  1.
    5000001    1    1    2    0    0  0.67207137136E+02 -0.48697204393E+02  0.19280962659E+02  0.11484325195E+03  0.77000000000E+02 0.  0.
   -5000001    1    1    2    0    0 -0.67207137136E+02  0.48697204393E+02  0.17004985289E+02  0.11448312768E+03  0.77000000000E+02 0.  0.
<mgrwt>
<rscale>  0 0.22643745E+03</rscale>
<asrwt>0</asrwt>
<pdfrwt beam="1">  1        2 0.14849264E-01 0.22643745E+03</pdfrwt>
<pdfrwt beam="2">  1       -2 0.20431717E-01 0.22643745E+03</pdfrwt>
<totfact> 0.78245852E+03</totfact>
</mgrwt>
</event>
<event>
 4    1  0.6086918E-004  0.5896928E+03  0.7818608E-02  0.9927024E-01
         -2   -1    0    0    0  501 -0.00000000000E+00  0.00000000000E+00  0.16189319645E+03  0.16189319647E+03  0.25500000000E-02 0. -1.
          2   -1    0    0  501    0  0.00000000000E+00 -0.00000000000E+00 -0.53698610979E+03  0.53698610980E+03  0.25500000000E-02 0.  1.
    5000001    1    1    2    0    0  0.22344245919E+03  0.17593638070E+03 -0.20081044589E+03  0.35655851946E+03  0.77000000000E+02 0.  0.
   -5000001    1    1    2    0    0 -0.22344245919E+03 -0.17593638070E+03 -0.17428246745E+03  0.34232078681E+03  0.77000000000E+02 0.  0.
<mgrwt>
<rscale>  0 0.58969279E+03</rscale>
<asrwt>0</asrwt>
<pdfrwt beam="1">  1        2 0.82613247E-01 0.58969279E+03</pdfrwt>
<pdfrwt beam="2">  1       -2 0.24906646E-01 0.58969279E+03</pdfrwt>
<totfact> 0.82100955E+02</totfact>
</mgrwt>
</event>
<event>
 4    1  0.6086918E-004  0.1821375E+03  0.7818608E-02  0.1165750E+00
          2   -1    0    0  501    0  0.00000000000E+00  0.00000000000E+00  0.14953681881E+04  0.14953681881E+04  0.25500000000E-02 0.  1.
         -2   -1    0    0    0  501 -0.00000000000E+00 -0.00000000000E+00 -0.55461339291E+01  0.55461345153E+01  0.25500000000E-02 0. -1.
    5000001    1    1    2    0    0  0.39072493631E+02 -0.25720905269E+02  0.63549826670E+03  0.64185299852E+03  0.77000000000E+02 0.  0.
   -5000001    1    1    2    0    0 -0.39072493631E+02  0.25720905269E+02  0.85432378743E+03  0.85906132406E+03  0.77000000000E+02 0.  0.
<mgrwt>
<rscale>  0 0.18213745E+03</rscale>
<asrwt>0</asrwt>
<pdfrwt beam="1">  1        2 0.23005636E+00 0.18213745E+03</pdfrwt>
<pdfrwt beam="2">  1       -2 0.85325246E-03 0.18213745E+03</pdfrwt>
<totfact> 0.35935650E+04</totfact>
</mgrwt>
</event>
<event>
 4    1  0.6086918E-004  0.2156735E+03  0.7818608E-02  0.1137150E+00
         -2   -1    0    0    0  501 -0.00000000000E+00  0.00000000000E+00  0.56082447535E+01  0.56082453332E+01  0.25500000000E-02 0. -1.
          2   -1    0    0  501    0  0.00000000000E+00 -0.00000000000E+00 -0.20735113313E+04  0.20735113313E+04  0.25500000000E-02 0.  1.
    5000001    1    1    2    0    0  0.22626987269E+01 -0.56141442519E+02 -0.54783878329E+03  0.55606952250E+03  0.77000000000E+02 0.  0.
   -5000001    1    1    2    0    0 -0.22626987269E+01  0.56141442519E+02 -0.15200643033E+04  0.15230500541E+04  0.77000000000E+02 0.  0.
<mgrwt>
<rscale>  0 0.21567345E+03</rscale>
<asrwt>0</asrwt>
<pdfrwt beam="1">  1        2 0.31900113E+00 0.21567345E+03</pdfrwt>
<pdfrwt beam="2">  1       -2 0.86280859E-03 0.21567345E+03</pdfrwt>
<totfact> 0.17816704E+04</totfact>
</mgrwt>
</event>
<event>
 4    1  0.6086918E-004  0.2789286E+03  0.7818608E-02  0.1096276E+00
         -2   -1    0    0    0  501 -0.00000000000E+00  0.00000000000E+00  0.11487236869E+02  0.11487237152E+02  0.25500000000E-02 0. -1.
          2   -1    0    0  501    0  0.00000000000E+00 -0.00000000000E+00 -0.16932092413E+04  0.16932092413E+04  0.25500000000E-02 0.  1.
    5000001    1    1    2    0    0 -0.53547182995E+01  0.99459754504E+02 -0.47414645515E+03  0.49057596426E+03  0.77000000000E+02 0.  0.
   -5000001    1    1    2    0    0  0.53547182995E+01 -0.99459754504E+02 -0.12075755492E+04  0.12141205142E+04  0.77000000000E+02 0.  0.
<mgrwt>
<rscale>  0 0.27892864E+03</rscale>
<asrwt>0</asrwt>
<pdfrwt beam="1">  1        2 0.26049353E+00 0.27892864E+03</pdfrwt>
<pdfrwt beam="2">  1       -2 0.17672686E-02 0.27892864E+03</pdfrwt>
<totfact> 0.99939024E+03</totfact>
</mgrwt>
</event>
<event>
 4    1  0.6086918E-004  0.2496257E+03  0.7818608E-02  0.1113542E+00
         -2   -1    0    0    0  501 -0.00000000000E+00  0.00000000000E+00  0.13751472811E+03  0.13751472813E+03  0.25500000000E-02 0. -1.
          2   -1    0    0  501    0  0.00000000000E+00 -0.00000000000E+00 -0.11328418115E+03  0.11328418118E+03  0.25500000000E-02 0.  1.
    5000001    1    1    2    0    0  0.95702969102E+02 -0.17351973690E+02 -0.17005057395E+01  0.12406466461E+03  0.77000000000E+02 0.  0.
   -5000001    1    1    2    0    0 -0.95702969102E+02  0.17351973690E+02  0.25931052698E+02  0.12673424470E+03  0.77000000000E+02 0.  0.
<mgrwt>
<rscale>  0 0.24962567E+03</rscale>
<asrwt>0</asrwt>
<pdfrwt beam="1">  1        2 0.17428336E-01 0.24962567E+03</pdfrwt>
<pdfrwt beam="2">  1       -2 0.21156112E-01 0.24962567E+03</pdfrwt>
<totfact> 0.61367969E+03</totfact>
</mgrwt>
</event>
<event>
 4    1  0.6086918E-004  0.2105140E+03  0.7818608E-02  0.1141160E+00
         -2   -1    0    0    0  501 -0.00000000000E+00  0.00000000000E+00  0.16732409714E+03  0.16732409716E+03  0.25500000000E-02 0. -1.
          2   -1    0    0  501    0  0.00000000000E+00 -0.00000000000E+00 -0.66213017560E+02  0.66213017609E+02  0.25500000000E-02 0.  1.
    5000001    1    1    2    0    0 -0.66319686706E+02 -0.24659590120E+02  0.37259926191E+02  0.11101215397E+03  0.77000000000E+02 0.  0.
   -5000001    1    1    2    0    0  0.66319686706E+02  0.24659590120E+02  0.63851153392E+02  0.12252496080E+03  0.77000000000E+02 0.  0.
<mgrwt>
<rscale>  0 0.21051397E+03</rscale>
<asrwt>0</asrwt>
<pdfrwt beam="1">  1        2 0.10186618E-01 0.21051397E+03</pdfrwt>
<pdfrwt beam="2">  1       -2 0.25742168E-01 0.21051397E+03</pdfrwt>
<totfact> 0.82270657E+03</totfact>
</mgrwt>
</event>
<event>
 4    1  0.6086918E-004  0.2156962E+03  0.7818608E-02  0.1137133E+00
          2   -1    0    0  501    0  0.00000000000E+00  0.00000000000E+00  0.54428647368E+02  0.54428647428E+02  0.25500000000E-02 0.  1.
         -2   -1    0    0    0  501 -0.00000000000E+00 -0.00000000000E+00 -0.21369659799E+03  0.21369659801E+03  0.25500000000E-02 0. -1.
    5000001    1    1    2    0    0  0.28950006741E+02  0.29440227837E+02 -0.10410909588E+01  0.87377993658E+02  0.77000000000E+02 0.  0.
   -5000001    1    1    2    0    0 -0.28950006741E+02 -0.29440227837E+02 -0.15822685967E+03  0.18074725178E+03  0.77000000000E+02 0.  0.
<mgrwt>
<rscale>  0 0.21569624E+03</rscale>
<asrwt>0</asrwt>
<pdfrwt beam="1">  1        2 0.83736382E-02 0.21569624E+03</pdfrwt>
<pdfrwt beam="2">  1       -2 0.32876399E-01 0.21569624E+03</pdfrwt>
<totfact> 0.67717767E+03</totfact>
</mgrwt>
</event>
<event>
 4    1  0.6086918E-004  0.4005776E+03  0.7818608E-02  0.1043580E+00
          2   -1    0    0  501    0  0.00000000000E+00  0.00000000000E+00  0.13055074895E+04  0.13055074895E+04  0.25500000000E-02 0.  1.
         -2   -1    0    0    0  501 -0.00000000000E+00 -0.00000000000E+00 -0.30727980912E+02  0.30727981018E+02  0.25500000000E-02 0. -1.
    5000001    1    1    2    0    0  0.30640080259E+02  0.15974285516E+03  0.34410703654E+03  0.38832363679E+03  0.77000000000E+02 0.  0.
   -5000001    1    1    2    0    0 -0.30640080259E+02 -0.15974285516E+03  0.93067247200E+03  0.94791183368E+03  0.77000000000E+02 0.  0.
<mgrwt>
<rscale>  0 0.40057763E+03</rscale>
<asrwt>0</asrwt>
<pdfrwt beam="1">  1        2 0.20084727E+00 0.40057763E+03</pdfrwt>
<pdfrwt beam="2">  1       -2 0.47273826E-02 0.40057763E+03</pdfrwt>
<totfact> 0.37257782E+03</totfact>
</mgrwt>
</event>
<event>
 4    1  0.6086918E-004  0.2817979E+03  0.7818608E-02  0.1094711E+00
          2   -1    0    0  501    0  0.00000000000E+00  0.00000000000E+00  0.15272058836E+03  0.15272058838E+03  0.25500000000E-02 0.  1.
         -2   -1    0    0    0  501 -0.00000000000E+00 -0.00000000000E+00 -0.12999235457E+03  0.12999235459E+03  0.25500000000E-02 0. -1.
    5000001    1    1    2    0    0 -0.20306474936E+02 -0.89189325552E+02  0.86147573608E+02  0.14736856230E+03  0.77000000000E+02 0.  0.
   -5000001    1    1    2    0    0  0.20306474936E+02  0.89189325552E+02 -0.63419339816E+02  0.13534438067E+03  0.77000000000E+02 0.  0.
<mgrwt>
<rscale>  0 0.28179786E+03</rscale>
<asrwt>0</asrwt>
<pdfrwt beam="1">  1        2 0.23495475E-01 0.28179786E+03</pdfrwt>
<pdfrwt beam="2">  1       -2 0.19998824E-01 0.28179786E+03</pdfrwt>
<totfact> 0.48254787E+03</totfact>
</mgrwt>
</event>
<event>
 4    1  0.6086918E-004  0.3054163E+03  0.7818608E-02  0.1082564E+00
         -2   -1    0    0    0  501 -0.00000000000E+00  0.00000000000E+00  0.46996936808E+02  0.46996936877E+02  0.25500000000E-02 0. -1.
          2   -1    0    0  501    0  0.00000000000E+00 -0.00000000000E+00 -0.49619778065E+03  0.49619778066E+03  0.25500000000E-02 0.  1.
    5000001    1    1    2    0    0 -0.22064713696E+02  0.12981758335E+03 -0.21185942522E+03  0.26106105146E+03  0.77000000000E+02 0.  0.
   -5000001    1    1    2    0    0  0.22064713696E+02 -0.12981758335E+03 -0.23734141862E+03  0.28213366607E+03  0.77000000000E+02 0.  0.
<mgrwt>
<rscale>  0 0.30541628E+03</rscale>
<asrwt>0</asrwt>
<pdfrwt beam="1">  1        2 0.76338116E-01 0.30541628E+03</pdfrwt>
<pdfrwt beam="2">  1       -2 0.72302983E-02 0.30541628E+03</pdfrwt>
<totfact> 0.69516501E+03</totfact>
</mgrwt>
</event>
<event>
 4    1  0.6086918E-004  0.4312988E+03  0.7818608E-02  0.1033450E+00
         -2   -1    0    0    0  501 -0.00000000000E+00  0.00000000000E+00  0.24186040072E+03  0.24186040073E+03  0.25500000000E-02 0. -1.
          2   -1    0    0  501    0  0.00000000000E+00 -0.00000000000E+00 -0.19227896352E+03  0.19227896354E+03  0.25500000000E-02 0.  1.
    5000001    1    1    2    0    0 -0.82004666148E+02  0.18394330091E+03  0.28787252359E+02  0.21752611135E+03  0.77000000000E+02 0.  0.
   -5000001    1    1    2    0    0  0.82004666148E+02 -0.18394330091E+03  0.20794184841E+02  0.21661325292E+03  0.77000000000E+02 0.  0.
<mgrwt>
<rscale>  0 0.43129882E+03</rscale>
<asrwt>0</asrwt>
<pdfrwt beam="1">  1        2 0.29581379E-01 0.43129882E+03</pdfrwt>
<pdfrwt beam="2">  1       -2 0.37209292E-01 0.43129882E+03</pdfrwt>
<totfact> 0.12278519E+03</totfact>
</mgrwt>
</event>
<event>
 4    1  0.6086918E-004  0.1825649E+03  0.7818608E-02  0.1165344E+00
          2   -1    0    0  501    0  0.00000000000E+00  0.00000000000E+00  0.13677413658E+04  0.13677413658E+04  0.25500000000E-02 0.  1.
         -2   -1    0    0    0  501 -0.00000000000E+00 -0.00000000000E+00 -0.60921531317E+01  0.60921536653E+01  0.25500000000E-02 0. -1.
    5000001    1    1    2    0    0  0.18656484632E+00  0.12519191521E+02  0.10375152271E+04  0.10404439492E+04  0.77000000000E+02 0.  0.
   -5000001    1    1    2    0    0 -0.18656484632E+00 -0.12519191521E+02  0.32413398556E+03  0.33338957026E+03  0.77000000000E+02 0.  0.
<mgrwt>
<rscale>  0 0.18256495E+03</rscale>
<asrwt>0</asrwt>
<pdfrwt beam="1">  1        2 0.21042195E+00 0.18256495E+03</pdfrwt>
<pdfrwt beam="2">  1       -2 0.93725348E-03 0.18256495E+03</pdfrwt>
<totfact> 0.36724407E+04</totfact>
</mgrwt>
</event>
<event>
 4    1  0.6086918E-004  0.2078333E+03  0.7818608E-02  0.1143293E+00
          2   -1    0    0  501    0  0.00000000000E+00  0.00000000000E+00  0.44447349256E+03  0.44447349257E+03  0.25500000000E-02 0.  1.
         -2   -1    0    0    0  501 -0.00000000000E+00 -0.00000000000E+00 -0.24295409558E+02  0.24295409692E+02  0.25500000000E-02 0. -1.
    5000001    1    1    2    0    0  0.64973485592E+02  0.24907430162E+02  0.19821135861E+03  0.22373796412E+03  0.77000000000E+02 0.  0.
   -5000001    1    1    2    0    0 -0.64973485592E+02 -0.24907430162E+02  0.22196672440E+03  0.24503093814E+03  0.77000000000E+02 0.  0.
<mgrwt>
<rscale>  0 0.20783326E+03</rscale>
<asrwt>0</asrwt>
<pdfrwt beam="1">  1        2 0.68380531E-01 0.20783326E+03</pdfrwt>
<pdfrwt beam="2">  1       -2 0.37377557E-02 0.20783326E+03</pdfrwt>
<totfact> 0.21038127E+04</totfact>
</mgrwt>
</event>
<event>
 4    1  0.6086918E-004  0.1837167E+03  0.7818608E-02  0.1164254E+00
          2   -1    0    0  501    0  0.00000000000E+00  0.00000000000E+00  0.44518306690E+02  0.44518306763E+02  0.25500000000E-02 0.  1.
         -2   -1    0    0    0  501 -0.00000000000E+00 -0.00000000000E+00 -0.18953900497E+03  0.18953900498E+03  0.25500000000E-02 0. -1.
    5000001    1    1    2    0    0 -0.16828803374E+02  0.24903736234E+02 -0.12355916048E+03  0.14865823502E+03  0.77000000000E+02 0.  0.
   -5000001    1    1    2    0    0  0.16828803374E+02 -0.24903736234E+02 -0.21461537802E+02  0.85399076729E+02  0.77000000000E+02 0.  0.
<mgrwt>
<rscale>  0 0.18371669E+03</rscale>
<asrwt>0</asrwt>
<pdfrwt beam="1">  1        2 0.68489704E-02 0.18371669E+03</pdfrwt>
<pdfrwt beam="2">  1       -2 0.29159846E-01 0.18371669E+03</pdfrwt>
<totfact> 0.10759464E+04</totfact>
</mgrwt>
</event>
<event>
 4    1  0.6086918E-004  0.2147929E+03  0.7818608E-02  0.1137826E+00
          2   -1    0    0  501    0  0.00000000000E+00  0.00000000000E+00  0.25381860412E+02  0.25381860541E+02  0.25500000000E-02 0.  1.
         -2   -1    0    0    0  501 -0.00000000000E+00 -0.00000000000E+00 -0.45441876700E+03  0.45441876700E+03  0.25500000000E-02 0. -1.
    5000001    1    1    2    0    0 -0.51699575215E+02 -0.53892284978E+02 -0.22628972354E+03  0.25042616364E+03  0.77000000000E+02 0.  0.
   -5000001    1    1    2    0    0  0.51699575215E+02  0.53892284978E+02 -0.20274718305E+03  0.22937446391E+03  0.77000000000E+02 0.  0.
<mgrwt>
<rscale>  0 0.21479287E+03</rscale>
<asrwt>0</asrwt>
<pdfrwt beam="1">  1        2 0.39049019E-02 0.21479287E+03</pdfrwt>
<pdfrwt beam="2">  1       -2 0.69910574E-01 0.21479287E+03</pdfrwt>
<totfact> 0.41139614E+03</totfact>
</mgrwt>
</event>
<event>
 4    1  0.6086918E-004  0.2564800E+03  0.7818608E-02  0.1109277E+00
          2   -1    0    0  501    0  0.00000000000E+00  0.00000000000E+00  0.82859769335E+03  0.82859769335E+03  0.25500000000E-02 0.  1.
         -2   -1    0    0    0  501 -0.00000000000E+00 -0.00000000000E+00 -0.19847389647E+02  0.19847389811E+02  0.25500000000E-02 0. -1.
    5000001    1    1    2    0    0 -0.43760874849E+02 -0.92293709115E+02  0.37417250694E+03  0.39543293725E+03  0.77000000000E+02 0.  0.
   -5000001    1    1    2    0    0  0.43760874849E+02  0.92293709115E+02  0.43457779676E+03  0.45301214592E+03  0.77000000000E+02 0.  0.
<mgrwt>
<rscale>  0 0.25648003E+03</rscale>
<asrwt>0</asrwt>
<pdfrwt beam="1">  1        2 0.12747651E+00 0.25648003E+03</pdfrwt>
<pdfrwt beam="2">  1       -2 0.30534459E-02 0.25648003E+03</pdfrwt>
<totfact> 0.13885538E+04</totfact>
</mgrwt>
</event>
<event>
 4    1  0.6086918E-004  0.2430039E+03  0.7818608E-02  0.1117808E+00
          2   -1    0    0  501    0  0.00000000000E+00  0.00000000000E+00  0.10367782820E+04  0.10367782820E+04  0.25500000000E-02 0.  1.
         -2   -1    0    0    0  501 -0.00000000000E+00 -0.00000000000E+00 -0.14239031225E+02  0.14239031453E+02  0.25500000000E-02 0. -1.
    5000001    1    1    2    0    0 -0.37225588435E+02 -0.83040951192E+02  0.40963659928E+03  0.42662944985E+03  0.77000000000E+02 0.  0.
   -5000001    1    1    2    0    0  0.37225588435E+02  0.83040951192E+02  0.61290265151E+03  0.62438786362E+03  0.77000000000E+02 0.  0.
<mgrwt>
<rscale>  0 0.24300386E+03</rscale>
<asrwt>0</asrwt>
<pdfrwt beam="1">  1        2 0.15950441E+00 0.24300386E+03</pdfrwt>
<pdfrwt beam="2">  1       -2 0.21906194E-02 0.24300386E+03</pdfrwt>
<totfact> 0.16706666E+04</totfact>
</mgrwt>
</event>
<event>
 4    1  0.6086918E-004  0.1784544E+03  0.7818608E-02  0.1169307E+00
         -2   -1    0    0    0  501 -0.00000000000E+00  0.00000000000E+00  0.14452572175E+02  0.14452572400E+02  0.25500000000E-02 0. -1.
          2   -1    0    0  501    0  0.00000000000E+00 -0.00000000000E+00 -0.55087012130E+03  0.55087012130E+03  0.25500000000E-02 0.  1.
    5000001    1    1    2    0    0  0.39315287426E+02  0.21671931688E+02 -0.25509901518E+03  0.27022189399E+03  0.77000000000E+02 0.  0.
   -5000001    1    1    2    0    0 -0.39315287426E+02 -0.21671931688E+02 -0.28131853394E+03  0.29510079971E+03  0.77000000000E+02 0.  0.
<mgrwt>
<rscale>  0 0.17845437E+03</rscale>
<asrwt>0</asrwt>
<pdfrwt beam="1">  1        2 0.84749233E-01 0.17845437E+03</pdfrwt>
<pdfrwt beam="2">  1       -2 0.22234731E-02 0.17845437E+03</pdfrwt>
<totfact> 0.35310325E+04</totfact>
</mgrwt>
</event>
<event>
 4    1  0.6086918E-004  0.3913816E+03  0.7818608E-02  0.1046805E+00
          2   -1    0    0  501    0  0.00000000000E+00  0.00000000000E+00  0.57260461401E+02  0.57260461458E+02  0.25500000000E-02 0.  1.
         -2   -1    0    0    0  501 -0.00000000000E+00 -0.00000000000E+00 -0.66878409074E+03  0.66878409074E+03  0.25500000000E-02 0. -1.
    5000001    1    1    2    0    0  0.32262966062E+02  0.17669975547E+03 -0.28700960871E+03  0.34722790506E+03  0.77000000000E+02 0.  0.
   -5000001    1    1    2    0    0 -0.32262966062E+02 -0.17669975547E+03 -0.32451402063E+03  0.37881664713E+03  0.77000000000E+02 0.  0.
<mgrwt>
<rscale>  0 0.39138158E+03</rscale>
<asrwt>0</asrwt>
<pdfrwt beam="1">  1        2 0.88093022E-02 0.39138158E+03</pdfrwt>
<pdfrwt beam="2">  1       -2 0.10288985E+00 0.39138158E+03</pdfrwt>
<totfact> 0.60678038E+02</totfact>
</mgrwt>
</event>
<event>
 4    1  0.6086918E-004  0.3524519E+03  0.7818608E-02  0.1061613E+00
          2   -1    0    0  501    0  0.00000000000E+00  0.00000000000E+00  0.10614009120E+04  0.10614009120E+04  0.25500000000E-02 0.  1.
         -2   -1    0    0    0  501 -0.00000000000E+00 -0.00000000000E+00 -0.29259057033E+02  0.29259057144E+02  0.25500000000E-02 0. -1.
    5000001    1    1    2    0    0  0.14205341554E+03  0.69417963369E+02  0.55115807957E+03  0.57853457561E+03  0.77000000000E+02 0.  0.
   -5000001    1    1    2    0    0 -0.14205341554E+03 -0.69417963369E+02  0.48098377538E+03  0.51212539351E+03  0.77000000000E+02 0.  0.
<mgrwt>
<rscale>  0 0.35245193E+03</rscale>
<asrwt>0</asrwt>
<pdfrwt beam="1">  1        2 0.16329242E+00 0.35245193E+03</pdfrwt>
<pdfrwt beam="2">  1       -2 0.45013942E-02 0.35245193E+03</pdfrwt>
<totfact> 0.55582237E+03</totfact>
</mgrwt>
</event>
<event>
 4    1  0.6086918E-004  0.2163827E+03  0.7818608E-02  0.1136609E+00
         -2   -1    0    0    0  501 -0.00000000000E+00  0.00000000000E+00  0.10390377018E+02  0.10390377331E+02  0.25500000000E-02 0. -1.
          2   -1    0    0  501    0  0.00000000000E+00 -0.00000000000E+00 -0.11265588329E+04  0.11265588329E+04  0.25500000000E-02 0.  1.
    5000001    1    1    2    0    0  0.24105046702E+02 -0.72022485951E+02 -0.54314910707E+03  0.55381246309E+03  0.77000000000E+02 0.  0.
   -5000001    1    1    2    0    0 -0.24105046702E+02  0.72022485951E+02 -0.57301934879E+03  0.58313674712E+03  0.77000000000E+02 0.  0.
<mgrwt>
<rscale>  0 0.21638273E+03</rscale>
<asrwt>0</asrwt>
<pdfrwt beam="1">  1        2 0.17331665E+00 0.21638273E+03</pdfrwt>
<pdfrwt beam="2">  1       -2 0.15985205E-02 0.21638273E+03</pdfrwt>
<totfact> 0.23330935E+04</totfact>
</mgrwt>
</event>
<event>
 4    1  0.6086918E-004  0.1994752E+03  0.7818608E-02  0.1150183E+00
          2   -1    0    0  501    0  0.00000000000E+00  0.00000000000E+00  0.43707641546E+02  0.43707641620E+02  0.25500000000E-02 0.  1.
         -2   -1    0    0    0  501 -0.00000000000E+00 -0.00000000000E+00 -0.22759388489E+03  0.22759388490E+03  0.25500000000E-02 0. -1.
    5000001    1    1    2    0    0  0.39993486091E+01  0.62891408642E+02 -0.10129386907E+03  0.14198863328E+03  0.77000000000E+02 0.  0.
   -5000001    1    1    2    0    0 -0.39993486091E+01 -0.62891408642E+02 -0.82592374271E+02  0.12931289324E+03  0.77000000000E+02 0.  0.
<mgrwt>
<rscale>  0 0.19947523E+03</rscale>
<asrwt>0</asrwt>
<pdfrwt beam="1">  1        2 0.67242527E-02 0.19947523E+03</pdfrwt>
<pdfrwt beam="2">  1       -2 0.35014443E-01 0.19947523E+03</pdfrwt>
<totfact> 0.79321196E+03</totfact>
</mgrwt>
</event>
<event>
 4    1  0.6086918E-004  0.2647535E+03  0.7818608E-02  0.1104320E+00
         -2   -1    0    0    0  501 -0.00000000000E+00  0.00000000000E+00  0.15000769739E+02  0.15000769956E+02  0.25500000000E-02 0. -1.
          2   -1    0    0  501    0  0.00000000000E+00 -0.00000000000E+00 -0.11681805914E+04  0.11681805914E+04  0.25500000000E-02 0.  1.
    5000001    1    1    2    0    0 -0.10575957637E+03  0.21074242843E+01 -0.66653540288E+03  0.67925545454E+03  0.77000000000E+02 0.  0.
   -5000001    1    1    2    0    0  0.10575957637E+03 -0.21074242843E+01 -0.48664441875E+03  0.50392590679E+03  0.77000000000E+02 0.  0.
<mgrwt>
<rscale>  0 0.26475353E+03</rscale>
<asrwt>0</asrwt>
<pdfrwt beam="1">  1        2 0.17972002E+00 0.26475353E+03</pdfrwt>
<pdfrwt beam="2">  1       -2 0.23078117E-02 0.26475353E+03</pdfrwt>
<totfact> 0.13001214E+04</totfact>
</mgrwt>
</event>
<event>
 4    1  0.6086918E-004  0.1879328E+03  0.7818608E-02  0.1160339E+00
          2   -1    0    0  501    0  0.00000000000E+00  0.00000000000E+00  0.82053478738E+02  0.82053478777E+02  0.25500000000E-02 0.  1.
         -2   -1    0    0    0  501 -0.00000000000E+00 -0.00000000000E+00 -0.10760884660E+03  0.10760884663E+03  0.25500000000E-02 0. -1.
    5000001    1    1    2    0    0  0.21743843919E+02 -0.27361813458E+02  0.28577689912E+02  0.89258881602E+02  0.77000000000E+02 0.  0.
   -5000001    1    1    2    0    0 -0.21743843919E+02  0.27361813458E+02 -0.54133057774E+02  0.10040344381E+03  0.77000000000E+02 0.  0.
<mgrwt>
<rscale>  0 0.18793276E+03</rscale>
<asrwt>0</asrwt>
<pdfrwt beam="1">  1        2 0.12623612E-01 0.18793276E+03</pdfrwt>
<pdfrwt beam="2">  1       -2 0.16555207E-01 0.18793276E+03</pdfrwt>
<totfact> 0.13378248E+04</totfact>
</mgrwt>
</event>
<event>
 4    1  0.6086918E-004  0.1861123E+03  0.7818608E-02  0.1162015E+00
         -2   -1    0    0    0  501 -0.00000000000E+00  0.00000000000E+00  0.13594680013E+02  0.13594680252E+02  0.25500000000E-02 0. -1.
          2   -1    0    0  501    0  0.00000000000E+00 -0.00000000000E+00 -0.63697322597E+03  0.63697322597E+03  0.25500000000E-02 0.  1.
    5000001    1    1    2    0    0 -0.48468726366E+02  0.81206767650E+01 -0.24962112029E+03  0.26580983150E+03  0.77000000000E+02 0.  0.
   -5000001    1    1    2    0    0  0.48468726366E+02 -0.81206767650E+01 -0.37375742567E+03  0.38475807473E+03  0.77000000000E+02 0.  0.
<mgrwt>
<rscale>  0 0.18611230E+03</rscale>
<asrwt>0</asrwt>
<pdfrwt beam="1">  1        2 0.97995858E-01 0.18611230E+03</pdfrwt>
<pdfrwt beam="2">  1       -2 0.20914897E-02 0.18611230E+03</pdfrwt>
<totfact> 0.32814571E+04</totfact>
</mgrwt>
</event>
<event>
 4    1  0.6086918E-004  0.3486812E+03  0.7818608E-02  0.1063158E+00
          2   -1    0    0  501    0  0.00000000000E+00  0.00000000000E+00  0.16299944441E+04  0.16299944442E+04  0.25500000000E-02 0.  1.
         -2   -1    0    0    0  501 -0.00000000000E+00 -0.00000000000E+00 -0.18647081161E+02  0.18647081336E+02  0.25500000000E-02 0. -1.
    5000001    1    1    2    0    0  0.13868216081E+03 -0.67108920524E+02  0.93336102269E+03  0.94911966981E+03  0.77000000000E+02 0.  0.
   -5000001    1    1    2    0    0 -0.13868216081E+03  0.67108920524E+02  0.67798634030E+03  0.69952185568E+03  0.77000000000E+02 0.  0.
<mgrwt>
<rscale>  0 0.34868117E+03</rscale>
<asrwt>0</asrwt>
<pdfrwt beam="1">  1        2 0.25076848E+00 0.34868117E+03</pdfrwt>
<pdfrwt beam="2">  1       -2 0.28687806E-02 0.34868117E+03</pdfrwt>
<totfact> 0.52765469E+03</totfact>
</mgrwt>
</event>
<event>
 4    1  0.6086918E-004  0.2866765E+03  0.7818608E-02  0.1092097E+00
          2   -1    0    0  501    0  0.00000000000E+00  0.00000000000E+00  0.50512218972E+03  0.50512218973E+03  0.25500000000E-02 0.  1.
         -2   -1    0    0    0  501 -0.00000000000E+00 -0.00000000000E+00 -0.40675020940E+02  0.40675021020E+02  0.25500000000E-02 0. -1.
    5000001    1    1    2    0    0  0.46602954625E+02 -0.82636179367E+02  0.37490376767E+03  0.39431257720E+03  0.77000000000E+02 0.  0.
   -5000001    1    1    2    0    0 -0.46602954625E+02  0.82636179367E+02  0.89543401111E+02  0.15148463355E+03  0.77000000000E+02 0.  0.
<mgrwt>
<rscale>  0 0.28667651E+03</rscale>
<asrwt>0</asrwt>
<pdfrwt beam="1">  1        2 0.77711113E-01 0.28667651E+03</pdfrwt>
<pdfrwt beam="2">  1       -2 0.62576950E-02 0.28667651E+03</pdfrwt>
<totfact> 0.85044904E+03</totfact>
</mgrwt>
</event>
<event>
 4    1  0.6086918E-004  0.2690977E+03  0.7818608E-02  0.1101797E+00
          2   -1    0    0  501    0  0.00000000000E+00  0.00000000000E+00  0.26102123153E+02  0.26102123277E+02  0.25500000000E-02 0.  1.
         -2   -1    0    0    0  501 -0.00000000000E+00 -0.00000000000E+00 -0.69356017287E+03  0.69356017287E+03  0.25500000000E-02 0. -1.
    5000001    1    1    2    0    0 -0.66632628542E+02 -0.81878279985E+02 -0.41957672786E+03  0.43945146545E+03  0.77000000000E+02 0.  0.
   -5000001    1    1    2    0    0  0.66632628542E+02  0.81878279985E+02 -0.24788132185E+03  0.28021083070E+03  0.77000000000E+02 0.  0.
<mgrwt>
<rscale>  0 0.26909770E+03</rscale>
<asrwt>0</asrwt>
<pdfrwt beam="1">  1        2 0.40157118E-02 0.26909770E+03</pdfrwt>
<pdfrwt beam="2">  1       -2 0.10670155E+00 0.26909770E+03</pdfrwt>
<totfact> 0.15496896E+03</totfact>
</mgrwt>
</event>
<event>
 4    1  0.6086918E-004  0.2286059E+03  0.7818608E-02  0.1127625E+00
         -2   -1    0    0    0  501 -0.00000000000E+00  0.00000000000E+00  0.62374973938E+01  0.62374979150E+01  0.25500000000E-02 0. -1.
          2   -1    0    0  501    0  0.00000000000E+00 -0.00000000000E+00 -0.20946155302E+04  0.20946155302E+04  0.25500000000E-02 0.  1.
    5000001    1    1    2    0    0 -0.75903690199E+02  0.32155880410E+02 -0.87454018762E+03  0.88178507052E+03  0.77000000000E+02 0.  0.
   -5000001    1    1    2    0    0  0.75903690199E+02 -0.32155880410E+02 -0.12138378452E+04  0.12190679576E+04  0.77000000000E+02 0.  0.
<mgrwt>
<rscale>  0 0.22860586E+03</rscale>
<asrwt>0</asrwt>
<pdfrwt beam="1">  1        2 0.32224798E+00 0.22860586E+03</pdfrwt>
<pdfrwt beam="2">  1       -2 0.95961670E-03 0.22860586E+03</pdfrwt>
<totfact> 0.14921016E+04</totfact>
</mgrwt>
</event>
<event>
 4    1  0.6086918E-004  0.2585786E+03  0.7818608E-02  0.1108000E+00
          2   -1    0    0  501    0  0.00000000000E+00  0.00000000000E+00  0.54572456980E+03  0.54572456980E+03  0.25500000000E-02 0.  1.
         -2   -1    0    0    0  501 -0.00000000000E+00 -0.00000000000E+00 -0.30630340167E+02  0.30630340273E+02  0.25500000000E-02 0. -1.
    5000001    1    1    2    0    0  0.69118169642E+02  0.35061000674E+02  0.41165234477E+03  0.42590286228E+03  0.77000000000E+02 0.  0.
   -5000001    1    1    2    0    0 -0.69118169642E+02 -0.35061000674E+02  0.10344188486E+03  0.15045204780E+03  0.77000000000E+02 0.  0.
<mgrwt>
<rscale>  0 0.25857865E+03</rscale>
<asrwt>0</asrwt>
<pdfrwt beam="1">  1        2 0.83957631E-01 0.25857865E+03</pdfrwt>
<pdfrwt beam="2">  1       -2 0.47123598E-02 0.25857865E+03</pdfrwt>
<totfact> 0.11966691E+04</totfact>
</mgrwt>
</event>
<event>
 4    1  0.6086918E-004  0.3353607E+03  0.7818608E-02  0.1068789E+00
         -2   -1    0    0    0  501 -0.00000000000E+00  0.00000000000E+00  0.52808549371E+02  0.52808549432E+02  0.25500000000E-02 0. -1.
          2   -1    0    0  501    0  0.00000000000E+00 -0.00000000000E+00 -0.53242703033E+03  0.53242703034E+03  0.25500000000E-02 0.  1.
    5000001    1    1    2    0    0 -0.12607731851E+03  0.43710859815E+02 -0.12429556100E+03  0.19795079184E+03  0.77000000000E+02 0.  0.
   -5000001    1    1    2    0    0  0.12607731851E+03 -0.43710859815E+02 -0.35532291996E+03  0.38728478793E+03  0.77000000000E+02 0.  0.
<mgrwt>
<rscale>  0 0.33536070E+03</rscale>
<asrwt>0</asrwt>
<pdfrwt beam="1">  1        2 0.81911848E-01 0.33536070E+03</pdfrwt>
<pdfrwt beam="2">  1       -2 0.81243925E-02 0.33536070E+03</pdfrwt>
<totfact> 0.53626291E+03</totfact>
</mgrwt>
</event>
<event>
 4    1  0.6086918E-004  0.3546158E+03  0.7818608E-02  0.1060736E+00
          2   -1    0    0  501    0  0.00000000000E+00  0.00000000000E+00  0.87486744133E+03  0.87486744133E+03  0.25500000000E-02 0.  1.
         -2   -1    0    0    0  501 -0.00000000000E+00 -0.00000000000E+00 -0.35934684715E+02  0.35934684806E+02  0.25500000000E-02 0. -1.
    5000001    1    1    2    0    0  0.12957454494E+03  0.90357471500E+02  0.35895567671E+03  0.39966512632E+03  0.77000000000E+02 0.  0.
   -5000001    1    1    2    0    0 -0.12957454494E+03 -0.90357471500E+02  0.47997707990E+03  0.51113699982E+03  0.77000000000E+02 0.  0.
<mgrwt>
<rscale>  0 0.35461577E+03</rscale>
<asrwt>0</asrwt>
<pdfrwt beam="1">  1        2 0.13459499E+00 0.35461577E+03</pdfrwt>
<pdfrwt beam="2">  1       -2 0.55284131E-02 0.35461577E+03</pdfrwt>
<totfact> 0.53207376E+03</totfact>
</mgrwt>
</event>
<event>
 4    1  0.6086918E-004  0.1888541E+03  0.7818608E-02  0.1159499E+00
          2   -1    0    0  501    0  0.00000000000E+00  0.00000000000E+00  0.25929674642E+03  0.25929674643E+03  0.25500000000E-02 0.  1.
         -2   -1    0    0    0  501 -0.00000000000E+00 -0.00000000000E+00 -0.34387122916E+02  0.34387123010E+02  0.25500000000E-02 0. -1.
    5000001    1    1    2    0    0 -0.24722377615E+02 -0.44078628497E+02  0.80082637314E+02  0.12205060526E+03  0.77000000000E+02 0.  0.
   -5000001    1    1    2    0    0  0.24722377615E+02  0.44078628497E+02  0.14482698619E+03  0.17163326418E+03  0.77000000000E+02 0.  0.
<mgrwt>
<rscale>  0 0.18885411E+03</rscale>
<asrwt>0</asrwt>
<pdfrwt beam="1">  1        2 0.39891808E-01 0.18885411E+03</pdfrwt>
<pdfrwt beam="2">  1       -2 0.52903266E-02 0.18885411E+03</pdfrwt>
<totfact> 0.22102794E+04</totfact>
</mgrwt>
</event>
<event>
 4    1  0.6086918E-004  0.2144854E+03  0.7818608E-02  0.1138062E+00
          2   -1    0    0  501    0  0.00000000000E+00  0.00000000000E+00  0.26687973928E+03  0.26687973930E+03  0.25500000000E-02 0.  1.
         -2   -1    0    0    0  501 -0.00000000000E+00 -0.00000000000E+00 -0.43094293559E+02  0.43094293634E+02  0.25500000000E-02 0. -1.
    5000001    1    1    2    0    0 -0.13488626960E+02 -0.49795639018E+02  0.18985909741E+03  0.21127476327E+03  0.77000000000E+02 0.  0.
   -5000001    1    1    2    0    0  0.13488626960E+02  0.49795639018E+02  0.33926348312E+02  0.98699269665E+02  0.77000000000E+02 0.  0.
<mgrwt>
<rscale>  0 0.21448537E+03</rscale>
<asrwt>0</asrwt>
<pdfrwt beam="1">  1        2 0.41058422E-01 0.21448537E+03</pdfrwt>
<pdfrwt beam="2">  1       -2 0.66298913E-02 0.21448537E+03</pdfrwt>
<totfact> 0.15326646E+04</totfact>
</mgrwt>
</event>
<event>
 4    1  0.6086918E-004  0.4043870E+03  0.7818608E-02  0.1042271E+00
          2   -1    0    0  501    0  0.00000000000E+00  0.00000000000E+00  0.81877734769E+03  0.81877734769E+03  0.25500000000E-02 0.  1.
         -2   -1    0    0    0  501 -0.00000000000E+00 -0.00000000000E+00 -0.49930794285E+02  0.49930794350E+02  0.25500000000E-02 0. -1.
    5000001    1    1    2    0    0  0.18012440430E+03 -0.31378561221E+02  0.46828022513E+03  0.50857131691E+03  0.77000000000E+02 0.  0.
   -5000001    1    1    2    0    0 -0.18012440430E+03  0.31378561221E+02  0.30056632827E+03  0.36013682514E+03  0.77000000000E+02 0.  0.
<mgrwt>
<rscale>  0 0.40438696E+03</rscale>
<asrwt>0</asrwt>
<pdfrwt beam="1">  1        2 0.12596574E+00 0.40438696E+03</pdfrwt>
<pdfrwt beam="2">  1       -2 0.76816607E-02 0.40438696E+03</pdfrwt>
<totfact> 0.34870493E+03</totfact>
</mgrwt>
</event>
<event>
 4    1  0.6086918E-004  0.1867295E+03  0.7818608E-02  0.1161445E+00
          2   -1    0    0  501    0  0.00000000000E+00  0.00000000000E+00  0.13185366525E+04  0.13185366525E+04  0.25500000000E-02 0.  1.
         -2   -1    0    0    0  501 -0.00000000000E+00 -0.00000000000E+00 -0.66110993983E+01  0.66110998901E+01  0.25500000000E-02 0. -1.
    5000001    1    1    2    0    0  0.33030304925E+02  0.30798408195E+02  0.46181690141E+03  0.47036517029E+03  0.77000000000E+02 0.  0.
   -5000001    1    1    2    0    0 -0.33030304925E+02 -0.30798408195E+02  0.85010865169E+03  0.85478258211E+03  0.77000000000E+02 0.  0.
<mgrwt>
<rscale>  0 0.18672951E+03</rscale>
<asrwt>0</asrwt>
<pdfrwt beam="1">  1        2 0.20285165E+00 0.18672951E+03</pdfrwt>
<pdfrwt beam="2">  1       -2 0.10170930E-02 0.18672951E+03</pdfrwt>
<totfact> 0.34764356E+04</totfact>
</mgrwt>
</event>
<event>
 4    1  0.6086918E-004  0.1907358E+03  0.7818608E-02  0.1157799E+00
          2   -1    0    0  501    0  0.00000000000E+00  0.00000000000E+00  0.55483477142E+03  0.55483477143E+03  0.25500000000E-02 0.  1.
         -2   -1    0    0    0  501 -0.00000000000E+00 -0.00000000000E+00 -0.16392338640E+02  0.16392338839E+02  0.25500000000E-02 0. -1.
    5000001    1    1    2    0    0  0.18718117307E+02  0.32724049460E+02  0.14412321663E+03  0.16769535742E+03  0.77000000000E+02 0.  0.
   -5000001    1    1    2    0    0 -0.18718117307E+02 -0.32724049460E+02  0.39431921615E+03  0.40353175285E+03  0.77000000000E+02 0.  0.
<mgrwt>
<rscale>  0 0.19073583E+03</rscale>
<asrwt>0</asrwt>
<pdfrwt beam="1">  1        2 0.85359180E-01 0.19073583E+03</pdfrwt>
<pdfrwt beam="2">  1       -2 0.25218987E-02 0.19073583E+03</pdfrwt>
<totfact> 0.29278688E+04</totfact>
</mgrwt>
</event>
<event>
 4    1  0.6086918E-004  0.3245615E+03  0.7818608E-02  0.1073569E+00
         -2   -1    0    0    0  501 -0.00000000000E+00  0.00000000000E+00  0.11687522767E+02  0.11687523045E+02  0.25500000000E-02 0. -1.
          2   -1    0    0  501    0  0.00000000000E+00 -0.00000000000E+00 -0.22532612057E+04  0.22532612057E+04  0.25500000000E-02 0.  1.
    5000001    1    1    2    0    0 -0.12804941074E+03 -0.62919214000E+02 -0.10711644999E+04  0.10833641423E+04  0.77000000000E+02 0.  0.
   -5000001    1    1    2    0    0  0.12804941074E+03  0.62919214000E+02 -0.11704091830E+04  0.11815845864E+04  0.77000000000E+02 0.  0.
<mgrwt>
<rscale>  0 0.32456150E+03</rscale>
<asrwt>0</asrwt>
<pdfrwt beam="1">  1        2 0.34665522E+00 0.32456150E+03</pdfrwt>
<pdfrwt beam="2">  1       -2 0.17980822E-02 0.32456150E+03</pdfrwt>
<totfact> 0.49268496E+03</totfact>
</mgrwt>
</event>
<event>
 4    1  0.6086918E-004  0.1794103E+03  0.7818608E-02  0.1168375E+00
          2   -1    0    0  501    0  0.00000000000E+00  0.00000000000E+00  0.32318675333E+03  0.32318675334E+03  0.25500000000E-02 0.  1.
         -2   -1    0    0    0  501 -0.00000000000E+00 -0.00000000000E+00 -0.24898948721E+02  0.24898948851E+02  0.25500000000E-02 0. -1.
    5000001    1    1    2    0    0  0.14398355404E+02  0.41799653809E+02  0.17395123982E+03  0.19530119696E+03  0.77000000000E+02 0.  0.
   -5000001    1    1    2    0    0 -0.14398355404E+02 -0.41799653809E+02  0.12433656479E+03  0.15278450523E+03  0.77000000000E+02 0.  0.
<mgrwt>
<rscale>  0 0.17941026E+03</rscale>
<asrwt>0</asrwt>
<pdfrwt beam="1">  1        2 0.49721036E-01 0.17941026E+03</pdfrwt>
<pdfrwt beam="2">  1       -2 0.38306077E-02 0.17941026E+03</pdfrwt>
<totfact> 0.28256682E+04</totfact>
</mgrwt>
</event>
<event>
 4    1  0.6086918E-004  0.2567757E+03  0.7818608E-02  0.1109096E+00
         -2   -1    0    0    0  501 -0.00000000000E+00  0.00000000000E+00  0.14143030125E+02  0.14143030355E+02  0.25500000000E-02 0. -1.
          2   -1    0    0  501    0  0.00000000000E+00 -0.00000000000E+00 -0.11654816958E+04  0.11654816958E+04  0.25500000000E-02 0.  1.
    5000001    1    1    2    0    0  0.30848507877E+02  0.88807565219E+02 -0.38536345895E+03  0.40406980780E+03  0.77000000000E+02 0.  0.
   -5000001    1    1    2    0    0 -0.30848507877E+02 -0.88807565219E+02 -0.76597520669E+03  0.77555491833E+03  0.77000000000E+02 0.  0.
<mgrwt>
<rscale>  0 0.25677572E+03</rscale>
<asrwt>0</asrwt>
<pdfrwt beam="1">  1        2 0.17930480E+00 0.25677572E+03</pdfrwt>
<pdfrwt beam="2">  1       -2 0.21758517E-02 0.25677572E+03</pdfrwt>
<totfact> 0.14215958E+04</totfact>
</mgrwt>
</event>
<event>
 4    1  0.6086918E-004  0.2067751E+03  0.7818608E-02  0.1144145E+00
         -2   -1    0    0    0  501 -0.00000000000E+00  0.00000000000E+00  0.90908051846E+02  0.90908051881E+02  0.25500000000E-02 0. -1.
          2   -1    0    0  501    0  0.00000000000E+00 -0.00000000000E+00 -0.11758020632E+03  0.11758020635E+03  0.25500000000E-02 0.  1.
    5000001    1    1    2    0    0  0.42055405917E+02  0.42844638754E+02 -0.47612834282E+02  0.10862919601E+03  0.77000000000E+02 0.  0.
   -5000001    1    1    2    0    0 -0.42055405917E+02 -0.42844638754E+02  0.20940679809E+02  0.99859062221E+02  0.77000000000E+02 0.  0.
<mgrwt>
<rscale>  0 0.20677512E+03</rscale>
<asrwt>0</asrwt>
<pdfrwt beam="1">  1        2 0.18089262E-01 0.20677512E+03</pdfrwt>
<pdfrwt beam="2">  1       -2 0.13985854E-01 0.20677512E+03</pdfrwt>
<totfact> 0.11636665E+04</totfact>
</mgrwt>
</event>
<event>
 4    1  0.6086918E-004  0.2441833E+03  0.7818608E-02  0.1117037E+00
          2   -1    0    0  501    0  0.00000000000E+00  0.00000000000E+00  0.15377470970E+04  0.15377470970E+04  0.25500000000E-02 0.  1.
         -2   -1    0    0    0  501 -0.00000000000E+00 -0.00000000000E+00 -0.96936455580E+01  0.96936458934E+01  0.25500000000E-02 0. -1.
    5000001    1    1    2    0    0  0.35250070192E+02  0.64696282370E+02  0.38648653754E+03  0.40091023945E+03  0.77000000000E+02 0.  0.
   -5000001    1    1    2    0    0 -0.35250070192E+02 -0.64696282370E+02  0.11415669139E+04  0.11465305034E+04  0.77000000000E+02 0.  0.
<mgrwt>
<rscale>  0 0.24418334E+03</rscale>
<asrwt>0</asrwt>
<pdfrwt beam="1">  1        2 0.23657637E+00 0.24418334E+03</pdfrwt>
<pdfrwt beam="2">  1       -2 0.14913308E-02 0.24418334E+03</pdfrwt>
<totfact> 0.15431359E+04</totfact>
</mgrwt>
</event>
<event>
 4    1  0.6086918E-004  0.2198425E+03  0.7818608E-02  0.1134001E+00
         -2   -1    0    0    0  501 -0.00000000000E+00  0.00000000000E+00  0.12687919345E+03  0.12687919348E+03  0.25500000000E-02 0. -1.
          2   -1    0    0  501    0  0.00000000000E+00 -0.00000000000E+00 -0.95229782815E+02  0.95229782849E+02  0.25500000000E-02 0.  1.
    5000001    1    1    2    0    0  0.47677635156E+02 -0.62074601665E+02  0.10549284845E+02  0.11030276731E+03  0.77000000000E+02 0.  0.
   -5000001    1    1    2    0    0 -0.47677635156E+02  0.62074601665E+02  0.21100125794E+02  0.11180620902E+03  0.77000000000E+02 0.  0.
<mgrwt>
<rscale>  0 0.21984247E+03</rscale>
<asrwt>0</asrwt>
<pdfrwt beam="1">  1        2 0.14650736E-01 0.21984247E+03</pdfrwt>
<pdfrwt beam="2">  1       -2 0.19519876E-01 0.21984247E+03</pdfrwt>
<totfact> 0.85797382E+03</totfact>
</mgrwt>
</event>
<event>
 4    1  0.6086918E-004  0.2085610E+03  0.7818608E-02  0.1142711E+00
         -2   -1    0    0    0  501 -0.00000000000E+00  0.00000000000E+00  0.37747523005E+01  0.37747531619E+01  0.25500000000E-02 0. -1.
          2   -1    0    0  501    0  0.00000000000E+00 -0.00000000000E+00 -0.28808301180E+04  0.28808301180E+04  0.25500000000E-02 0.  1.
    5000001    1    1    2    0    0  0.49709533080E+02 -0.25131180573E+02 -0.84479188108E+03  0.85012054219E+03  0.77000000000E+02 0.  0.
   -5000001    1    1    2    0    0 -0.49709533080E+02  0.25131180573E+02 -0.20322634847E+04  0.20344843290E+04  0.77000000000E+02 0.  0.
<mgrwt>
<rscale>  0 0.20856099E+03</rscale>
<asrwt>0</asrwt>
<pdfrwt beam="1">  1        2 0.44320288E+00 0.20856099E+03</pdfrwt>
<pdfrwt beam="2">  1       -2 0.58073349E-03 0.20856099E+03</pdfrwt>
<totfact> 0.11440274E+04</totfact>
</mgrwt>
</event>
<event>
 4    1  0.6086918E-004  0.2953508E+03  0.7818608E-02  0.1087588E+00
          2   -1    0    0  501    0  0.00000000000E+00  0.00000000000E+00  0.38676082225E+04  0.38676082225E+04  0.25500000000E-02 0.  1.
         -2   -1    0    0    0  501 -0.00000000000E+00 -0.00000000000E+00 -0.56386324647E+01  0.56386330413E+01  0.25500000000E-02 0. -1.
    5000001    1    1    2    0    0 -0.11281134598E+03 -0.50658216282E+02  0.22485420757E+04  0.22532561152E+04  0.77000000000E+02 0.  0.
   -5000001    1    1    2    0    0  0.11281134598E+03  0.50658216282E+02  0.16134275143E+04  0.16199907403E+04  0.77000000000E+02 0.  0.
<mgrwt>
<rscale>  0 0.29535079E+03</rscale>
<asrwt>0</asrwt>
<pdfrwt beam="1">  1        2 0.59501846E+00 0.29535079E+03</pdfrwt>
<pdfrwt beam="2">  1       -2 0.86747933E-03 0.29535079E+03</pdfrwt>
<totfact> 0.14677643E+03</totfact>
</mgrwt>
</event>
<event>
 4    1  0.6086918E-004  0.2690834E+03  0.7818608E-02  0.1101805E+00
         -2   -1    0    0    0  501 -0.00000000000E+00  0.00000000000E+00  0.24663101497E+02  0.24663101629E+02  0.25500000000E-02 0. -1.
          2   -1    0    0  501    0  0.00000000000E+00 -0.00000000000E+00 -0.73394921924E+03  0.73394921924E+03  0.25500000000E-02 0.  1.
    5000001    1    1    2    0    0 -0.10125230138E+03 -0.43188082194E+02 -0.33369221413E+03  0.35971757359E+03  0.77000000000E+02 0.  0.
   -5000001    1    1    2    0    0  0.10125230138E+03  0.43188082194E+02 -0.37559390361E+03  0.39889474728E+03  0.77000000000E+02 0.  0.
<mgrwt>
<rscale>  0 0.26908336E+03</rscale>
<asrwt>0</asrwt>
<pdfrwt beam="1">  1        2 0.11291525E+00 0.26908336E+03</pdfrwt>
<pdfrwt beam="2">  1       -2 0.37943239E-02 0.26908336E+03</pdfrwt>
<totfact> 0.11716401E+04</totfact>
</mgrwt>
</event>
<event>
 4    1  0.6086918E-004  0.4010005E+03  0.7818608E-02  0.1043434E+00
         -2   -1    0    0    0  501 -0.00000000000E+00  0.00000000000E+00  0.53375647674E+02  0.53375647735E+02  0.25500000000E-02 0. -1.
          2   -1    0    0  501    0  0.00000000000E+00 -0.00000000000E+00 -0.75315899561E+03  0.75315899561E+03  0.25500000000E-02 0.  1.
    5000001    1    1    2    0    0 -0.63089348199E+02  0.13230339645E+03 -0.57732843481E+03  0.60060101249E+03  0.77000000000E+02 0.  0.
   -5000001    1    1    2    0    0  0.63089348199E+02 -0.13230339645E+03 -0.12245491312E+03  0.20593363085E+03  0.77000000000E+02 0.  0.
<mgrwt>
<rscale>  0 0.40100049E+03</rscale>
<asrwt>0</asrwt>
<pdfrwt beam="1">  1        2 0.11587061E+00 0.40100049E+03</pdfrwt>
<pdfrwt beam="2">  1       -2 0.82116386E-02 0.40100049E+03</pdfrwt>
<totfact> 0.34939446E+03</totfact>
</mgrwt>
</event>
<event>
 4    1  0.6086918E-004  0.2029765E+03  0.7818608E-02  0.1147252E+00
          2   -1    0    0  501    0  0.00000000000E+00  0.00000000000E+00  0.19462918352E+02  0.19462918519E+02  0.25500000000E-02 0.  1.
         -2   -1    0    0    0  501 -0.00000000000E+00 -0.00000000000E+00 -0.52920467190E+03  0.52920467191E+03  0.25500000000E-02 0. -1.
    5000001    1    1    2    0    0  0.52363193766E+02  0.28270201308E+02 -0.17700637878E+03  0.20199348127E+03  0.77000000000E+02 0.  0.
   -5000001    1    1    2    0    0 -0.52363193766E+02 -0.28270201308E+02 -0.33273537476E+03  0.34667410916E+03  0.77000000000E+02 0.  0.
<mgrwt>
<rscale>  0 0.20297652E+03</rscale>
<asrwt>0</asrwt>
<pdfrwt beam="1">  1        2 0.29942955E-02 0.20297652E+03</pdfrwt>
<pdfrwt beam="2">  1       -2 0.81416093E-01 0.20297652E+03</pdfrwt>
<totfact> 0.42116033E+03</totfact>
</mgrwt>
</event>
<event>
 4    1  0.6086918E-004  0.2352839E+03  0.7818608E-02  0.1122975E+00
         -2   -1    0    0    0  501 -0.00000000000E+00  0.00000000000E+00  0.31903123298E+02  0.31903123400E+02  0.25500000000E-02 0. -1.
          2   -1    0    0  501    0  0.00000000000E+00 -0.00000000000E+00 -0.43380174358E+03  0.43380174359E+03  0.25500000000E-02 0.  1.
    5000001    1    1    2    0    0  0.94401871873E+01  0.70952338708E+02 -0.96451122829E+02  0.14267154796E+03  0.77000000000E+02 0.  0.
   -5000001    1    1    2    0    0 -0.94401871873E+01 -0.70952338708E+02 -0.30544749745E+03  0.32303331903E+03  0.77000000000E+02 0.  0.
<mgrwt>
<rscale>  0 0.23528392E+03</rscale>
<asrwt>0</asrwt>
<pdfrwt beam="1">  1        2 0.66738725E-01 0.23528392E+03</pdfrwt>
<pdfrwt beam="2">  1       -2 0.49081731E-02 0.23528392E+03</pdfrwt>
<totfact> 0.14455336E+04</totfact>
</mgrwt>
</event>
<event>
 4    1  0.6086918E-004  0.3957766E+03  0.7818608E-02  0.1045252E+00
          2   -1    0    0  501    0  0.00000000000E+00  0.00000000000E+00  0.13788799913E+03  0.13788799915E+03  0.25500000000E-02 0.  1.
         -2   -1    0    0    0  501 -0.00000000000E+00 -0.00000000000E+00 -0.28399696100E+03  0.28399696101E+03  0.25500000000E-02 0. -1.
    5000001    1    1    2    0    0 -0.11053280041E+03 -0.14410809377E+03 -0.56331014751E+02  0.20515073941E+03  0.77000000000E+02 0.  0.
   -5000001    1    1    2    0    0  0.11053280041E+03  0.14410809377E+03 -0.89777947121E+02  0.21673422075E+03  0.77000000000E+02 0.  0.
<mgrwt>
<rscale>  0 0.39577657E+03</rscale>
<asrwt>0</asrwt>
<pdfrwt beam="1">  1        2 0.21213538E-01 0.39577657E+03</pdfrwt>
<pdfrwt beam="2">  1       -2 0.43691840E-01 0.39577657E+03</pdfrwt>
<totfact> 0.13113240E+03</totfact>
</mgrwt>
</event>
<event>
 4    1  0.6086918E-004  0.2084260E+03  0.7818608E-02  0.1142818E+00
         -2   -1    0    0    0  501 -0.00000000000E+00  0.00000000000E+00  0.39646357066E+02  0.39646357148E+02  0.25500000000E-02 0. -1.
          2   -1    0    0  501    0  0.00000000000E+00 -0.00000000000E+00 -0.27393067540E+03  0.27393067541E+03  0.25500000000E-02 0.  1.
    5000001    1    1    2    0    0  0.64961117469E+02 -0.11654437195E+02 -0.81047297558E+02  0.12982078851E+03  0.77000000000E+02 0.  0.
   -5000001    1    1    2    0    0 -0.64961117469E+02  0.11654437195E+02 -0.15323702077E+03  0.18375624404E+03  0.77000000000E+02 0.  0.
<mgrwt>
<rscale>  0 0.20842604E+03</rscale>
<asrwt>0</asrwt>
<pdfrwt beam="1">  1        2 0.42143180E-01 0.20842604E+03</pdfrwt>
<pdfrwt beam="2">  1       -2 0.60994397E-02 0.20842604E+03</pdfrwt>
<totfact> 0.16905242E+04</totfact>
</mgrwt>
</event>
<event>
 4    1  0.6086918E-004  0.2191777E+03  0.7818608E-02  0.1134498E+00
          2   -1    0    0  501    0  0.00000000000E+00  0.00000000000E+00  0.14008125740E+02  0.14008125972E+02  0.25500000000E-02 0.  1.
         -2   -1    0    0    0  501 -0.00000000000E+00 -0.00000000000E+00 -0.85733900940E+03  0.85733900941E+03  0.25500000000E-02 0. -1.
    5000001    1    1    2    0    0  0.52196802645E+02  0.57765057015E+02 -0.43917796424E+03  0.45262301343E+03  0.77000000000E+02 0.  0.
   -5000001    1    1    2    0    0 -0.52196802645E+02 -0.57765057015E+02 -0.40415291943E+03  0.41872412195E+03  0.77000000000E+02 0.  0.
<mgrwt>
<rscale>  0 0.21917767E+03</rscale>
<asrwt>0</asrwt>
<pdfrwt beam="1">  1        2 0.21550969E-02 0.21917767E+03</pdfrwt>
<pdfrwt beam="2">  1       -2 0.13189827E+00 0.21917767E+03</pdfrwt>
<totfact> 0.21460753E+03</totfact>
</mgrwt>
</event>
<event>
 4    1  0.6086918E-004  0.1898455E+03  0.7818608E-02  0.1158601E+00
          2   -1    0    0  501    0  0.00000000000E+00  0.00000000000E+00  0.72566361012E+03  0.72566361013E+03  0.25500000000E-02 0.  1.
         -2   -1    0    0    0  501 -0.00000000000E+00 -0.00000000000E+00 -0.12416673247E+02  0.12416673509E+02  0.25500000000E-02 0. -1.
    5000001    1    1    2    0    0 -0.41964508366E+01 -0.51199793611E+02  0.27485963028E+03  0.29002731840E+03  0.77000000000E+02 0.  0.
   -5000001    1    1    2    0    0  0.41964508366E+01  0.51199793611E+02  0.43838730660E+03  0.44805296523E+03  0.77000000000E+02 0.  0.
<mgrwt>
<rscale>  0 0.18984550E+03</rscale>
<asrwt>0</asrwt>
<pdfrwt beam="1">  1        2 0.11164054E+00 0.18984550E+03</pdfrwt>
<pdfrwt beam="2">  1       -2 0.19102578E-02 0.18984550E+03</pdfrwt>
<totfact> 0.32128299E+04</totfact>
</mgrwt>
</event>
<event>
 4    1  0.6086918E-004  0.1936685E+03  0.7818608E-02  0.1155194E+00
         -2   -1    0    0    0  501 -0.00000000000E+00  0.00000000000E+00  0.16573334714E+03  0.16573334715E+03  0.25500000000E-02 0. -1.
          2   -1    0    0  501    0  0.00000000000E+00 -0.00000000000E+00 -0.56578060700E+02  0.56578060757E+02  0.25500000000E-02 0.  1.
    5000001    1    1    2    0    0  0.23902434917E+02  0.32405704002E+02  0.55204669634E+01  0.87068545425E+02  0.77000000000E+02 0.  0.
   -5000001    1    1    2    0    0 -0.23902434917E+02 -0.32405704002E+02  0.10363481947E+03  0.13524286249E+03  0.77000000000E+02 0.  0.
<mgrwt>
<rscale>  0 0.19366849E+03</rscale>
<asrwt>0</asrwt>
<pdfrwt beam="1">  1        2 0.87043170E-02 0.19366849E+03</pdfrwt>
<pdfrwt beam="2">  1       -2 0.25497438E-01 0.19366849E+03</pdfrwt>
<totfact> 0.10120871E+04</totfact>
</mgrwt>
</event>
<event>
 4    1  0.6086918E-004  0.2872645E+03  0.7818608E-02  0.1091786E+00
         -2   -1    0    0    0  501 -0.00000000000E+00  0.00000000000E+00  0.10972980681E+02  0.10972980978E+02  0.25500000000E-02 0. -1.
          2   -1    0    0  501    0  0.00000000000E+00 -0.00000000000E+00 -0.18800933748E+04  0.18800933748E+04  0.25500000000E-02 0.  1.
    5000001    1    1    2    0    0  0.71922079747E+02 -0.94524334569E+02 -0.77417318214E+03  0.78700746586E+03  0.77000000000E+02 0.  0.
   -5000001    1    1    2    0    0 -0.71922079747E+02  0.94524334569E+02 -0.10949472120E+04  0.11040588899E+04  0.77000000000E+02 0.  0.
<mgrwt>
<rscale>  0 0.28726454E+03</rscale>
<asrwt>0</asrwt>
<pdfrwt beam="1">  1        2 0.28924488E+00 0.28726454E+03</pdfrwt>
<pdfrwt beam="2">  1       -2 0.16881524E-02 0.28726454E+03</pdfrwt>
<totfact> 0.85269504E+03</totfact>
</mgrwt>
</event>
<event>
 4    1  0.6086918E-004  0.1928742E+03  0.7818608E-02  0.1155894E+00
          2   -1    0    0  501    0  0.00000000000E+00  0.00000000000E+00  0.45544173994E+03  0.45544173995E+03  0.25500000000E-02 0.  1.
         -2   -1    0    0    0  501 -0.00000000000E+00 -0.00000000000E+00 -0.20419984330E+02  0.20419984489E+02  0.25500000000E-02 0. -1.
    5000001    1    1    2    0    0 -0.62074008317E+01 -0.57709122037E+02  0.22120234399E+03  0.24130551502E+03  0.77000000000E+02 0.  0.
   -5000001    1    1    2    0    0  0.62074008317E+01  0.57709122037E+02  0.21381941163E+03  0.23455620942E+03  0.77000000000E+02 0.  0.
<mgrwt>
<rscale>  0 0.19287419E+03</rscale>
<asrwt>0</asrwt>
<pdfrwt beam="1">  1        2 0.70067961E-01 0.19287419E+03</pdfrwt>
<pdfrwt beam="2">  1       -2 0.31415360E-02 0.19287419E+03</pdfrwt>
<totfact> 0.26382795E+04</totfact>
</mgrwt>
</event>
<event>
 4    1  0.6086918E-004  0.2259741E+03  0.7818608E-02  0.1129506E+00
          2   -1    0    0  501    0  0.00000000000E+00  0.00000000000E+00  0.20474002544E+04  0.20474002544E+04  0.25500000000E-02 0.  1.
         -2   -1    0    0    0  501 -0.00000000000E+00 -0.00000000000E+00 -0.62352574377E+01  0.62352579592E+01  0.25500000000E-02 0. -1.
    5000001    1    1    2    0    0 -0.46137484566E+02  0.48800237644E+02  0.58219601879E+03  0.59109333863E+03  0.77000000000E+02 0.  0.
   -5000001    1    1    2    0    0  0.46137484566E+02 -0.48800237644E+02  0.14589689782E+04  0.14625421738E+04  0.77000000000E+02 0.  0.
<mgrwt>
<rscale>  0 0.22597405E+03</rscale>
<asrwt>0</asrwt>
<pdfrwt beam="1">  1        2 0.31498499E+00 0.22597405E+03</pdfrwt>
<pdfrwt beam="2">  1       -2 0.95926939E-03 0.22597405E+03</pdfrwt>
<totfact> 0.15799411E+04</totfact>
</mgrwt>
</event>
<event>
 4    1  0.6086918E-004  0.2849083E+03  0.7818608E-02  0.1093038E+00
         -2   -1    0    0    0  501 -0.00000000000E+00  0.00000000000E+00  0.41245610106E+02  0.41245610185E+02  0.25500000000E-02 0. -1.
          2   -1    0    0  501    0  0.00000000000E+00 -0.00000000000E+00 -0.49200851733E+03  0.49200851733E+03  0.25500000000E-02 0.  1.
    5000001    1    1    2    0    0 -0.84494814513E+02 -0.70273675822E+02 -0.13588458357E+03  0.19097482359E+03  0.77000000000E+02 0.  0.
   -5000001    1    1    2    0    0  0.84494814513E+02  0.70273675822E+02 -0.31487832365E+03  0.34227930393E+03  0.77000000000E+02 0.  0.
<mgrwt>
<rscale>  0 0.28490835E+03</rscale>
<asrwt>0</asrwt>
<pdfrwt beam="1">  1        2 0.75693614E-01 0.28490835E+03</pdfrwt>
<pdfrwt beam="2">  1       -2 0.63454788E-02 0.28490835E+03</pdfrwt>
<totfact> 0.85710143E+03</totfact>
</mgrwt>
</event>
<event>
 4    1  0.6086918E-004  0.4332270E+03  0.7818608E-02  0.1032845E+00
          2   -1    0    0  501    0  0.00000000000E+00  0.00000000000E+00  0.17417687826E+04  0.17417687826E+04  0.25500000000E-02 0.  1.
         -2   -1    0    0    0  501 -0.00000000000E+00 -0.00000000000E+00 -0.26938942769E+02  0.26938942890E+02  0.25500000000E-02 0. -1.
    5000001    1    1    2    0    0 -0.18196721753E+03  0.16719671737E+02  0.12133493764E+04  0.12294459422E+04  0.77000000000E+02 0.  0.
   -5000001    1    1    2    0    0  0.18196721753E+03 -0.16719671737E+02  0.50148046347E+03  0.53926178329E+03  0.77000000000E+02 0.  0.
<mgrwt>
<rscale>  0 0.43322701E+03</rscale>
<asrwt>0</asrwt>
<pdfrwt beam="1">  1        2 0.26796445E+00 0.43322701E+03</pdfrwt>
<pdfrwt beam="2">  1       -2 0.41444524E-02 0.43322701E+03</pdfrwt>
<totfact> 0.26337625E+03</totfact>
</mgrwt>
</event>
<event>
 4    1  0.6086918E-004  0.2143272E+03  0.7818608E-02  0.1138184E+00
          2   -1    0    0  501    0  0.00000000000E+00  0.00000000000E+00  0.25031084918E+04  0.25031084918E+04  0.25500000000E-02 0.  1.
         -2   -1    0    0    0  501 -0.00000000000E+00 -0.00000000000E+00 -0.45879105430E+01  0.45879112517E+01  0.25500000000E-02 0. -1.
    5000001    1    1    2    0    0  0.44679137098E+02 -0.55683635349E+02  0.99882260719E+03  0.10043268856E+04  0.77000000000E+02 0.  0.
   -5000001    1    1    2    0    0 -0.44679137098E+02  0.55683635349E+02  0.14996979740E+04  0.15033695174E+04  0.77000000000E+02 0.  0.
<mgrwt>
<rscale>  0 0.21432721E+03</rscale>
<asrwt>0</asrwt>
<pdfrwt beam="1">  1        2 0.38509405E+00 0.21432721E+03</pdfrwt>
<pdfrwt beam="2">  1       -2 0.70583166E-03 0.21432721E+03</pdfrwt>
<totfact> 0.14054261E+04</totfact>
</mgrwt>
</event>
<event>
 4    1  0.6086918E-004  0.1804629E+03  0.7818608E-02  0.1167356E+00
          2   -1    0    0  501    0  0.00000000000E+00  0.00000000000E+00  0.30328618129E+03  0.30328618130E+03  0.25500000000E-02 0.  1.
         -2   -1    0    0    0  501 -0.00000000000E+00 -0.00000000000E+00 -0.26844983347E+02  0.26844983468E+02  0.25500000000E-02 0. -1.
    5000001    1    1    2    0    0  0.21551631768E+02 -0.17861969890E+02  0.69062413975E+02  0.10715474709E+03  0.77000000000E+02 0.  0.
   -5000001    1    1    2    0    0 -0.21551631768E+02  0.17861969890E+02  0.20737878397E+03  0.22297641768E+03  0.77000000000E+02 0.  0.
<mgrwt>
<rscale>  0 0.18046288E+03</rscale>
<asrwt>0</asrwt>
<pdfrwt beam="1">  1        2 0.46659407E-01 0.18046288E+03</pdfrwt>
<pdfrwt beam="2">  1       -2 0.41299979E-02 0.18046288E+03</pdfrwt>
<totfact> 0.27038219E+04</totfact>
</mgrwt>
</event>
<event>
 4    1  0.6086918E-004  0.3206983E+03  0.7818608E-02  0.1075328E+00
         -2   -1    0    0    0  501 -0.00000000000E+00  0.00000000000E+00  0.32996948563E+02  0.32996948661E+02  0.25500000000E-02 0. -1.
          2   -1    0    0  501    0  0.00000000000E+00 -0.00000000000E+00 -0.77921916164E+03  0.77921916165E+03  0.25500000000E-02 0.  1.
    5000001    1    1    2    0    0  0.11746782722E+03 -0.69683716883E+02 -0.28803734677E+03  0.32794667854E+03  0.77000000000E+02 0.  0.
   -5000001    1    1    2    0    0 -0.11746782722E+03  0.69683716883E+02 -0.45818486631E+03  0.48426943177E+03  0.77000000000E+02 0.  0.
<mgrwt>
<rscale>  0 0.32069833E+03</rscale>
<asrwt>0</asrwt>
<pdfrwt beam="1">  1        2 0.11987986E+00 0.32069833E+03</pdfrwt>
<pdfrwt beam="2">  1       -2 0.50764542E-02 0.32069833E+03</pdfrwt>
<totfact> 0.70355004E+03</totfact>
</mgrwt>
</event>
<event>
 4    1  0.6086918E-004  0.3362204E+03  0.7818608E-02  0.1068417E+00
         -2   -1    0    0    0  501 -0.00000000000E+00  0.00000000000E+00  0.41964920954E+02  0.41964921032E+02  0.25500000000E-02 0. -1.
          2   -1    0    0  501    0  0.00000000000E+00 -0.00000000000E+00 -0.67344418445E+03  0.67344418445E+03  0.25500000000E-02 0.  1.
    5000001    1    1    2    0    0 -0.51180503004E+02  0.12590342502E+03 -0.18352618788E+03  0.24100202895E+03  0.77000000000E+02 0.  0.
   -5000001    1    1    2    0    0  0.51180503004E+02 -0.12590342502E+03 -0.44795307561E+03  0.47440707654E+03  0.77000000000E+02 0.  0.
<mgrwt>
<rscale>  0 0.33622036E+03</rscale>
<asrwt>0</asrwt>
<pdfrwt beam="1">  1        2 0.10360679E+00 0.33622036E+03</pdfrwt>
<pdfrwt beam="2">  1       -2 0.64561422E-02 0.33622036E+03</pdfrwt>
<totfact> 0.58289726E+03</totfact>
</mgrwt>
</event>
<event>
 4    1  0.6086918E-004  0.2367150E+03  0.7818608E-02  0.1122001E+00
          2   -1    0    0  501    0  0.00000000000E+00  0.00000000000E+00  0.76264578032E+03  0.76264578033E+03  0.25500000000E-02 0.  1.
         -2   -1    0    0    0  501 -0.00000000000E+00 -0.00000000000E+00 -0.18368293045E+02  0.18368293222E+02  0.25500000000E-02 0. -1.
    5000001    1    1    2    0    0 -0.74999551523E+02  0.29253587924E+02  0.24021299420E+03  0.26478668342E+03  0.77000000000E+02 0.  0.
   -5000001    1    1    2    0    0  0.74999551523E+02 -0.29253587924E+02  0.50406449308E+03  0.51622739013E+03  0.77000000000E+02 0.  0.
<mgrwt>
<rscale>  0 0.23671503E+03</rscale>
<asrwt>0</asrwt>
<pdfrwt beam="1">  1        2 0.11733012E+00 0.23671503E+03</pdfrwt>
<pdfrwt beam="2">  1       -2 0.28258912E-02 0.23671503E+03</pdfrwt>
<totfact> 0.17238046E+04</totfact>
</mgrwt>
</event>
<event>
 4    1  0.6086918E-004  0.2370824E+03  0.7818608E-02  0.1121752E+00
          2   -1    0    0  501    0  0.00000000000E+00  0.00000000000E+00  0.25857503955E+03  0.25857503956E+03  0.25500000000E-02 0.  1.
         -2   -1    0    0    0  501 -0.00000000000E+00 -0.00000000000E+00 -0.54344058569E+02  0.54344058629E+02  0.25500000000E-02 0. -1.
    5000001    1    1    2    0    0  0.87702558681E+02 -0.99805580839E-01  0.74705648599E+02  0.13857013637E+03  0.77000000000E+02 0.  0.
   -5000001    1    1    2    0    0 -0.87702558681E+02  0.99805580839E-01  0.12952533238E+03  0.17434896182E+03  0.77000000000E+02 0.  0.
<mgrwt>
<rscale>  0 0.23708241E+03</rscale>
<asrwt>0</asrwt>
<pdfrwt beam="1">  1        2 0.39780775E-01 0.23708241E+03</pdfrwt>
<pdfrwt beam="2">  1       -2 0.83606245E-02 0.23708241E+03</pdfrwt>
<totfact> 0.11132937E+04</totfact>
</mgrwt>
</event>
<event>
 4    1  0.6086918E-004  0.2096327E+03  0.7818608E-02  0.1141857E+00
          2   -1    0    0  501    0  0.00000000000E+00  0.00000000000E+00  0.82358725690E+03  0.82358725690E+03  0.25500000000E-02 0.  1.
         -2   -1    0    0    0  501 -0.00000000000E+00 -0.00000000000E+00 -0.13339767763E+02  0.13339768007E+02  0.25500000000E-02 0. -1.
    5000001    1    1    2    0    0  0.51387594941E+02 -0.38889718059E+02  0.52518453162E+03  0.53469700517E+03  0.77000000000E+02 0.  0.
   -5000001    1    1    2    0    0 -0.51387594941E+02  0.38889718059E+02  0.28506295752E+03  0.30223001974E+03  0.77000000000E+02 0.  0.
<mgrwt>
<rscale>  0 0.20963266E+03</rscale>
<asrwt>0</asrwt>
<pdfrwt beam="1">  1        2 0.12670575E+00 0.20963266E+03</pdfrwt>
<pdfrwt beam="2">  1       -2 0.20522717E-02 0.20963266E+03</pdfrwt>
<totfact> 0.24885680E+04</totfact>
</mgrwt>
</event>
<event>
 4    1  0.6086918E-004  0.4814280E+03  0.7818608E-02  0.1018743E+00
         -2   -1    0    0    0  501 -0.00000000000E+00  0.00000000000E+00  0.16410288610E+02  0.16410288808E+02  0.25500000000E-02 0. -1.
          2   -1    0    0  501    0  0.00000000000E+00 -0.00000000000E+00 -0.35309082602E+04  0.35309082602E+04  0.25500000000E-02 0.  1.
    5000001    1    1    2    0    0 -0.14866195820E+03  0.17019671304E+03 -0.15305097593E+04  0.15490178896E+04  0.77000000000E+02 0.  0.
   -5000001    1    1    2    0    0  0.14866195820E+03 -0.17019671304E+03 -0.19839882122E+04  0.19983006593E+04  0.77000000000E+02 0.  0.
<mgrwt>
<rscale>  0 0.48142798E+03</rscale>
<asrwt>0</asrwt>
<pdfrwt beam="1">  1        2 0.54321605E+00 0.48142798E+03</pdfrwt>
<pdfrwt beam="2">  1       -2 0.25246626E-02 0.48142798E+03</pdfrwt>
<totfact> 0.50791793E+02</totfact>
</mgrwt>
</event>
<event>
 4    1  0.6086918E-004  0.4136205E+03  0.7818608E-02  0.1039163E+00
          2   -1    0    0  501    0  0.00000000000E+00  0.00000000000E+00  0.38806377725E+03  0.38806377726E+03  0.25500000000E-02 0.  1.
         -2   -1    0    0    0  501 -0.00000000000E+00 -0.00000000000E+00 -0.11021507494E+03  0.11021507497E+03  0.25500000000E-02 0. -1.
    5000001    1    1    2    0    0 -0.15756871496E+03  0.96017113651E+02  0.75243872426E+02  0.21363011582E+03  0.77000000000E+02 0.  0.
   -5000001    1    1    2    0    0  0.15756871496E+03 -0.96017113651E+02  0.20260482989E+03  0.28464873641E+03  0.77000000000E+02 0.  0.
<mgrwt>
<rscale>  0 0.41362049E+03</rscale>
<asrwt>0</asrwt>
<pdfrwt beam="1">  1        2 0.59702119E-01 0.41362049E+03</pdfrwt>
<pdfrwt beam="2">  1       -2 0.16956166E-01 0.41362049E+03</pdfrwt>
<totfact> 0.23149490E+03</totfact>
</mgrwt>
</event>
<event>
 4    1  0.6086918E-004  0.3037571E+03  0.7818608E-02  0.1083377E+00
          2   -1    0    0  501    0  0.00000000000E+00  0.00000000000E+00  0.16675672450E+02  0.16675672645E+02  0.25500000000E-02 0.  1.
         -2   -1    0    0    0  501 -0.00000000000E+00 -0.00000000000E+00 -0.13832784161E+04  0.13832784161E+04  0.25500000000E-02 0. -1.
    5000001    1    1    2    0    0 -0.79158325057E+02  0.10357988220E+03 -0.73846567181E+03  0.75382715583E+03  0.77000000000E+02 0.  0.
   -5000001    1    1    2    0    0  0.79158325057E+02 -0.10357988220E+03 -0.62813707180E+03  0.64612693288E+03  0.77000000000E+02 0.  0.
<mgrwt>
<rscale>  0 0.30375713E+03</rscale>
<asrwt>0</asrwt>
<pdfrwt beam="1">  1        2 0.25654892E-02 0.30375713E+03</pdfrwt>
<pdfrwt beam="2">  1       -2 0.21281197E+00 0.30375713E+03</pdfrwt>
<totfact> 0.46626454E+02</totfact>
</mgrwt>
</event>
<event>
 4    1  0.6086918E-004  0.4704661E+03  0.7818608E-02  0.1021789E+00
          2   -1    0    0  501    0  0.00000000000E+00  0.00000000000E+00  0.40257069429E+02  0.40257069510E+02  0.25500000000E-02 0.  1.
         -2   -1    0    0    0  501 -0.00000000000E+00 -0.00000000000E+00 -0.13745307832E+04  0.13745307832E+04  0.25500000000E-02 0. -1.
    5000001    1    1    2    0    0  0.22133363123E+03  0.13729220955E+02 -0.62167796396E+03  0.66452205283E+03  0.77000000000E+02 0.  0.
   -5000001    1    1    2    0    0 -0.22133363123E+03 -0.13729220955E+02 -0.71259574976E+03  0.75026579984E+03  0.77000000000E+02 0.  0.
<mgrwt>
<rscale>  0 0.47046607E+03</rscale>
<asrwt>0</asrwt>
<pdfrwt beam="1">  1        2 0.61933963E-02 0.47046607E+03</pdfrwt>
<pdfrwt beam="2">  1       -2 0.21146624E+00 0.47046607E+03</pdfrwt>
<totfact> 0.14364615E+02</totfact>
</mgrwt>
</event>
<event>
 4    1  0.6086918E-004  0.6563737E+03  0.7818608E-02  0.9794892E-01
          2   -1    0    0  501    0  0.00000000000E+00  0.00000000000E+00  0.14965313557E+04  0.14965313557E+04  0.25500000000E-02 0.  1.
         -2   -1    0    0    0  501 -0.00000000000E+00 -0.00000000000E+00 -0.71970825688E+02  0.71970825733E+02  0.25500000000E-02 0. -1.
    5000001    1    1    2    0    0  0.22865859625E+03 -0.14187323043E+03  0.11217744373E+04  0.11561659290E+04  0.77000000000E+02 0.  0.
   -5000001    1    1    2    0    0 -0.22865859625E+03  0.14187323043E+03  0.30278609272E+03  0.41233625247E+03  0.77000000000E+02 0.  0.
<mgrwt>
<rscale>  0 0.65637367E+03</rscale>
<asrwt>0</asrwt>
<pdfrwt beam="1">  1        2 0.23023558E+00 0.65637367E+03</pdfrwt>
<pdfrwt beam="2">  1       -2 0.11072435E-01 0.65637367E+03</pdfrwt>
<totfact> 0.75337295E+02</totfact>
</mgrwt>
</event>
<event>
 4    1  0.6086918E-004  0.2501082E+03  0.7818608E-02  0.1113236E+00
          2   -1    0    0  501    0  0.00000000000E+00  0.00000000000E+00  0.11516813266E+04  0.11516813266E+04  0.25500000000E-02 0.  1.
         -2   -1    0    0    0  501 -0.00000000000E+00 -0.00000000000E+00 -0.13578865147E+02  0.13578865387E+02  0.25500000000E-02 0. -1.
    5000001    1    1    2    0    0  0.91450741807E+02 -0.10224901359E+02  0.40487505499E+03  0.42228023508E+03  0.77000000000E+02 0.  0.
   -5000001    1    1    2    0    0 -0.91450741807E+02  0.10224901359E+02  0.73322740649E+03  0.74297995694E+03  0.77000000000E+02 0.  0.
<mgrwt>
<rscale>  0 0.25010818E+03</rscale>
<asrwt>0</asrwt>
<pdfrwt beam="1">  1        2 0.17718178E+00 0.25010818E+03</pdfrwt>
<pdfrwt beam="2">  1       -2 0.20890557E-02 0.25010818E+03</pdfrwt>
<totfact> 0.15356412E+04</totfact>
</mgrwt>
</event>
<event>
 4    1  0.6086918E-004  0.3256741E+03  0.7818608E-02  0.1073067E+00
          2   -1    0    0  501    0  0.00000000000E+00  0.00000000000E+00  0.40276467210E+03  0.40276467210E+03  0.25500000000E-02 0.  1.
         -2   -1    0    0    0  501 -0.00000000000E+00 -0.00000000000E+00 -0.65834750905E+02  0.65834750954E+02  0.25500000000E-02 0. -1.
    5000001    1    1    2    0    0  0.12365176829E+03 -0.71747597921E+02  0.18605405854E+03  0.24694653330E+03  0.77000000000E+02 0.  0.
   -5000001    1    1    2    0    0 -0.12365176829E+03  0.71747597921E+02  0.15087586265E+03  0.22165288976E+03  0.77000000000E+02 0.  0.
<mgrwt>
<rscale>  0 0.32567414E+03</rscale>
<asrwt>0</asrwt>
<pdfrwt beam="1">  1        2 0.61963795E-01 0.32567414E+03</pdfrwt>
<pdfrwt beam="2">  1       -2 0.10128423E-01 0.32567414E+03</pdfrwt>
<totfact> 0.51573626E+03</totfact>
</mgrwt>
</event>
<event>
 4    1  0.6086918E-004  0.2143833E+03  0.7818608E-02  0.1138141E+00
         -2   -1    0    0    0  501 -0.00000000000E+00  0.00000000000E+00  0.82599266807E+01  0.82599270743E+01  0.25500000000E-02 0. -1.
          2   -1    0    0  501    0  0.00000000000E+00 -0.00000000000E+00 -0.13910593189E+04  0.13910593189E+04  0.25500000000E-02 0.  1.
    5000001    1    1    2    0    0  0.69335350349E+02 -0.24562412963E+02 -0.61136637413E+03  0.62057114529E+03  0.77000000000E+02 0.  0.
   -5000001    1    1    2    0    0 -0.69335350349E+02  0.24562412963E+02 -0.77143301808E+03  0.77874810069E+03  0.77000000000E+02 0.  0.
<mgrwt>
<rscale>  0 0.21438329E+03</rscale>
<asrwt>0</asrwt>
<pdfrwt beam="1">  1        2 0.21400894E+00 0.21438329E+03</pdfrwt>
<pdfrwt beam="2">  1       -2 0.12707591E-02 0.21438329E+03</pdfrwt>
<totfact> 0.23204990E+04</totfact>
</mgrwt>
</event>
<event>
 4    1  0.6086918E-004  0.2084345E+03  0.7818608E-02  0.1142812E+00
         -2   -1    0    0    0  501 -0.00000000000E+00  0.00000000000E+00  0.40342636394E+02  0.40342636474E+02  0.25500000000E-02 0. -1.
          2   -1    0    0  501    0  0.00000000000E+00 -0.00000000000E+00 -0.26922478449E+03  0.26922478450E+03  0.25500000000E-02 0.  1.
    5000001    1    1    2    0    0 -0.55395187555E+02  0.14347509754E+00 -0.50325902780E+02  0.10737943881E+03  0.77000000000E+02 0.  0.
   -5000001    1    1    2    0    0  0.55395187555E+02 -0.14347509754E+00 -0.17855624532E+03  0.20218798216E+03  0.77000000000E+02 0.  0.
<mgrwt>
<rscale>  0 0.20843452E+03</rscale>
<asrwt>0</asrwt>
<pdfrwt beam="1">  1        2 0.41419196E-01 0.20843452E+03</pdfrwt>
<pdfrwt beam="2">  1       -2 0.62065596E-02 0.20843452E+03</pdfrwt>
<totfact> 0.16769225E+04</totfact>
</mgrwt>
</event>
<event>
 4    1  0.6086918E-004  0.1887180E+03  0.7818608E-02  0.1159623E+00
          2   -1    0    0  501    0  0.00000000000E+00  0.00000000000E+00  0.16744923479E+04  0.16744923479E+04  0.25500000000E-02 0.  1.
         -2   -1    0    0    0  501 -0.00000000000E+00 -0.00000000000E+00 -0.53172069985E+01  0.53172076099E+01  0.25500000000E-02 0. -1.
    5000001    1    1    2    0    0  0.37777496145E+02  0.20010537271E+02  0.11360548227E+04  0.11394635233E+04  0.77000000000E+02 0.  0.
   -5000001    1    1    2    0    0 -0.37777496145E+02 -0.20010537271E+02  0.53312031822E+03  0.54034603220E+03  0.77000000000E+02 0.  0.
<mgrwt>
<rscale>  0 0.18871802E+03</rscale>
<asrwt>0</asrwt>
<pdfrwt beam="1">  1        2 0.25761385E+00 0.18871802E+03</pdfrwt>
<pdfrwt beam="2">  1       -2 0.81803304E-03 0.18871802E+03</pdfrwt>
<totfact> 0.30832767E+04</totfact>
</mgrwt>
</event>
<event>
 4    1  0.6086918E-004  0.3248854E+03  0.7818608E-02  0.1073423E+00
         -2   -1    0    0    0  501 -0.00000000000E+00  0.00000000000E+00  0.87198730786E+02  0.87198730823E+02  0.25500000000E-02 0. -1.
          2   -1    0    0  501    0  0.00000000000E+00 -0.00000000000E+00 -0.30261477026E+03  0.30261477027E+03  0.25500000000E-02 0.  1.
    5000001    1    1    2    0    0 -0.11078101638E+02 -0.14042693878E+03 -0.13749171444E+03  0.21136560981E+03  0.77000000000E+02 0.  0.
   -5000001    1    1    2    0    0  0.11078101638E+02  0.14042693878E+03 -0.77924325028E+02  0.17844789128E+03  0.77000000000E+02 0.  0.
<mgrwt>
<rscale>  0 0.32488536E+03</rscale>
<asrwt>0</asrwt>
<pdfrwt beam="1">  1        2 0.46556118E-01 0.32488536E+03</pdfrwt>
<pdfrwt beam="2">  1       -2 0.13415189E-01 0.32488536E+03</pdfrwt>
<totfact> 0.44649930E+03</totfact>
</mgrwt>
</event>
<event>
 4    1  0.6086918E-004  0.4847775E+03  0.7818608E-02  0.1017830E+00
          2   -1    0    0  501    0  0.00000000000E+00  0.00000000000E+00  0.70319075263E+03  0.70319075263E+03  0.25500000000E-02 0.  1.
         -2   -1    0    0    0  501 -0.00000000000E+00 -0.00000000000E+00 -0.83551014708E+02  0.83551014747E+02  0.25500000000E-02 0. -1.
    5000001    1    1    2    0    0 -0.16086584738E+02 -0.22924996787E+03  0.31468176774E+03  0.39720012705E+03  0.77000000000E+02 0.  0.
   -5000001    1    1    2    0    0  0.16086584738E+02  0.22924996787E+03  0.30495797018E+03  0.38954164033E+03  0.77000000000E+02 0.  0.
<mgrwt>
<rscale>  0 0.48477748E+03</rscale>
<asrwt>0</asrwt>
<pdfrwt beam="1">  1        2 0.10818320E+00 0.48477748E+03</pdfrwt>
<pdfrwt beam="2">  1       -2 0.12854002E-01 0.48477748E+03</pdfrwt>
<totfact> 0.18497090E+03</totfact>
</mgrwt>
</event>
<event>
 4    1  0.6086918E-004  0.3521476E+03  0.7818608E-02  0.1061737E+00
          2   -1    0    0  501    0  0.00000000000E+00  0.00000000000E+00  0.11705721696E+04  0.11705721696E+04  0.25500000000E-02 0.  1.
         -2   -1    0    0    0  501 -0.00000000000E+00 -0.00000000000E+00 -0.26484466274E+02  0.26484466396E+02  0.25500000000E-02 0. -1.
    5000001    1    1    2    0    0 -0.58535731270E+02  0.13682598197E+03  0.38819216026E+03  0.42281193747E+03  0.77000000000E+02 0.  0.
   -5000001    1    1    2    0    0  0.58535731270E+02 -0.13682598197E+03  0.75589554307E+03  0.77424469854E+03  0.77000000000E+02 0.  0.
<mgrwt>
<rscale>  0 0.35214758E+03</rscale>
<asrwt>0</asrwt>
<pdfrwt beam="1">  1        2 0.18008800E+00 0.35214758E+03</pdfrwt>
<pdfrwt beam="2">  1       -2 0.40745339E-02 0.35214758E+03</pdfrwt>
<totfact> 0.55744761E+03</totfact>
</mgrwt>
</event>
<event>
 4    1  0.6086918E-004  0.2853396E+03  0.7818608E-02  0.1092808E+00
          2   -1    0    0  501    0  0.00000000000E+00  0.00000000000E+00  0.19560632588E+04  0.19560632588E+04  0.25500000000E-02 0.  1.
         -2   -1    0    0    0  501 -0.00000000000E+00 -0.00000000000E+00 -0.10405935815E+02  0.10405936128E+02  0.25500000000E-02 0. -1.
    5000001    1    1    2    0    0  0.50520411531E+02  0.99465709400E+02  0.12794836365E+04  0.12866441293E+04  0.77000000000E+02 0.  0.
   -5000001    1    1    2    0    0 -0.50520411531E+02 -0.99465709400E+02  0.66617368651E+03  0.67982506568E+03  0.77000000000E+02 0.  0.
<mgrwt>
<rscale>  0 0.28533958E+03</rscale>
<asrwt>0</asrwt>
<pdfrwt beam="1">  1        2 0.30093270E+00 0.28533958E+03</pdfrwt>
<pdfrwt beam="2">  1       -2 0.16009138E-02 0.28533958E+03</pdfrwt>
<totfact> 0.84065906E+03</totfact>
</mgrwt>
</event>
<event>
 4    1  0.6086918E-004  0.2281341E+03  0.7818608E-02  0.1127960E+00
          2   -1    0    0  501    0  0.00000000000E+00  0.00000000000E+00  0.16195774270E+04  0.16195774270E+04  0.25500000000E-02 0.  1.
         -2   -1    0    0    0  501 -0.00000000000E+00 -0.00000000000E+00 -0.80337535695E+01  0.80337539742E+01  0.25500000000E-02 0. -1.
    5000001    1    1    2    0    0  0.84596505842E+00  0.60966014163E+02  0.12196140060E+04  0.12235623785E+04  0.77000000000E+02 0.  0.
   -5000001    1    1    2    0    0 -0.84596505842E+00 -0.60966014163E+02  0.39192966741E+03  0.40404880242E+03  0.77000000000E+02 0.  0.
<mgrwt>
<rscale>  0 0.22813405E+03</rscale>
<asrwt>0</asrwt>
<pdfrwt beam="1">  1        2 0.24916567E+00 0.22813405E+03</pdfrwt>
<pdfrwt beam="2">  1       -2 0.12359626E-02 0.22813405E+03</pdfrwt>
<totfact> 0.18315933E+04</totfact>
</mgrwt>
</event>
<event>
 4    1  0.6086918E-004  0.1716880E+03  0.7818608E-02  0.1176099E+00
         -2   -1    0    0    0  501 -0.00000000000E+00  0.00000000000E+00  0.50560666835E+01  0.50560673265E+01  0.25500000000E-02 0. -1.
          2   -1    0    0  501    0  0.00000000000E+00 -0.00000000000E+00 -0.14574953119E+04  0.14574953119E+04  0.25500000000E-02 0.  1.
    5000001    1    1    2    0    0 -0.26836977879E+02  0.26647794942E+02 -0.75297634733E+03  0.75784741736E+03  0.77000000000E+02 0.  0.
   -5000001    1    1    2    0    0  0.26836977879E+02 -0.26647794942E+02 -0.69946289785E+03  0.70470396184E+03  0.77000000000E+02 0.  0.
<mgrwt>
<rscale>  0 0.17168802E+03</rscale>
<asrwt>0</asrwt>
<pdfrwt beam="1">  1        2 0.22422971E+00 0.17168802E+03</pdfrwt>
<pdfrwt beam="2">  1       -2 0.77785762E-03 0.17168802E+03</pdfrwt>
<totfact> 0.42795185E+04</totfact>
</mgrwt>
</event>
<event>
 4    1  0.6086918E-004  0.2221558E+03  0.7818608E-02  0.1132286E+00
         -2   -1    0    0    0  501 -0.00000000000E+00  0.00000000000E+00  0.58680498720E+01  0.58680504261E+01  0.25500000000E-02 0. -1.
          2   -1    0    0  501    0  0.00000000000E+00 -0.00000000000E+00 -0.21026236544E+04  0.21026236544E+04  0.25500000000E-02 0.  1.
    5000001    1    1    2    0    0  0.58590914029E+02 -0.45061512944E+02 -0.75648122451E+03  0.76397400361E+03  0.77000000000E+02 0.  0.
   -5000001    1    1    2    0    0 -0.58590914029E+02  0.45061512944E+02 -0.13402743801E+04  0.13445177013E+04  0.77000000000E+02 0.  0.
<mgrwt>
<rscale>  0 0.22215581E+03</rscale>
<asrwt>0</asrwt>
<pdfrwt beam="1">  1        2 0.32347996E+00 0.22215581E+03</pdfrwt>
<pdfrwt beam="2">  1       -2 0.90277863E-03 0.22215581E+03</pdfrwt>
<totfact> 0.16128069E+04</totfact>
</mgrwt>
</event>
<event>
 4    1  0.6086918E-004  0.2067938E+03  0.7818608E-02  0.1144130E+00
         -2   -1    0    0    0  501 -0.00000000000E+00  0.00000000000E+00  0.47910108558E+02  0.47910108626E+02  0.25500000000E-02 0. -1.
          2   -1    0    0  501    0  0.00000000000E+00 -0.00000000000E+00 -0.22314537991E+03  0.22314537993E+03  0.25500000000E-02 0.  1.
    5000001    1    1    2    0    0  0.65064090193E+02  0.13414968648E+02 -0.11209125406E+03  0.15134974877E+03  0.77000000000E+02 0.  0.
   -5000001    1    1    2    0    0 -0.65064090193E+02 -0.13414968648E+02 -0.63144017294E+02  0.11970573978E+03  0.77000000000E+02 0.  0.
<mgrwt>
<rscale>  0 0.20679380E+03</rscale>
<asrwt>0</asrwt>
<pdfrwt beam="1">  1        2 0.34330058E-01 0.20679380E+03</pdfrwt>
<pdfrwt beam="2">  1       -2 0.73707861E-02 0.20679380E+03</pdfrwt>
<totfact> 0.15744714E+04</totfact>
</mgrwt>
</event>
<event>
 4    1  0.6086918E-004  0.3500725E+03  0.7818608E-02  0.1062585E+00
         -2   -1    0    0    0  501 -0.00000000000E+00  0.00000000000E+00  0.10304163413E+03  0.10304163416E+03  0.25500000000E-02 0. -1.
          2   -1    0    0  501    0  0.00000000000E+00 -0.00000000000E+00 -0.29733314368E+03  0.29733314369E+03  0.25500000000E-02 0.  1.
    5000001    1    1    2    0    0  0.11145764276E+02 -0.13486241368E+03 -0.56748259085E+01  0.15579891634E+03  0.77000000000E+02 0.  0.
   -5000001    1    1    2    0    0 -0.11145764276E+02  0.13486241368E+03 -0.18861668364E+03  0.24457586151E+03  0.77000000000E+02 0.  0.
<mgrwt>
<rscale>  0 0.35007252E+03</rscale>
<asrwt>0</asrwt>
<pdfrwt beam="1">  1        2 0.45743560E-01 0.35007252E+03</pdfrwt>
<pdfrwt beam="2">  1       -2 0.15852559E-01 0.35007252E+03</pdfrwt>
<totfact> 0.34578543E+03</totfact>
</mgrwt>
</event>
<event>
 4    1  0.6086918E-004  0.1886508E+03  0.7818608E-02  0.1159684E+00
          2   -1    0    0  501    0  0.00000000000E+00  0.00000000000E+00  0.52397209339E+03  0.52397209340E+03  0.25500000000E-02 0.  1.
         -2   -1    0    0    0  501 -0.00000000000E+00 -0.00000000000E+00 -0.16980447991E+02  0.16980448183E+02  0.25500000000E-02 0. -1.
    5000001    1    1    2    0    0 -0.13096541168E+02 -0.51064589788E+02  0.21405683610E+03  0.23351325616E+03  0.77000000000E+02 0.  0.
   -5000001    1    1    2    0    0  0.13096541168E+02  0.51064589788E+02  0.29293480930E+03  0.30743928542E+03  0.77000000000E+02 0.  0.
<mgrwt>
<rscale>  0 0.18865080E+03</rscale>
<asrwt>0</asrwt>
<pdfrwt beam="1">  1        2 0.80611074E-01 0.18865080E+03</pdfrwt>
<pdfrwt beam="2">  1       -2 0.26123772E-02 0.18865080E+03</pdfrwt>
<totfact> 0.29618999E+04</totfact>
</mgrwt>
</event>
<event>
 4    1  0.6086918E-004  0.1882596E+03  0.7818608E-02  0.1160040E+00
         -2   -1    0    0    0  501 -0.00000000000E+00  0.00000000000E+00  0.25713581924E+01  0.25713594568E+01  0.25500000000E-02 0. -1.
          2   -1    0    0  501    0  0.00000000000E+00 -0.00000000000E+00 -0.34458118571E+04  0.34458118571E+04  0.25500000000E-02 0.  1.
    5000001    1    1    2    0    0  0.20824521323E+02 -0.36284425660E+02 -0.23511552002E+04  0.23527877074E+04  0.77000000000E+02 0.  0.
   -5000001    1    1    2    0    0 -0.20824521323E+02  0.36284425660E+02 -0.10920852987E+04  0.10955955092E+04  0.77000000000E+02 0.  0.
<mgrwt>
<rscale>  0 0.18825959E+03</rscale>
<asrwt>0</asrwt>
<pdfrwt beam="1">  1        2 0.53012121E+00 0.18825959E+03</pdfrwt>
<pdfrwt beam="2">  1       -2 0.39559642E-03 0.18825959E+03</pdfrwt>
<totfact> 0.89774742E+03</totfact>
</mgrwt>
</event>
<event>
 4    1  0.6086918E-004  0.2562051E+03  0.7818608E-02  0.1109445E+00
          2   -1    0    0  501    0  0.00000000000E+00  0.00000000000E+00  0.54151445668E+02  0.54151445728E+02  0.25500000000E-02 0.  1.
         -2   -1    0    0    0  501 -0.00000000000E+00 -0.00000000000E+00 -0.30304374884E+03  0.30304374885E+03  0.25500000000E-02 0. -1.
    5000001    1    1    2    0    0  0.36719896769E+02 -0.94613980626E+02 -0.14320811568E+03  0.19167086515E+03  0.77000000000E+02 0.  0.
   -5000001    1    1    2    0    0 -0.36719896769E+02  0.94613980626E+02 -0.10568418749E+03  0.16552432943E+03  0.77000000000E+02 0.  0.
<mgrwt>
<rscale>  0 0.25620505E+03</rscale>
<asrwt>0</asrwt>
<pdfrwt beam="1">  1        2 0.83309918E-02 0.25620505E+03</pdfrwt>
<pdfrwt beam="2">  1       -2 0.46622115E-01 0.25620505E+03</pdfrwt>
<totfact> 0.35379888E+03</totfact>
</mgrwt>
</event>
<event>
 4    1  0.6086918E-004  0.3192757E+03  0.7818608E-02  0.1075983E+00
         -2   -1    0    0    0  501 -0.00000000000E+00  0.00000000000E+00  0.83382193910E+01  0.83382197809E+01  0.25500000000E-02 0. -1.
          2   -1    0    0  501    0  0.00000000000E+00 -0.00000000000E+00 -0.30563164865E+04  0.30563164865E+04  0.25500000000E-02 0.  1.
    5000001    1    1    2    0    0 -0.43311751993E+02 -0.81369674909E+02 -0.25333815379E+04  0.25362271090E+04  0.77000000000E+02 0.  0.
   -5000001    1    1    2    0    0  0.43311751993E+02  0.81369674909E+02 -0.51459672918E+03  0.52842759726E+03  0.77000000000E+02 0.  0.
<mgrwt>
<rscale>  0 0.31927567E+03</rscale>
<asrwt>0</asrwt>
<pdfrwt beam="1">  1        2 0.47020164E+00 0.31927567E+03</pdfrwt>
<pdfrwt beam="2">  1       -2 0.12828055E-02 0.31927567E+03</pdfrwt>
<totfact> 0.28478389E+03</totfact>
</mgrwt>
</event>
<event>
 4    1  0.6086918E-004  0.2091660E+03  0.7818608E-02  0.1142228E+00
         -2   -1    0    0    0  501 -0.00000000000E+00  0.00000000000E+00  0.58713589488E+01  0.58713595026E+01  0.25500000000E-02 0. -1.
          2   -1    0    0  501    0  0.00000000000E+00 -0.00000000000E+00 -0.18628736643E+04  0.18628736643E+04  0.25500000000E-02 0.  1.
    5000001    1    1    2    0    0 -0.46600356040E+01  0.66783102736E+02 -0.72342090169E+03  0.73058093306E+03  0.77000000000E+02 0.  0.
   -5000001    1    1    2    0    0  0.46600356040E+01 -0.66783102736E+02 -0.11335814037E+04  0.11381640908E+04  0.77000000000E+02 0.  0.
<mgrwt>
<rscale>  0 0.20916597E+03</rscale>
<asrwt>0</asrwt>
<pdfrwt beam="1">  1        2 0.28659548E+00 0.20916597E+03</pdfrwt>
<pdfrwt beam="2">  1       -2 0.90328752E-03 0.20916597E+03</pdfrwt>
<totfact> 0.21447439E+04</totfact>
</mgrwt>
</event>
<event>
 4    1  0.6086918E-004  0.2409293E+03  0.7818608E-02  0.1119175E+00
         -2   -1    0    0    0  501 -0.00000000000E+00  0.00000000000E+00  0.65043240331E+02  0.65043240381E+02  0.25500000000E-02 0. -1.
          2   -1    0    0  501    0  0.00000000000E+00 -0.00000000000E+00 -0.22310901072E+03  0.22310901074E+03  0.25500000000E-02 0.  1.
    5000001    1    1    2    0    0  0.32737486841E+02  0.74167287292E+02 -0.25409726851E+02  0.11466116940E+03  0.77000000000E+02 0.  0.
   -5000001    1    1    2    0    0 -0.32737486841E+02 -0.74167287292E+02 -0.13265604354E+03  0.17349108172E+03  0.77000000000E+02 0.  0.
<mgrwt>
<rscale>  0 0.24092931E+03</rscale>
<asrwt>0</asrwt>
<pdfrwt beam="1">  1        2 0.34324463E-01 0.24092931E+03</pdfrwt>
<pdfrwt beam="2">  1       -2 0.10006652E-01 0.24092931E+03</pdfrwt>
<totfact> 0.98459744E+03</totfact>
</mgrwt>
</event>
<event>
 4    1  0.6086918E-004  0.2339845E+03  0.7818608E-02  0.1123866E+00
         -2   -1    0    0    0  501 -0.00000000000E+00  0.00000000000E+00  0.12908644894E+02  0.12908645146E+02  0.25500000000E-02 0. -1.
          2   -1    0    0  501    0  0.00000000000E+00 -0.00000000000E+00 -0.10603114086E+04  0.10603114086E+04  0.25500000000E-02 0.  1.
    5000001    1    1    2    0    0  0.79489964652E+02  0.36159116516E+02 -0.47099458008E+03  0.48517113542E+03  0.77000000000E+02 0.  0.
   -5000001    1    1    2    0    0 -0.79489964652E+02 -0.36159116516E+02 -0.57640818358E+03  0.58804891828E+03  0.77000000000E+02 0.  0.
<mgrwt>
<rscale>  0 0.23398447E+03</rscale>
<asrwt>0</asrwt>
<pdfrwt beam="1">  1        2 0.16312476E+00 0.23398447E+03</pdfrwt>
<pdfrwt beam="2">  1       -2 0.19859462E-02 0.23398447E+03</pdfrwt>
<totfact> 0.18650062E+04</totfact>
</mgrwt>
</event>
<event>
 4    1  0.6086918E-004  0.1831182E+03  0.7818608E-02  0.1164819E+00
          2   -1    0    0  501    0  0.00000000000E+00  0.00000000000E+00  0.15542758316E+04  0.15542758316E+04  0.25500000000E-02 0.  1.
         -2   -1    0    0    0  501 -0.00000000000E+00 -0.00000000000E+00 -0.53935527529E+01  0.53935533557E+01  0.25500000000E-02 0. -1.
    5000001    1    1    2    0    0  0.24027751190E+02  0.39361249175E+02  0.62032106893E+03  0.62678055914E+03  0.77000000000E+02 0.  0.
   -5000001    1    1    2    0    0 -0.24027751190E+02 -0.39361249175E+02  0.92856120996E+03  0.93288882586E+03  0.77000000000E+02 0.  0.
<mgrwt>
<rscale>  0 0.18311820E+03</rscale>
<asrwt>0</asrwt>
<pdfrwt beam="1">  1        2 0.23911966E+00 0.18311820E+03</pdfrwt>
<pdfrwt beam="2">  1       -2 0.82977636E-03 0.18311820E+03</pdfrwt>
<totfact> 0.34841098E+04</totfact>
</mgrwt>
</event>
<event>
 4    1  0.6086918E-004  0.2014892E+03  0.7818608E-02  0.1148489E+00
          2   -1    0    0  501    0  0.00000000000E+00  0.00000000000E+00  0.19547934044E+04  0.19547934044E+04  0.25500000000E-02 0.  1.
         -2   -1    0    0    0  501 -0.00000000000E+00 -0.00000000000E+00 -0.51920937467E+01  0.51920943729E+01  0.25500000000E-02 0. -1.
    5000001    1    1    2    0    0 -0.14201098929E+02  0.63278068133E+02  0.10120788206E+04  0.10170734114E+04  0.77000000000E+02 0.  0.
   -5000001    1    1    2    0    0  0.14201098929E+02 -0.63278068133E+02  0.93752249011E+03  0.94291208741E+03  0.77000000000E+02 0.  0.
<mgrwt>
<rscale>  0 0.20148917E+03</rscale>
<asrwt>0</asrwt>
<pdfrwt beam="1">  1        2 0.30073752E+00 0.20148917E+03</pdfrwt>
<pdfrwt beam="2">  1       -2 0.79878350E-03 0.20148917E+03</pdfrwt>
<totfact> 0.22899698E+04</totfact>
</mgrwt>
</event>
<event>
 4    1  0.6086918E-004  0.2145215E+03  0.7818608E-02  0.1138035E+00
         -2   -1    0    0    0  501 -0.00000000000E+00  0.00000000000E+00  0.96960117598E+01  0.96960120951E+01  0.25500000000E-02 0. -1.
          2   -1    0    0  501    0  0.00000000000E+00 -0.00000000000E+00 -0.11865563078E+04  0.11865563078E+04  0.25500000000E-02 0.  1.
    5000001    1    1    2    0    0  0.71974759280E+02 -0.19529769923E+02 -0.60935919383E+03  0.61871593239E+03  0.77000000000E+02 0.  0.
   -5000001    1    1    2    0    0 -0.71974759280E+02  0.19529769923E+02 -0.56750110218E+03  0.57753638748E+03  0.77000000000E+02 0.  0.
<mgrwt>
<rscale>  0 0.21452146E+03</rscale>
<asrwt>0</asrwt>
<pdfrwt beam="1">  1        2 0.18254701E+00 0.21452146E+03</pdfrwt>
<pdfrwt beam="2">  1       -2 0.14916951E-02 0.21452146E+03</pdfrwt>
<totfact> 0.23833483E+04</totfact>
</mgrwt>
</event>
<event>
 4    1  0.6086918E-004  0.5183408E+03  0.7818608E-02  0.1009100E+00
          2   -1    0    0  501    0  0.00000000000E+00  0.00000000000E+00  0.12101690686E+04  0.12101690686E+04  0.25500000000E-02 0.  1.
         -2   -1    0    0    0  501 -0.00000000000E+00 -0.00000000000E+00 -0.55504059346E+02  0.55504059404E+02  0.25500000000E-02 0. -1.
    5000001    1    1    2    0    0 -0.14645904976E+03 -0.18620516547E+03  0.75201230393E+03  0.79219576000E+03  0.77000000000E+02 0.  0.
   -5000001    1    1    2    0    0  0.14645904976E+03  0.18620516547E+03  0.40265270531E+03  0.47347736799E+03  0.77000000000E+02 0.  0.
<mgrwt>
<rscale>  0 0.51834080E+03</rscale>
<asrwt>0</asrwt>
<pdfrwt beam="1">  1        2 0.18617984E+00 0.51834080E+03</pdfrwt>
<pdfrwt beam="2">  1       -2 0.85390868E-02 0.51834080E+03</pdfrwt>
<totfact> 0.16746630E+03</totfact>
</mgrwt>
</event>
<event>
 4    1  0.6086918E-004  0.1834734E+03  0.7818608E-02  0.1164483E+00
         -2   -1    0    0    0  501 -0.00000000000E+00  0.00000000000E+00  0.65056650857E+01  0.65056655855E+01  0.25500000000E-02 0. -1.
          2   -1    0    0  501    0  0.00000000000E+00 -0.00000000000E+00 -0.12935837497E+04  0.12935837497E+04  0.25500000000E-02 0.  1.
    5000001    1    1    2    0    0  0.38419130900E+02 -0.65293484417E+01 -0.86399864017E+03  0.86829793978E+03  0.77000000000E+02 0.  0.
   -5000001    1    1    2    0    0 -0.38419130900E+02  0.65293484417E+01 -0.42307944443E+03  0.43179147550E+03  0.77000000000E+02 0.  0.
<mgrwt>
<rscale>  0 0.18347341E+03</rscale>
<asrwt>0</asrwt>
<pdfrwt beam="1">  1        2 0.19901268E+00 0.18347341E+03</pdfrwt>
<pdfrwt beam="2">  1       -2 0.10008726E-02 0.18347341E+03</pdfrwt>
<totfact> 0.36667203E+04</totfact>
</mgrwt>
</event>
<event>
 4    1  0.6086918E-004  0.2490431E+03  0.7818608E-02  0.1113911E+00
          2   -1    0    0  501    0  0.00000000000E+00  0.00000000000E+00  0.12972939680E+04  0.12972939680E+04  0.25500000000E-02 0.  1.
         -2   -1    0    0    0  501 -0.00000000000E+00 -0.00000000000E+00 -0.11952273500E+02  0.11952273772E+02  0.25500000000E-02 0. -1.
    5000001    1    1    2    0    0 -0.54268359880E+02 -0.80221852435E+02  0.56906908531E+03  0.58236519843E+03  0.77000000000E+02 0.  0.
   -5000001    1    1    2    0    0  0.54268359880E+02  0.80221852435E+02  0.71627260919E+03  0.72688104334E+03  0.77000000000E+02 0.  0.
<mgrwt>
<rscale>  0 0.24904307E+03</rscale>
<asrwt>0</asrwt>
<pdfrwt beam="1">  1        2 0.19958378E+00 0.24904307E+03</pdfrwt>
<pdfrwt beam="2">  1       -2 0.18388105E-02 0.24904307E+03</pdfrwt>
<totfact> 0.15331818E+04</totfact>
</mgrwt>
</event>
<event>
 4    1  0.6086918E-004  0.4320761E+03  0.7818608E-02  0.1033206E+00
          2   -1    0    0  501    0  0.00000000000E+00  0.00000000000E+00  0.99862296091E+02  0.99862296124E+02  0.25500000000E-02 0.  1.
         -2   -1    0    0    0  501 -0.00000000000E+00 -0.00000000000E+00 -0.46736789850E+03  0.46736789850E+03  0.25500000000E-02 0. -1.
    5000001    1    1    2    0    0 -0.59691379295E+02  0.18845583174E+03 -0.23731720535E+03  0.31831920651E+03  0.77000000000E+02 0.  0.
   -5000001    1    1    2    0    0  0.59691379295E+02 -0.18845583174E+03 -0.13018839706E+03  0.24891098812E+03  0.77000000000E+02 0.  0.
<mgrwt>
<rscale>  0 0.43207606E+03</rscale>
<asrwt>0</asrwt>
<pdfrwt beam="1">  1        2 0.15363430E-01 0.43207606E+03</pdfrwt>
<pdfrwt beam="2">  1       -2 0.71902752E-01 0.43207606E+03</pdfrwt>
<totfact> 0.68616550E+02</totfact>
</mgrwt>
</event>
<event>
 4    1  0.6086918E-004  0.2216178E+03  0.7818608E-02  0.1132683E+00
          2   -1    0    0  501    0  0.00000000000E+00  0.00000000000E+00  0.31913647253E+03  0.31913647254E+03  0.25500000000E-02 0.  1.
         -2   -1    0    0    0  501 -0.00000000000E+00 -0.00000000000E+00 -0.38474476850E+02  0.38474476934E+02  0.25500000000E-02 0. -1.
    5000001    1    1    2    0    0  0.28344527581E+02 -0.65226543971E+02  0.19832540924E+03  0.22432093578E+03  0.77000000000E+02 0.  0.
   -5000001    1    1    2    0    0 -0.28344527581E+02  0.65226543971E+02  0.82336586440E+02  0.13329001369E+03  0.77000000000E+02 0.  0.
<mgrwt>
<rscale>  0 0.22161777E+03</rscale>
<asrwt>0</asrwt>
<pdfrwt beam="1">  1        2 0.49097919E-01 0.22161777E+03</pdfrwt>
<pdfrwt beam="2">  1       -2 0.59191503E-02 0.22161777E+03</pdfrwt>
<totfact> 0.15088923E+04</totfact>
</mgrwt>
</event>
<event>
 4    1  0.6086918E-004  0.2145317E+03  0.7818608E-02  0.1138027E+00
          2   -1    0    0  501    0  0.00000000000E+00  0.00000000000E+00  0.20530389306E+03  0.20530389307E+03  0.25500000000E-02 0.  1.
         -2   -1    0    0    0  501 -0.00000000000E+00 -0.00000000000E+00 -0.56043585697E+02  0.56043585755E+02  0.25500000000E-02 0. -1.
    5000001    1    1    2    0    0 -0.60423317736E+02  0.38424239586E+02  0.48800184065E+02  0.11592177310E+03  0.77000000000E+02 0.  0.
   -5000001    1    1    2    0    0  0.60423317736E+02 -0.38424239586E+02  0.10046012329E+03  0.14542570573E+03  0.77000000000E+02 0.  0.
<mgrwt>
<rscale>  0 0.21453174E+03</rscale>
<asrwt>0</asrwt>
<pdfrwt beam="1">  1        2 0.31585214E-01 0.21453174E+03</pdfrwt>
<pdfrwt beam="2">  1       -2 0.86220901E-02 0.21453174E+03</pdfrwt>
<totfact> 0.13536672E+04</totfact>
</mgrwt>
</event>
<event>
 4    1  0.6086918E-004  0.1944186E+03  0.7818608E-02  0.1154535E+00
          2   -1    0    0  501    0  0.00000000000E+00  0.00000000000E+00  0.11941032750E+04  0.11941032750E+04  0.25500000000E-02 0.  1.
         -2   -1    0    0    0  501 -0.00000000000E+00 -0.00000000000E+00 -0.79135961029E+01  0.79135965138E+01  0.25500000000E-02 0. -1.
    5000001    1    1    2    0    0 -0.33130329913E+02 -0.36489096817E+02  0.79736274163E+03  0.80258670229E+03  0.77000000000E+02 0.  0.
   -5000001    1    1    2    0    0  0.33130329913E+02  0.36489096817E+02  0.38882693725E+03  0.39943016922E+03  0.77000000000E+02 0.  0.
<mgrwt>
<rscale>  0 0.19441863E+03</rscale>
<asrwt>0</asrwt>
<pdfrwt beam="1">  1        2 0.18370811E+00 0.19441863E+03</pdfrwt>
<pdfrwt beam="2">  1       -2 0.12174770E-02 0.19441863E+03</pdfrwt>
<totfact> 0.31501909E+04</totfact>
</mgrwt>
</event>
<event>
 4    1  0.6086918E-004  0.3305426E+03  0.7818608E-02  0.1070897E+00
         -2   -1    0    0    0  501 -0.00000000000E+00  0.00000000000E+00  0.15463478178E+02  0.15463478388E+02  0.25500000000E-02 0. -1.
          2   -1    0    0  501    0  0.00000000000E+00 -0.00000000000E+00 -0.17663948885E+04  0.17663948885E+04  0.25500000000E-02 0.  1.
    5000001    1    1    2    0    0  0.59964413431E+02  0.11083761971E+03 -0.47550215453E+03  0.49790762977E+03  0.77000000000E+02 0.  0.
   -5000001    1    1    2    0    0 -0.59964413431E+02 -0.11083761971E+03 -0.12754292558E+04  0.12839507372E+04  0.77000000000E+02 0.  0.
<mgrwt>
<rscale>  0 0.33054264E+03</rscale>
<asrwt>0</asrwt>
<pdfrwt beam="1">  1        2 0.27175290E+00 0.33054264E+03</pdfrwt>
<pdfrwt beam="2">  1       -2 0.23789981E-02 0.33054264E+03</pdfrwt>
<totfact> 0.59029894E+03</totfact>
</mgrwt>
</event>
<event>
 4    1  0.6086918E-004  0.3989096E+03  0.7818608E-02  0.1044158E+00
         -2   -1    0    0    0  501 -0.00000000000E+00  0.00000000000E+00  0.26096549435E+03  0.26096549436E+03  0.25500000000E-02 0. -1.
          2   -1    0    0  501    0  0.00000000000E+00 -0.00000000000E+00 -0.15244244777E+03  0.15244244779E+03  0.25500000000E-02 0.  1.
    5000001    1    1    2    0    0 -0.13227213900E+03  0.12281626538E+03  0.17278891132E+02  0.19699572045E+03  0.77000000000E+02 0.  0.
   -5000001    1    1    2    0    0  0.13227213900E+03 -0.12281626538E+03  0.91244155451E+02  0.21641222170E+03  0.77000000000E+02 0.  0.
<mgrwt>
<rscale>  0 0.39890961E+03</rscale>
<asrwt>0</asrwt>
<pdfrwt beam="1">  1        2 0.23452685E-01 0.39890961E+03</pdfrwt>
<pdfrwt beam="2">  1       -2 0.40148537E-01 0.39890961E+03</pdfrwt>
<totfact> 0.13779161E+03</totfact>
</mgrwt>
</event>
<event>
 4    1  0.6086918E-004  0.3460423E+03  0.7818608E-02  0.1064251E+00
         -2   -1    0    0    0  501 -0.00000000000E+00  0.00000000000E+00  0.25055251510E+02  0.25055251639E+02  0.25500000000E-02 0. -1.
          2   -1    0    0  501    0  0.00000000000E+00 -0.00000000000E+00 -0.11948123086E+04  0.11948123086E+04  0.25500000000E-02 0.  1.
    5000001    1    1    2    0    0 -0.11486208605E+03  0.66675238300E+02 -0.86619805595E+03  0.87969708329E+03  0.77000000000E+02 0.  0.
   -5000001    1    1    2    0    0  0.11486208605E+03 -0.66675238300E+02 -0.30355900110E+03  0.34017047691E+03  0.77000000000E+02 0.  0.
<mgrwt>
<rscale>  0 0.34604233E+03</rscale>
<asrwt>0</asrwt>
<pdfrwt beam="1">  1        2 0.18381723E+00 0.34604233E+03</pdfrwt>
<pdfrwt beam="2">  1       -2 0.38546550E-02 0.34604233E+03</pdfrwt>
<totfact> 0.58695546E+03</totfact>
</mgrwt>
</event>
<event>
 4    1  0.6086918E-004  0.3022141E+03  0.7818608E-02  0.1084139E+00
          2   -1    0    0  501    0  0.00000000000E+00  0.00000000000E+00  0.14988825734E+04  0.14988825734E+04  0.25500000000E-02 0.  1.
         -2   -1    0    0    0  501 -0.00000000000E+00 -0.00000000000E+00 -0.15233575843E+02  0.15233576057E+02  0.25500000000E-02 0. -1.
    5000001    1    1    2    0    0 -0.12835905485E+03 -0.75650983863E+01  0.83833371361E+03  0.85162532433E+03  0.77000000000E+02 0.  0.
   -5000001    1    1    2    0    0  0.12835905485E+03  0.75650983863E+01  0.64531528394E+03  0.66249082512E+03  0.77000000000E+02 0.  0.
<mgrwt>
<rscale>  0 0.30221411E+03</rscale>
<asrwt>0</asrwt>
<pdfrwt beam="1">  1        2 0.23059743E+00 0.30221411E+03</pdfrwt>
<pdfrwt beam="2">  1       -2 0.23436259E-02 0.30221411E+03</pdfrwt>
<totfact> 0.83715733E+03</totfact>
</mgrwt>
</event>
<event>
 4    1  0.6086918E-004  0.2676569E+03  0.7818608E-02  0.1102628E+00
         -2   -1    0    0    0  501 -0.00000000000E+00  0.00000000000E+00  0.10296583993E+03  0.10296583996E+03  0.25500000000E-02 0. -1.
          2   -1    0    0  501    0  0.00000000000E+00 -0.00000000000E+00 -0.17394165913E+03  0.17394165915E+03  0.25500000000E-02 0.  1.
    5000001    1    1    2    0    0 -0.57305075603E+02 -0.88163228038E+02 -0.40327709177E+01  0.13039129461E+03  0.77000000000E+02 0.  0.
   -5000001    1    1    2    0    0  0.57305075603E+02  0.88163228038E+02 -0.66943048281E+02  0.14651620450E+03  0.77000000000E+02 0.  0.
<mgrwt>
<rscale>  0 0.26765686E+03</rscale>
<asrwt>0</asrwt>
<pdfrwt beam="1">  1        2 0.26760255E-01 0.26765686E+03</pdfrwt>
<pdfrwt beam="2">  1       -2 0.15840898E-01 0.26765686E+03</pdfrwt>
<totfact> 0.61690226E+03</totfact>
</mgrwt>
</event>
<event>
 4    1  0.6086918E-004  0.4661228E+03  0.7818608E-02  0.1023020E+00
          2   -1    0    0  501    0  0.00000000000E+00  0.00000000000E+00  0.33832333788E+03  0.33832333789E+03  0.25500000000E-02 0.  1.
         -2   -1    0    0    0  501 -0.00000000000E+00 -0.00000000000E+00 -0.16054944362E+03  0.16054944364E+03  0.25500000000E-02 0. -1.
    5000001    1    1    2    0    0  0.13088166687E+03 -0.13773154623E+03  0.20752970675E+03  0.29171487575E+03  0.77000000000E+02 0.  0.
   -5000001    1    1    2    0    0 -0.13088166687E+03  0.13773154623E+03 -0.29755812497E+02  0.20715790578E+03  0.77000000000E+02 0.  0.
<mgrwt>
<rscale>  0 0.46612283E+03</rscale>
<asrwt>0</asrwt>
<pdfrwt beam="1">  1        2 0.52049744E-01 0.46612283E+03</pdfrwt>
<pdfrwt beam="2">  1       -2 0.24699915E-01 0.46612283E+03</pdfrwt>
<totfact> 0.14022483E+03</totfact>
</mgrwt>
</event>
<event>
 4    1  0.6086918E-004  0.1886545E+03  0.7818608E-02  0.1159681E+00
         -2   -1    0    0    0  501 -0.00000000000E+00  0.00000000000E+00  0.16673395048E+02  0.16673395243E+02  0.25500000000E-02 0. -1.
          2   -1    0    0  501    0  0.00000000000E+00 -0.00000000000E+00 -0.53364220045E+03  0.53364220046E+03  0.25500000000E-02 0.  1.
    5000001    1    1    2    0    0  0.14243377151E+02 -0.52182820037E+02 -0.27754748511E+03  0.29306573834E+03  0.77000000000E+02 0.  0.
   -5000001    1    1    2    0    0 -0.14243377151E+02  0.52182820037E+02 -0.23942132029E+03  0.25724985736E+03  0.77000000000E+02 0.  0.
<mgrwt>
<rscale>  0 0.18865447E+03</rscale>
<asrwt>0</asrwt>
<pdfrwt beam="1">  1        2 0.82098787E-01 0.18865447E+03</pdfrwt>
<pdfrwt beam="2">  1       -2 0.25651381E-02 0.18865447E+03</pdfrwt>
<totfact> 0.29808626E+04</totfact>
</mgrwt>
</event>
<event>
 4    1  0.6086918E-004  0.1772374E+03  0.7818608E-02  0.1170504E+00
          2   -1    0    0  501    0  0.00000000000E+00  0.00000000000E+00  0.43768146943E+03  0.43768146944E+03  0.25500000000E-02 0.  1.
         -2   -1    0    0    0  501 -0.00000000000E+00 -0.00000000000E+00 -0.17942904754E+02  0.17942904935E+02  0.25500000000E-02 0. -1.
    5000001    1    1    2    0    0 -0.21704018622E+02 -0.34600289259E+02  0.25100310416E+03  0.26570623391E+03  0.77000000000E+02 0.  0.
   -5000001    1    1    2    0    0  0.21704018622E+02  0.34600289259E+02  0.16873546052E+03  0.18991814046E+03  0.77000000000E+02 0.  0.
<mgrwt>
<rscale>  0 0.17723743E+03</rscale>
<asrwt>0</asrwt>
<pdfrwt beam="1">  1        2 0.67335608E-01 0.17723743E+03</pdfrwt>
<pdfrwt beam="2">  1       -2 0.27604470E-02 0.17723743E+03</pdfrwt>
<totfact> 0.33115777E+04</totfact>
</mgrwt>
</event>
<event>
 4    1  0.6086918E-004  0.1731391E+03  0.7818608E-02  0.1174613E+00
         -2   -1    0    0    0  501 -0.00000000000E+00  0.00000000000E+00  0.32052759313E+03  0.32052759314E+03  0.25500000000E-02 0. -1.
          2   -1    0    0  501    0  0.00000000000E+00 -0.00000000000E+00 -0.23381095806E+02  0.23381095945E+02  0.25500000000E-02 0.  1.
    5000001    1    1    2    0    0 -0.28046640126E+02  0.19564289808E+02  0.10905053493E+03  0.13780564077E+03  0.77000000000E+02 0.  0.
   -5000001    1    1    2    0    0  0.28046640126E+02 -0.19564289808E+02  0.18809596239E+03  0.20610304831E+03  0.77000000000E+02 0.  0.
<mgrwt>
<rscale>  0 0.17313909E+03</rscale>
<asrwt>0</asrwt>
<pdfrwt beam="1">  1        2 0.35970919E-02 0.17313909E+03</pdfrwt>
<pdfrwt beam="2">  1       -2 0.49311934E-01 0.17313909E+03</pdfrwt>
<totfact> 0.92688562E+03</totfact>
</mgrwt>
</event>
<event>
 4    1  0.6086918E-004  0.4881684E+03  0.7818608E-02  0.1016914E+00
         -2   -1    0    0    0  501 -0.00000000000E+00  0.00000000000E+00  0.38566967580E+02  0.38566967664E+02  0.25500000000E-02 0. -1.
          2   -1    0    0  501    0  0.00000000000E+00 -0.00000000000E+00 -0.15447698390E+04  0.15447698390E+04  0.25500000000E-02 0.  1.
    5000001    1    1    2    0    0  0.19849498463E+03 -0.39147025006E+02 -0.11188373940E+04  0.11395871457E+04  0.77000000000E+02 0.  0.
   -5000001    1    1    2    0    0 -0.19849498463E+03  0.39147025006E+02 -0.38736547743E+03  0.44374966095E+03  0.77000000000E+02 0.  0.
<mgrwt>
<rscale>  0 0.48816837E+03</rscale>
<asrwt>0</asrwt>
<pdfrwt beam="1">  1        2 0.23765685E+00 0.48816837E+03</pdfrwt>
<pdfrwt beam="2">  1       -2 0.59333808E-02 0.48816837E+03</pdfrwt>
<totfact> 0.19315684E+03</totfact>
</mgrwt>
</event>
<event>
 4    1  0.6086918E-004  0.3258822E+03  0.7818608E-02  0.1072974E+00
          2   -1    0    0  501    0  0.00000000000E+00  0.00000000000E+00  0.17744949447E+04  0.17744949447E+04  0.25500000000E-02 0.  1.
         -2   -1    0    0    0  501 -0.00000000000E+00 -0.00000000000E+00 -0.14961889922E+02  0.14961890140E+02  0.25500000000E-02 0. -1.
    5000001    1    1    2    0    0 -0.87810005963E+02  0.90284722858E+02  0.12585687640E+04  0.12671962208E+04  0.77000000000E+02 0.  0.
   -5000001    1    1    2    0    0  0.87810005963E+02 -0.90284722858E+02  0.50096429075E+03  0.52226061400E+03  0.77000000000E+02 0.  0.
<mgrwt>
<rscale>  0 0.32588218E+03</rscale>
<asrwt>0</asrwt>
<pdfrwt beam="1">  1        2 0.27299932E+00 0.32588218E+03</pdfrwt>
<pdfrwt beam="2">  1       -2 0.23018284E-02 0.32588218E+03</pdfrwt>
<totfact> 0.61382160E+03</totfact>
</mgrwt>
</event>
<event>
 4    1  0.6086918E-004  0.1838008E+03  0.7818608E-02  0.1164174E+00
         -2   -1    0    0    0  501 -0.00000000000E+00  0.00000000000E+00  0.38371281798E+02  0.38371281883E+02  0.25500000000E-02 0. -1.
          2   -1    0    0  501    0  0.00000000000E+00 -0.00000000000E+00 -0.22010437889E+03  0.22010437890E+03  0.25500000000E-02 0.  1.
    5000001    1    1    2    0    0  0.38039857539E+02 -0.17254055712E+02 -0.12993874834E+03  0.15670932174E+03  0.77000000000E+02 0.  0.
   -5000001    1    1    2    0    0 -0.38039857539E+02  0.17254055712E+02 -0.51794348748E+02  0.10176633904E+03  0.77000000000E+02 0.  0.
<mgrwt>
<rscale>  0 0.18380084E+03</rscale>
<asrwt>0</asrwt>
<pdfrwt beam="1">  1        2 0.33862211E-01 0.18380084E+03</pdfrwt>
<pdfrwt beam="2">  1       -2 0.59032743E-02 0.18380084E+03</pdfrwt>
<totfact> 0.22269857E+04</totfact>
</mgrwt>
</event>
<event>
 4    1  0.6086918E-004  0.1821003E+03  0.7818608E-02  0.1165786E+00
         -2   -1    0    0    0  501 -0.00000000000E+00  0.00000000000E+00  0.31097509142E+02  0.31097509247E+02  0.25500000000E-02 0. -1.
          2   -1    0    0  501    0  0.00000000000E+00 -0.00000000000E+00 -0.26658487662E+03  0.26658487663E+03  0.25500000000E-02 0.  1.
    5000001    1    1    2    0    0  0.46189210006E+02  0.57174250720E+01 -0.94916478298E+02  0.13078329375E+03  0.77000000000E+02 0.  0.
   -5000001    1    1    2    0    0 -0.46189210006E+02 -0.57174250720E+01 -0.14057088918E+03  0.16689909213E+03  0.77000000000E+02 0.  0.
<mgrwt>
<rscale>  0 0.18210025E+03</rscale>
<asrwt>0</asrwt>
<pdfrwt beam="1">  1        2 0.41013056E-01 0.18210025E+03</pdfrwt>
<pdfrwt beam="2">  1       -2 0.47842324E-02 0.18210025E+03</pdfrwt>
<totfact> 0.24901533E+04</totfact>
</mgrwt>
</event>
<event>
 4    1  0.6086918E-004  0.2479002E+03  0.7818608E-02  0.1114639E+00
         -2   -1    0    0    0  501 -0.00000000000E+00  0.00000000000E+00  0.68898760013E+01  0.68898764732E+01  0.25500000000E-02 0. -1.
          2   -1    0    0  501    0  0.00000000000E+00 -0.00000000000E+00 -0.22298837373E+04  0.22298837373E+04  0.25500000000E-02 0.  1.
    5000001    1    1    2    0    0  0.78358781196E+02  0.46830746945E+02 -0.81205070705E+03  0.82078533629E+03  0.77000000000E+02 0.  0.
   -5000001    1    1    2    0    0 -0.78358781196E+02 -0.46830746945E+02 -0.14109431543E+04  0.14159882775E+04  0.77000000000E+02 0.  0.
<mgrwt>
<rscale>  0 0.24790017E+03</rscale>
<asrwt>0</asrwt>
<pdfrwt beam="1">  1        2 0.34305846E+00 0.24790017E+03</pdfrwt>
<pdfrwt beam="2">  1       -2 0.10599827E-02 0.24790017E+03</pdfrwt>
<totfact> 0.10977628E+04</totfact>
</mgrwt>
</event>
<event>
 4    1  0.6086918E-004  0.2437999E+03  0.7818608E-02  0.1117287E+00
         -2   -1    0    0    0  501 -0.00000000000E+00  0.00000000000E+00  0.37987773304E+02  0.37987773390E+02  0.25500000000E-02 0. -1.
          2   -1    0    0  501    0  0.00000000000E+00 -0.00000000000E+00 -0.39116780293E+03  0.39116780294E+03  0.25500000000E-02 0.  1.
    5000001    1    1    2    0    0  0.80838429790E+02 -0.42018777558E+01 -0.26243108106E+03  0.28522198340E+03  0.77000000000E+02 0.  0.
   -5000001    1    1    2    0    0 -0.80838429790E+02  0.42018777558E+01 -0.90748948563E+02  0.14393359293E+03  0.77000000000E+02 0.  0.
<mgrwt>
<rscale>  0 0.24379987E+03</rscale>
<asrwt>0</asrwt>
<pdfrwt beam="1">  1        2 0.60179659E-01 0.24379987E+03</pdfrwt>
<pdfrwt beam="2">  1       -2 0.58442731E-02 0.24379987E+03</pdfrwt>
<totfact> 0.12425481E+04</totfact>
</mgrwt>
</event>
<event>
 4    1  0.6086918E-004  0.2773442E+03  0.7818608E-02  0.1097148E+00
          2   -1    0    0  501    0  0.00000000000E+00  0.00000000000E+00  0.10837349913E+03  0.10837349916E+03  0.25500000000E-02 0.  1.
         -2   -1    0    0    0  501 -0.00000000000E+00 -0.00000000000E+00 -0.17744146206E+03  0.17744146208E+03  0.25500000000E-02 0. -1.
    5000001    1    1    2    0    0 -0.60636269093E+02  0.95807225574E+02 -0.12790500699E+02  0.13765310934E+03  0.77000000000E+02 0.  0.
   -5000001    1    1    2    0    0  0.60636269093E+02 -0.95807225574E+02 -0.56277462233E+02  0.14816185190E+03  0.77000000000E+02 0.  0.
<mgrwt>
<rscale>  0 0.27734421E+03</rscale>
<asrwt>0</asrwt>
<pdfrwt beam="1">  1        2 0.16672846E-01 0.27734421E+03</pdfrwt>
<pdfrwt beam="2">  1       -2 0.27298686E-01 0.27734421E+03</pdfrwt>
<totfact> 0.41492164E+03</totfact>
</mgrwt>
</event>
<event>
 4    1  0.6086918E-004  0.2759954E+03  0.7818608E-02  0.1097896E+00
          2   -1    0    0  501    0  0.00000000000E+00  0.00000000000E+00  0.24179830011E+03  0.24179830012E+03  0.25500000000E-02 0.  1.
         -2   -1    0    0    0  501 -0.00000000000E+00 -0.00000000000E+00 -0.78757238448E+02  0.78757238489E+02  0.25500000000E-02 0. -1.
    5000001    1    1    2    0    0  0.10498353832E+03  0.36037195429E+02  0.11425090363E+03  0.17692510210E+03  0.77000000000E+02 0.  0.
   -5000001    1    1    2    0    0 -0.10498353832E+03 -0.36037195429E+02  0.48790158031E+02  0.14363043651E+03  0.77000000000E+02 0.  0.
<mgrwt>
<rscale>  0 0.27599541E+03</rscale>
<asrwt>0</asrwt>
<pdfrwt beam="1">  1        2 0.37199739E-01 0.27599541E+03</pdfrwt>
<pdfrwt beam="2">  1       -2 0.12116498E-01 0.27599541E+03</pdfrwt>
<totfact> 0.66824885E+03</totfact>
</mgrwt>
</event>
<event>
 4    1  0.6086918E-004  0.3295317E+03  0.7818608E-02  0.1071344E+00
          2   -1    0    0  501    0  0.00000000000E+00  0.00000000000E+00  0.22943394868E+04  0.22943394868E+04  0.25500000000E-02 0.  1.
         -2   -1    0    0    0  501 -0.00000000000E+00 -0.00000000000E+00 -0.11832503192E+02  0.11832503467E+02  0.25500000000E-02 0. -1.
    5000001    1    1    2    0    0  0.63132610202E+02 -0.12917460826E+03  0.97758021635E+03  0.99109226880E+03  0.77000000000E+02 0.  0.
   -5000001    1    1    2    0    0 -0.63132610202E+02  0.12917460826E+03  0.13049267673E+04  0.13150797215E+04  0.77000000000E+02 0.  0.
<mgrwt>
<rscale>  0 0.32953167E+03</rscale>
<asrwt>0</asrwt>
<pdfrwt beam="1">  1        2 0.35297556E+00 0.32953167E+03</pdfrwt>
<pdfrwt beam="2">  1       -2 0.18203838E-02 0.32953167E+03</pdfrwt>
<totfact> 0.45969599E+03</totfact>
</mgrwt>
</event>
<event>
 4    1  0.6086918E-004  0.2017110E+03  0.7818608E-02  0.1148303E+00
          2   -1    0    0  501    0  0.00000000000E+00  0.00000000000E+00  0.95837323361E+03  0.95837323361E+03  0.25500000000E-02 0.  1.
         -2   -1    0    0    0  501 -0.00000000000E+00 -0.00000000000E+00 -0.10613641888E+02  0.10613642195E+02  0.25500000000E-02 0. -1.
    5000001    1    1    2    0    0 -0.11495936707E+02 -0.52568249023E+02  0.29755518431E+03  0.31203151296E+03  0.77000000000E+02 0.  0.
   -5000001    1    1    2    0    0  0.11495936707E+02  0.52568249023E+02  0.65020440741E+03  0.65695536285E+03  0.77000000000E+02 0.  0.
<mgrwt>
<rscale>  0 0.20171099E+03</rscale>
<asrwt>0</asrwt>
<pdfrwt beam="1">  1        2 0.14744207E+00 0.20171099E+03</pdfrwt>
<pdfrwt beam="2">  1       -2 0.16328676E-02 0.20171099E+03</pdfrwt>
<totfact> 0.28376277E+04</totfact>
</mgrwt>
</event>
<event>
 4    1  0.6086918E-004  0.1758535E+03  0.7818608E-02  0.1171877E+00
         -2   -1    0    0    0  501 -0.00000000000E+00  0.00000000000E+00  0.56476995246E+02  0.56476995304E+02  0.25500000000E-02 0. -1.
          2   -1    0    0  501    0  0.00000000000E+00 -0.00000000000E+00 -0.13688962648E+03  0.13688962651E+03  0.25500000000E-02 0.  1.
    5000001    1    1    2    0    0 -0.28218789964E+02  0.30178993878E+02 -0.29486420104E+02  0.92225380179E+02  0.77000000000E+02 0.  0.
   -5000001    1    1    2    0    0  0.28218789964E+02 -0.30178993878E+02 -0.50926211134E+02  0.10114124163E+03  0.77000000000E+02 0.  0.
<mgrwt>
<rscale>  0 0.17585352E+03</rscale>
<asrwt>0</asrwt>
<pdfrwt beam="1">  1        2 0.21059942E-01 0.17585352E+03</pdfrwt>
<pdfrwt beam="2">  1       -2 0.86887685E-02 0.17585352E+03</pdfrwt>
<totfact> 0.20647295E+04</totfact>
</mgrwt>
</event>
<event>
 4    1  0.6086918E-004  0.2456229E+03  0.7818608E-02  0.1116103E+00
         -2   -1    0    0    0  501 -0.00000000000E+00  0.00000000000E+00  0.18353874172E+02  0.18353874349E+02  0.25500000000E-02 0. -1.
          2   -1    0    0  501    0  0.00000000000E+00 -0.00000000000E+00 -0.82176922872E+03  0.82176922872E+03  0.25500000000E-02 0.  1.
    5000001    1    1    2    0    0 -0.84713221064E+02 -0.32114636409E+02 -0.29650842246E+03  0.31945879904E+03  0.77000000000E+02 0.  0.
   -5000001    1    1    2    0    0  0.84713221064E+02  0.32114636409E+02 -0.50690693208E+03  0.52066430403E+03  0.77000000000E+02 0.  0.
<mgrwt>
<rscale>  0 0.24562287E+03</rscale>
<asrwt>0</asrwt>
<pdfrwt beam="1">  1        2 0.12642601E+00 0.24562287E+03</pdfrwt>
<pdfrwt beam="2">  1       -2 0.28236736E-02 0.24562287E+03</pdfrwt>
<totfact> 0.15732958E+04</totfact>
</mgrwt>
</event>
<event>
 4    1  0.6086918E-004  0.2024495E+03  0.7818608E-02  0.1147689E+00
         -2   -1    0    0    0  501 -0.00000000000E+00  0.00000000000E+00  0.70522479784E+01  0.70522484394E+01  0.25500000000E-02 0. -1.
          2   -1    0    0  501    0  0.00000000000E+00 -0.00000000000E+00 -0.14529336595E+04  0.14529336595E+04  0.25500000000E-02 0.  1.
    5000001    1    1    2    0    0 -0.32837955728E+02  0.31416326815E+02 -0.38070218536E+03  0.39106069972E+03  0.77000000000E+02 0.  0.
   -5000001    1    1    2    0    0  0.32837955728E+02 -0.31416326815E+02 -0.10651792261E+04  0.10689252082E+04  0.77000000000E+02 0.  0.
<mgrwt>
<rscale>  0 0.20244949E+03</rscale>
<asrwt>0</asrwt>
<pdfrwt beam="1">  1        2 0.22352802E+00 0.20244949E+03</pdfrwt>
<pdfrwt beam="2">  1       -2 0.10849624E-02 0.20244949E+03</pdfrwt>
<totfact> 0.26945672E+04</totfact>
</mgrwt>
</event>
<event>
 4    1  0.6086918E-004  0.4380875E+03  0.7818608E-02  0.1031335E+00
         -2   -1    0    0    0  501 -0.00000000000E+00  0.00000000000E+00  0.26122124697E+02  0.26122124821E+02  0.25500000000E-02 0. -1.
          2   -1    0    0  501    0  0.00000000000E+00 -0.00000000000E+00 -0.18367635268E+04  0.18367635268E+04  0.25500000000E-02 0.  1.
    5000001    1    1    2    0    0 -0.81622672373E+02 -0.16444224027E+03 -0.51680589505E+03  0.55382383859E+03  0.77000000000E+02 0.  0.
   -5000001    1    1    2    0    0  0.81622672373E+02  0.16444224027E+03 -0.12938355071E+04  0.13090618131E+04  0.77000000000E+02 0.  0.
<mgrwt>
<rscale>  0 0.43808751E+03</rscale>
<asrwt>0</asrwt>
<pdfrwt beam="1">  1        2 0.28257890E+00 0.43808751E+03</pdfrwt>
<pdfrwt beam="2">  1       -2 0.40187899E-02 0.43808751E+03</pdfrwt>
<totfact> 0.24551695E+03</totfact>
</mgrwt>
</event>
<event>
 4    1  0.6086918E-004  0.2459051E+03  0.7818608E-02  0.1115920E+00
         -2   -1    0    0    0  501 -0.00000000000E+00  0.00000000000E+00  0.15825633558E+02  0.15825633763E+02  0.25500000000E-02 0. -1.
          2   -1    0    0  501    0  0.00000000000E+00 -0.00000000000E+00 -0.95524309822E+03  0.95524309822E+03  0.25500000000E-02 0.  1.
    5000001    1    1    2    0    0 -0.85984638756E+02 -0.17205705220E+01 -0.63687650013E+03  0.64725342400E+03  0.77000000000E+02 0.  0.
   -5000001    1    1    2    0    0  0.85984638756E+02  0.17205705220E+01 -0.30254096453E+03  0.32381530798E+03  0.77000000000E+02 0.  0.
<mgrwt>
<rscale>  0 0.24590508E+03</rscale>
<asrwt>0</asrwt>
<pdfrwt beam="1">  1        2 0.14696043E+00 0.24590508E+03</pdfrwt>
<pdfrwt beam="2">  1       -2 0.24347136E-02 0.24590508E+03</pdfrwt>
<totfact> 0.16046522E+04</totfact>
</mgrwt>
</event>
<event>
 4    1  0.6086918E-004  0.2669217E+03  0.7818608E-02  0.1103054E+00
         -2   -1    0    0    0  501 -0.00000000000E+00  0.00000000000E+00  0.53371826055E+02  0.53371826116E+02  0.25500000000E-02 0. -1.
          2   -1    0    0  501    0  0.00000000000E+00 -0.00000000000E+00 -0.33373047283E+03  0.33373047284E+03  0.25500000000E-02 0.  1.
    5000001    1    1    2    0    0 -0.24606506559E+02 -0.10549055921E+03 -0.15788578717E+03  0.20637504704E+03  0.77000000000E+02 0.  0.
   -5000001    1    1    2    0    0  0.24606506559E+02  0.10549055921E+03 -0.12247285960E+03  0.18072725192E+03  0.77000000000E+02 0.  0.
<mgrwt>
<rscale>  0 0.26692175E+03</rscale>
<asrwt>0</asrwt>
<pdfrwt beam="1">  1        2 0.51343149E-01 0.26692175E+03</pdfrwt>
<pdfrwt beam="2">  1       -2 0.82110503E-02 0.26692175E+03</pdfrwt>
<totfact> 0.87544663E+03</totfact>
</mgrwt>
</event>
<event>
 4    1  0.6086918E-004  0.7222718E+03  0.7818608E-02  0.9679885E-01
          2   -1    0    0  501    0  0.00000000000E+00  0.00000000000E+00  0.30845597370E+03  0.30845597371E+03  0.25500000000E-02 0.  1.
         -2   -1    0    0    0  501 -0.00000000000E+00 -0.00000000000E+00 -0.42281277634E+03  0.42281277635E+03  0.25500000000E-02 0. -1.
    5000001    1    1    2    0    0 -0.34663203159E+03 -0.10204437402E+02 -0.12304436417E+03  0.37593458397E+03  0.77000000000E+02 0.  0.
   -5000001    1    1    2    0    0  0.34663203159E+03  0.10204437402E+02  0.86875615225E+01  0.35533416609E+03  0.77000000000E+02 0.  0.
<mgrwt>
<rscale>  0 0.72227177E+03</rscale>
<asrwt>0</asrwt>
<pdfrwt beam="1">  1        2 0.47454765E-01 0.72227177E+03</pdfrwt>
<pdfrwt beam="2">  1       -2 0.65048119E-01 0.72227177E+03</pdfrwt>
<totfact> 0.23420919E+02</totfact>
</mgrwt>
</event>
<event>
 4    1  0.6086918E-004  0.2176494E+03  0.7818608E-02  0.1135648E+00
          2   -1    0    0  501    0  0.00000000000E+00  0.00000000000E+00  0.46786077038E+03  0.46786077039E+03  0.25500000000E-02 0.  1.
         -2   -1    0    0    0  501 -0.00000000000E+00 -0.00000000000E+00 -0.25312693725E+02  0.25312693854E+02  0.25500000000E-02 0. -1.
    5000001    1    1    2    0    0 -0.18760773098E+02  0.66712710711E+02  0.14573858542E+03  0.17880516675E+03  0.77000000000E+02 0.  0.
   -5000001    1    1    2    0    0  0.18760773098E+02 -0.66712710711E+02  0.29680949124E+03  0.31436829749E+03  0.77000000000E+02 0.  0.
<mgrwt>
<rscale>  0 0.21764941E+03</rscale>
<asrwt>0</asrwt>
<pdfrwt beam="1">  1        2 0.71978576E-01 0.21764941E+03</pdfrwt>
<pdfrwt beam="2">  1       -2 0.38942608E-02 0.21764941E+03</pdfrwt>
<totfact> 0.18762394E+04</totfact>
</mgrwt>
</event>
<event>
 4    1  0.6086918E-004  0.2452678E+03  0.7818608E-02  0.1116333E+00
          2   -1    0    0  501    0  0.00000000000E+00  0.00000000000E+00  0.20059063140E+04  0.20059063140E+04  0.25500000000E-02 0.  1.
         -2   -1    0    0    0  501 -0.00000000000E+00 -0.00000000000E+00 -0.74973936836E+01  0.74973941173E+01  0.25500000000E-02 0. -1.
    5000001    1    1    2    0    0 -0.77646706889E+02  0.54715843725E+02  0.92253258826E+03  0.93060099455E+03  0.77000000000E+02 0.  0.
   -5000001    1    1    2    0    0  0.77646706889E+02 -0.54715843725E+02  0.10758763321E+04  0.10828027136E+04  0.77000000000E+02 0.  0.
<mgrwt>
<rscale>  0 0.24526777E+03</rscale>
<asrwt>0</asrwt>
<pdfrwt beam="1">  1        2 0.30860141E+00 0.24526777E+03</pdfrwt>
<pdfrwt beam="2">  1       -2 0.11534436E-02 0.24526777E+03</pdfrwt>
<totfact> 0.12742188E+04</totfact>
</mgrwt>
</event>
<event>
 4    1  0.6086918E-004  0.2920729E+03  0.7818608E-02  0.1089272E+00
          2   -1    0    0  501    0  0.00000000000E+00  0.00000000000E+00  0.15477391318E+04  0.15477391318E+04  0.25500000000E-02 0.  1.
         -2   -1    0    0    0  501 -0.00000000000E+00 -0.00000000000E+00 -0.13779224800E+02  0.13779225036E+02  0.25500000000E-02 0. -1.
    5000001    1    1    2    0    0  0.48344734936E+02  0.11400232912E+03  0.72424234202E+03  0.73877582148E+03  0.77000000000E+02 0.  0.
   -5000001    1    1    2    0    0 -0.48344734936E+02 -0.11400232912E+03  0.80971756501E+03  0.82274253538E+03  0.77000000000E+02 0.  0.
<mgrwt>
<rscale>  0 0.29207291E+03</rscale>
<asrwt>0</asrwt>
<pdfrwt beam="1">  1        2 0.23811353E+00 0.29207291E+03</pdfrwt>
<pdfrwt beam="2">  1       -2 0.21198824E-02 0.29207291E+03</pdfrwt>
<totfact> 0.91382907E+03</totfact>
</mgrwt>
</event>
<event>
 4    1  0.6086918E-004  0.2562499E+03  0.7818608E-02  0.1109418E+00
         -2   -1    0    0    0  501 -0.00000000000E+00  0.00000000000E+00  0.17869014348E+02  0.17869014530E+02  0.25500000000E-02 0. -1.
          2   -1    0    0  501    0  0.00000000000E+00 -0.00000000000E+00 -0.91868554543E+03  0.91868554544E+03  0.25500000000E-02 0.  1.
    5000001    1    1    2    0    0  0.45724038408E+02  0.70607497687E+02 -0.66386200453E+03  0.67358582784E+03  0.77000000000E+02 0.  0.
   -5000001    1    1    2    0    0 -0.45724038408E+02 -0.70607497687E+02 -0.23695452656E+03  0.26296873212E+03  0.77000000000E+02 0.  0.
<mgrwt>
<rscale>  0 0.25624992E+03</rscale>
<asrwt>0</asrwt>
<pdfrwt beam="1">  1        2 0.14133620E+00 0.25624992E+03</pdfrwt>
<pdfrwt beam="2">  1       -2 0.27490799E-02 0.25624992E+03</pdfrwt>
<totfact> 0.14164225E+04</totfact>
</mgrwt>
</event>
<event>
 4    1  0.6086918E-004  0.3256662E+03  0.7818608E-02  0.1073071E+00
          2   -1    0    0  501    0  0.00000000000E+00  0.00000000000E+00  0.23737543044E+04  0.23737543044E+04  0.25500000000E-02 0.  1.
         -2   -1    0    0    0  501 -0.00000000000E+00 -0.00000000000E+00 -0.11169909365E+02  0.11169909656E+02  0.25500000000E-02 0. -1.
    5000001    1    1    2    0    0  0.53356534894E+02  0.13122057158E+03  0.13482651584E+04  0.13578710158E+04  0.77000000000E+02 0.  0.
   -5000001    1    1    2    0    0 -0.53356534894E+02 -0.13122057158E+03  0.10143192367E+04  0.10270531983E+04  0.77000000000E+02 0.  0.
<mgrwt>
<rscale>  0 0.32566621E+03</rscale>
<asrwt>0</asrwt>
<pdfrwt beam="1">  1        2 0.36519246E+00 0.32566621E+03</pdfrwt>
<pdfrwt beam="2">  1       -2 0.17184500E-02 0.32566621E+03</pdfrwt>
<totfact> 0.45335982E+03</totfact>
</mgrwt>
</event>
<event>
 4    1  0.6086918E-004  0.2096790E+03  0.7818608E-02  0.1141820E+00
         -2   -1    0    0    0  501 -0.00000000000E+00  0.00000000000E+00  0.21151780933E+03  0.21151780935E+03  0.25500000000E-02 0. -1.
          2   -1    0    0  501    0  0.00000000000E+00 -0.00000000000E+00 -0.51964041906E+02  0.51964041969E+02  0.25500000000E-02 0.  1.
    5000001    1    1    2    0    0  0.61450769610E+02  0.32117366852E+02  0.59726473865E+02  0.11959922249E+03  0.77000000000E+02 0.  0.
   -5000001    1    1    2    0    0 -0.61450769610E+02 -0.32117366852E+02  0.99827293559E+02  0.14388262883E+03  0.77000000000E+02 0.  0.
<mgrwt>
<rscale>  0 0.20967900E+03</rscale>
<asrwt>0</asrwt>
<pdfrwt beam="1">  1        2 0.79944680E-02 0.20967900E+03</pdfrwt>
<pdfrwt beam="2">  1       -2 0.32541202E-01 0.20967900E+03</pdfrwt>
<totfact> 0.73043949E+03</totfact>
</mgrwt>
</event>
<event>
 4    1  0.6086918E-004  0.2023686E+03  0.7818608E-02  0.1147756E+00
         -2   -1    0    0    0  501 -0.00000000000E+00  0.00000000000E+00  0.41878771767E+02  0.41878771845E+02  0.25500000000E-02 0. -1.
          2   -1    0    0  501    0  0.00000000000E+00 -0.00000000000E+00 -0.24447386209E+03  0.24447386210E+03  0.25500000000E-02 0.  1.
    5000001    1    1    2    0    0 -0.61366363226E+02  0.23062871259E+02 -0.10610409068E+03  0.14657695803E+03  0.77000000000E+02 0.  0.
   -5000001    1    1    2    0    0  0.61366363226E+02 -0.23062871259E+02 -0.96490999640E+02  0.13977567592E+03  0.77000000000E+02 0.  0.
<mgrwt>
<rscale>  0 0.20236862E+03</rscale>
<asrwt>0</asrwt>
<pdfrwt beam="1">  1        2 0.37611363E-01 0.20236862E+03</pdfrwt>
<pdfrwt beam="2">  1       -2 0.64428881E-02 0.20236862E+03</pdfrwt>
<totfact> 0.17527228E+04</totfact>
</mgrwt>
</event>
<event>
 4    1  0.6086918E-004  0.2393061E+03  0.7818608E-02  0.1120256E+00
          2   -1    0    0  501    0  0.00000000000E+00  0.00000000000E+00  0.35948611882E+03  0.35948611883E+03  0.25500000000E-02 0.  1.
         -2   -1    0    0    0  501 -0.00000000000E+00 -0.00000000000E+00 -0.39825878447E+02  0.39825878529E+02  0.25500000000E-02 0. -1.
    5000001    1    1    2    0    0  0.36766251409E+02 -0.83506004796E+02  0.17305763093E+03  0.21024498496E+03  0.77000000000E+02 0.  0.
   -5000001    1    1    2    0    0 -0.36766251409E+02  0.83506004796E+02  0.14660260944E+03  0.18906701239E+03  0.77000000000E+02 0.  0.
<mgrwt>
<rscale>  0 0.23930608E+03</rscale>
<asrwt>0</asrwt>
<pdfrwt beam="1">  1        2 0.55305555E-01 0.23930608E+03</pdfrwt>
<pdfrwt beam="2">  1       -2 0.61270584E-02 0.23930608E+03</pdfrwt>
<totfact> 0.12649894E+04</totfact>
</mgrwt>
</event>
<event>
 4    1  0.6086918E-004  0.7162727E+03  0.7818608E-02  0.9689801E-01
         -2   -1    0    0    0  501 -0.00000000000E+00  0.00000000000E+00  0.13403059085E+03  0.13403059088E+03  0.25500000000E-02 0. -1.
          2   -1    0    0  501    0  0.00000000000E+00 -0.00000000000E+00 -0.95695799711E+03  0.95695799711E+03  0.25500000000E-02 0.  1.
    5000001    1    1    2    0    0  0.28868910771E+03 -0.36085229388E+02 -0.70716259547E+03  0.76853853588E+03  0.77000000000E+02 0.  0.
   -5000001    1    1    2    0    0 -0.28868910771E+03  0.36085229388E+02 -0.11576481078E+03  0.32245005211E+03  0.77000000000E+02 0.  0.
<mgrwt>
<rscale>  0 0.71627270E+03</rscale>
<asrwt>0</asrwt>
<pdfrwt beam="1">  1        2 0.14722430E+00 0.71627270E+03</pdfrwt>
<pdfrwt beam="2">  1       -2 0.20620092E-01 0.71627270E+03</pdfrwt>
<totfact> 0.54678378E+02</totfact>
</mgrwt>
</event>
<event>
 4    1  0.6086918E-004  0.2428058E+03  0.7818608E-02  0.1117938E+00
          2   -1    0    0  501    0  0.00000000000E+00  0.00000000000E+00  0.15412554950E+04  0.15412554950E+04  0.25500000000E-02 0.  1.
         -2   -1    0    0    0  501 -0.00000000000E+00 -0.00000000000E+00 -0.95627637496E+01  0.95627640896E+01  0.25500000000E-02 0. -1.
    5000001    1    1    2    0    0 -0.49304972357E+02  0.48765915927E+02  0.36186374719E+03  0.37640864281E+03  0.77000000000E+02 0.  0.
   -5000001    1    1    2    0    0  0.49304972357E+02 -0.48765915927E+02  0.11698289840E+04  0.11744096163E+04  0.77000000000E+02 0.  0.
<mgrwt>
<rscale>  0 0.24280579E+03</rscale>
<asrwt>0</asrwt>
<pdfrwt beam="1">  1        2 0.23711604E+00 0.24280579E+03</pdfrwt>
<pdfrwt beam="2">  1       -2 0.14711956E-02 0.24280579E+03</pdfrwt>
<totfact> 0.15670098E+04</totfact>
</mgrwt>
</event>
<event>
 4    1  0.6086918E-004  0.2276586E+03  0.7818608E-02  0.1128299E+00
          2   -1    0    0  501    0  0.00000000000E+00  0.00000000000E+00  0.85494821439E+02  0.85494821477E+02  0.25500000000E-02 0.  1.
         -2   -1    0    0    0  501 -0.00000000000E+00 -0.00000000000E+00 -0.15155431555E+03  0.15155431557E+03  0.25500000000E-02 0. -1.
    5000001    1    1    2    0    0 -0.35125958705E+02  0.74578392068E+02 -0.17158320745E+02  0.11410161046E+03  0.77000000000E+02 0.  0.
   -5000001    1    1    2    0    0  0.35125958705E+02 -0.74578392068E+02 -0.48901173367E+02  0.12294752659E+03  0.77000000000E+02 0.  0.
<mgrwt>
<rscale>  0 0.22765860E+03</rscale>
<asrwt>0</asrwt>
<pdfrwt beam="1">  1        2 0.13153049E-01 0.22765860E+03</pdfrwt>
<pdfrwt beam="2">  1       -2 0.23316048E-01 0.22765860E+03</pdfrwt>
<totfact> 0.72007914E+03</totfact>
</mgrwt>
</event>
<event>
 4    1  0.6086918E-004  0.1777494E+03  0.7818608E-02  0.1169999E+00
          2   -1    0    0  501    0  0.00000000000E+00  0.00000000000E+00  0.21315661105E+04  0.21315661105E+04  0.25500000000E-02 0.  1.
         -2   -1    0    0    0  501 -0.00000000000E+00 -0.00000000000E+00 -0.37055913094E+01  0.37055921868E+01  0.25500000000E-02 0. -1.
    5000001    1    1    2    0    0 -0.27751647718E+02 -0.21158069515E+02  0.13933304372E+04  0.13958927341E+04  0.77000000000E+02 0.  0.
   -5000001    1    1    2    0    0  0.27751647718E+02  0.21158069515E+02  0.73453008197E+03  0.73937896858E+03  0.77000000000E+02 0.  0.
<mgrwt>
<rscale>  0 0.17774942E+03</rscale>
<asrwt>0</asrwt>
<pdfrwt beam="1">  1        2 0.32793364E+00 0.17774942E+03</pdfrwt>
<pdfrwt beam="2">  1       -2 0.57009035E-03 0.17774942E+03</pdfrwt>
<totfact> 0.29875315E+04</totfact>
</mgrwt>
</event>
<event>
 4    1  0.6086918E-004  0.3024363E+03  0.7818608E-02  0.1084029E+00
          2   -1    0    0  501    0  0.00000000000E+00  0.00000000000E+00  0.22356870460E+03  0.22356870461E+03  0.25500000000E-02 0.  1.
         -2   -1    0    0    0  501 -0.00000000000E+00 -0.00000000000E+00 -0.10228146968E+03  0.10228146971E+03  0.25500000000E-02 0. -1.
    5000001    1    1    2    0    0 -0.31826127368E+02  0.11663496433E+03  0.11255365389E+03  0.18224692670E+03  0.77000000000E+02 0.  0.
   -5000001    1    1    2    0    0  0.31826127368E+02 -0.11663496433E+03  0.87335810280E+01  0.14360324762E+03  0.77000000000E+02 0.  0.
<mgrwt>
<rscale>  0 0.30243634E+03</rscale>
<asrwt>0</asrwt>
<pdfrwt beam="1">  1        2 0.34395185E-01 0.30243634E+03</pdfrwt>
<pdfrwt beam="2">  1       -2 0.15735611E-01 0.30243634E+03</pdfrwt>
<totfact> 0.47538761E+03</totfact>
</mgrwt>
</event>
<event>
 4    1  0.6086918E-004  0.2090763E+03  0.7818608E-02  0.1142300E+00
         -2   -1    0    0    0  501 -0.00000000000E+00  0.00000000000E+00  0.11153044351E+02  0.11153044643E+02  0.25500000000E-02 0. -1.
          2   -1    0    0  501    0  0.00000000000E+00 -0.00000000000E+00 -0.97984184322E+03  0.97984184323E+03  0.25500000000E-02 0.  1.
    5000001    1    1    2    0    0 -0.45458258873E+02 -0.42230197325E+02 -0.64503775744E+03  0.65257378999E+03  0.77000000000E+02 0.  0.
   -5000001    1    1    2    0    0  0.45458258873E+02  0.42230197325E+02 -0.32365104143E+03  0.33842109788E+03  0.77000000000E+02 0.  0.
<mgrwt>
<rscale>  0 0.20907625E+03</rscale>
<asrwt>0</asrwt>
<pdfrwt beam="1">  1        2 0.15074483E+00 0.20907625E+03</pdfrwt>
<pdfrwt beam="2">  1       -2 0.17158538E-02 0.20907625E+03</pdfrwt>
<totfact> 0.25665558E+04</totfact>
</mgrwt>
</event>
<event>
 4    1  0.6086918E-004  0.5587505E+03  0.7818608E-02  0.9994886E-01
         -2   -1    0    0    0  501 -0.00000000000E+00  0.00000000000E+00  0.33448881865E+03  0.33448881866E+03  0.25500000000E-02 0. -1.
          2   -1    0    0  501    0  0.00000000000E+00 -0.00000000000E+00 -0.23334269949E+03  0.23334269950E+03  0.25500000000E-02 0.  1.
    5000001    1    1    2    0    0  0.37190909284E+02 -0.22248398527E+03 -0.97532389730E+02  0.25753418119E+03  0.77000000000E+02 0.  0.
   -5000001    1    1    2    0    0 -0.37190909284E+02  0.22248398527E+03  0.19867850890E+03  0.31029733697E+03  0.77000000000E+02 0.  0.
<mgrwt>
<rscale>  0 0.55875048E+03</rscale>
<asrwt>0</asrwt>
<pdfrwt beam="1">  1        2 0.35898877E-01 0.55875048E+03</pdfrwt>
<pdfrwt beam="2">  1       -2 0.51459818E-01 0.55875048E+03</pdfrwt>
<totfact> 0.52284950E+02</totfact>
</mgrwt>
</event>
<event>
 4    1  0.6086918E-004  0.2092248E+03  0.7818608E-02  0.1142181E+00
         -2   -1    0    0    0  501 -0.00000000000E+00  0.00000000000E+00  0.15848373565E+02  0.15848373770E+02  0.25500000000E-02 0. -1.
          2   -1    0    0  501    0  0.00000000000E+00 -0.00000000000E+00 -0.69052863406E+03  0.69052863407E+03  0.25500000000E-02 0.  1.
    5000001    1    1    2    0    0  0.46383133726E+01 -0.53034483518E+02 -0.49499591655E+03  0.50376991553E+03  0.77000000000E+02 0.  0.
   -5000001    1    1    2    0    0 -0.46383133726E+01  0.53034483518E+02 -0.17968434395E+03  0.20260709230E+03  0.77000000000E+02 0.  0.
<mgrwt>
<rscale>  0 0.20922482E+03</rscale>
<asrwt>0</asrwt>
<pdfrwt beam="1">  1        2 0.10623515E+00 0.20922482E+03</pdfrwt>
<pdfrwt beam="2">  1       -2 0.24382119E-02 0.20922482E+03</pdfrwt>
<totfact> 0.24021840E+04</totfact>
</mgrwt>
</event>
<event>
 4    1  0.6086918E-004  0.4127936E+03  0.7818608E-02  0.1039438E+00
         -2   -1    0    0    0  501 -0.00000000000E+00  0.00000000000E+00  0.31493943880E+03  0.31493943881E+03  0.25500000000E-02 0. -1.
          2   -1    0    0  501    0  0.00000000000E+00 -0.00000000000E+00 -0.13526294315E+03  0.13526294317E+03  0.25500000000E-02 0.  1.
    5000001    1    1    2    0    0  0.24143036348E+02  0.18384370799E+03  0.37656269810E+02  0.20427527953E+03  0.77000000000E+02 0.  0.
   -5000001    1    1    2    0    0 -0.24143036348E+02 -0.18384370799E+03  0.14202022584E+03  0.24592710245E+03  0.77000000000E+02 0.  0.
<mgrwt>
<rscale>  0 0.41279358E+03</rscale>
<asrwt>0</asrwt>
<pdfrwt beam="1">  1        2 0.20809684E-01 0.41279358E+03</pdfrwt>
<pdfrwt beam="2">  1       -2 0.48452221E-01 0.41279358E+03</pdfrwt>
<totfact> 0.10929871E+03</totfact>
</mgrwt>
</event>
<event>
 4    1  0.6086918E-004  0.2321541E+03  0.7818608E-02  0.1125133E+00
         -2   -1    0    0    0  501 -0.00000000000E+00  0.00000000000E+00  0.14211174396E+02  0.14211174625E+02  0.25500000000E-02 0. -1.
          2   -1    0    0  501    0  0.00000000000E+00 -0.00000000000E+00 -0.94811863603E+03  0.94811863603E+03  0.25500000000E-02 0.  1.
    5000001    1    1    2    0    0  0.41118105162E+02 -0.34469875426E+02 -0.18380124461E+03  0.20637530958E+03  0.77000000000E+02 0.  0.
   -5000001    1    1    2    0    0 -0.41118105162E+02  0.34469875426E+02 -0.75010621702E+03  0.75595450108E+03  0.77000000000E+02 0.  0.
<mgrwt>
<rscale>  0 0.23215408E+03</rscale>
<asrwt>0</asrwt>
<pdfrwt beam="1">  1        2 0.14586436E+00 0.23215408E+03</pdfrwt>
<pdfrwt beam="2">  1       -2 0.21863353E-02 0.23215408E+03</pdfrwt>
<totfact> 0.18944868E+04</totfact>
</mgrwt>
</event>
<event>
 4    1  0.6086918E-004  0.1754713E+03  0.7818608E-02  0.1172259E+00
          2   -1    0    0  501    0  0.00000000000E+00  0.00000000000E+00  0.10245265994E+04  0.10245265994E+04  0.25500000000E-02 0.  1.
         -2   -1    0    0    0  501 -0.00000000000E+00 -0.00000000000E+00 -0.75132703572E+01  0.75132707900E+01  0.25500000000E-02 0. -1.
    5000001    1    1    2    0    0  0.21616081940E+02  0.34469357981E+02  0.44594257334E+03  0.45436677955E+03  0.77000000000E+02 0.  0.
   -5000001    1    1    2    0    0 -0.21616081940E+02 -0.34469357981E+02  0.57107075565E+03  0.57767309060E+03  0.77000000000E+02 0.  0.
<mgrwt>
<rscale>  0 0.17547131E+03</rscale>
<asrwt>0</asrwt>
<pdfrwt beam="1">  1        2 0.15761943E+00 0.17547131E+03</pdfrwt>
<pdfrwt beam="2">  1       -2 0.11558881E-02 0.17547131E+03</pdfrwt>
<totfact> 0.42235464E+04</totfact>
</mgrwt>
</event>
<event>
 4    1  0.6086918E-004  0.3009659E+03  0.7818608E-02  0.1084759E+00
          2   -1    0    0  501    0  0.00000000000E+00  0.00000000000E+00  0.37097581872E+02  0.37097581959E+02  0.25500000000E-02 0.  1.
         -2   -1    0    0    0  501 -0.00000000000E+00 -0.00000000000E+00 -0.61042027057E+03  0.61042027058E+03  0.25500000000E-02 0. -1.
    5000001    1    1    2    0    0  0.10176973692E+01 -0.58021933153E+02 -0.53523281835E+03  0.54384809485E+03  0.77000000000E+02 0.  0.
   -5000001    1    1    2    0    0 -0.10176973692E+01  0.58021933153E+02 -0.38089870347E+02  0.10366975768E+03  0.77000000000E+02 0.  0.
<mgrwt>
<rscale>  0 0.30096589E+03</rscale>
<asrwt>0</asrwt>
<pdfrwt beam="1">  1        2 0.57073207E-02 0.30096589E+03</pdfrwt>
<pdfrwt beam="2">  1       -2 0.93910804E-01 0.30096589E+03</pdfrwt>
<totfact> 0.13114603E+03</totfact>
</mgrwt>
</event>
<event>
 4    1  0.6086918E-004  0.2407307E+03  0.7818608E-02  0.1119307E+00
         -2   -1    0    0    0  501 -0.00000000000E+00  0.00000000000E+00  0.11337795448E+02  0.11337795735E+02  0.25500000000E-02 0. -1.
          2   -1    0    0  501    0  0.00000000000E+00 -0.00000000000E+00 -0.12778341255E+04  0.12778341255E+04  0.25500000000E-02 0.  1.
    5000001    1    1    2    0    0  0.12915562332E+02  0.88490396453E+02 -0.50635485091E+03  0.51992460709E+03  0.77000000000E+02 0.  0.
   -5000001    1    1    2    0    0 -0.12915562332E+02 -0.88490396453E+02 -0.76014147915E+03  0.76924731415E+03  0.77000000000E+02 0.  0.
<mgrwt>
<rscale>  0 0.24073074E+03</rscale>
<asrwt>0</asrwt>
<pdfrwt beam="1">  1        2 0.19658975E+00 0.24073074E+03</pdfrwt>
<pdfrwt beam="2">  1       -2 0.17442773E-02 0.24073074E+03</pdfrwt>
<totfact> 0.16957614E+04</totfact>
</mgrwt>
</event>
<event>
 4    1  0.6086918E-004  0.2539582E+03  0.7818608E-02  0.1110829E+00
         -2   -1    0    0    0  501 -0.00000000000E+00  0.00000000000E+00  0.99657024208E+01  0.99657027471E+01  0.25500000000E-02 0. -1.
          2   -1    0    0  501    0  0.00000000000E+00 -0.00000000000E+00 -0.16179181816E+04  0.16179181816E+04  0.25500000000E-02 0.  1.
    5000001    1    1    2    0    0  0.23109927518E+02 -0.98117146698E+02 -0.76679344907E+03  0.77721440849E+03  0.77000000000E+02 0.  0.
   -5000001    1    1    2    0    0 -0.23109927518E+02  0.98117146698E+02 -0.84115903011E+03  0.85066947587E+03  0.77000000000E+02 0.  0.
<mgrwt>
<rscale>  0 0.25395820E+03</rscale>
<asrwt>0</asrwt>
<pdfrwt beam="1">  1        2 0.24891028E+00 0.25395820E+03</pdfrwt>
<pdfrwt beam="2">  1       -2 0.15331863E-02 0.25395820E+03</pdfrwt>
<totfact> 0.13456690E+04</totfact>
</mgrwt>
</event>
<event>
 4    1  0.6086918E-004  0.4581910E+03  0.7818608E-02  0.1025307E+00
          2   -1    0    0  501    0  0.00000000000E+00  0.00000000000E+00  0.37027723278E+03  0.37027723279E+03  0.25500000000E-02 0.  1.
         -2   -1    0    0    0  501 -0.00000000000E+00 -0.00000000000E+00 -0.14174444663E+03  0.14174444665E+03  0.25500000000E-02 0. -1.
    5000001    1    1    2    0    0 -0.19245188663E+03  0.17087891346E-02  0.22328859900E+03  0.30467117867E+03  0.77000000000E+02 0.  0.
   -5000001    1    1    2    0    0  0.19245188663E+03 -0.17087891346E-02  0.52441871578E+01  0.20735050077E+03  0.77000000000E+02 0.  0.
<mgrwt>
<rscale>  0 0.45819097E+03</rscale>
<asrwt>0</asrwt>
<pdfrwt beam="1">  1        2 0.56965729E-01 0.45819097E+03</pdfrwt>
<pdfrwt beam="2">  1       -2 0.21806838E-01 0.45819097E+03</pdfrwt>
<totfact> 0.15821961E+03</totfact>
</mgrwt>
</event>
<event>
 4    1  0.6086918E-004  0.2581614E+03  0.7818608E-02  0.1108253E+00
          2   -1    0    0  501    0  0.00000000000E+00  0.00000000000E+00  0.78966221006E+03  0.78966221006E+03  0.25500000000E-02 0.  1.
         -2   -1    0    0    0  501 -0.00000000000E+00 -0.00000000000E+00 -0.21099939174E+02  0.21099939328E+02  0.25500000000E-02 0. -1.
    5000001    1    1    2    0    0  0.49977225543E+02  0.60156314623E+02  0.17090290229E+03  0.20310910190E+03  0.77000000000E+02 0.  0.
   -5000001    1    1    2    0    0 -0.49977225543E+02 -0.60156314623E+02  0.59765936859E+03  0.60765304749E+03  0.77000000000E+02 0.  0.
<mgrwt>
<rscale>  0 0.25816138E+03</rscale>
<asrwt>0</asrwt>
<pdfrwt beam="1">  1        2 0.12148648E+00 0.25816138E+03</pdfrwt>
<pdfrwt beam="2">  1       -2 0.32461449E-02 0.25816138E+03</pdfrwt>
<totfact> 0.13482727E+04</totfact>
</mgrwt>
</event>
<event>
 4    1  0.6086918E-004  0.2324868E+03  0.7818608E-02  0.1124902E+00
         -2   -1    0    0    0  501 -0.00000000000E+00  0.00000000000E+00  0.34896505650E+02  0.34896505743E+02  0.25500000000E-02 0. -1.
          2   -1    0    0  501    0  0.00000000000E+00 -0.00000000000E+00 -0.38721717823E+03  0.38721717824E+03  0.25500000000E-02 0.  1.
    5000001    1    1    2    0    0  0.43602771885E+02 -0.68449359416E+02 -0.23349019913E+03  0.25890768550E+03  0.77000000000E+02 0.  0.
   -5000001    1    1    2    0    0 -0.43602771885E+02  0.68449359416E+02 -0.11883047345E+03  0.16320599848E+03  0.77000000000E+02 0.  0.
<mgrwt>
<rscale>  0 0.23248679E+03</rscale>
<asrwt>0</asrwt>
<pdfrwt beam="1">  1        2 0.59571871E-01 0.23248679E+03</pdfrwt>
<pdfrwt beam="2">  1       -2 0.53686934E-02 0.23248679E+03</pdfrwt>
<totfact> 0.14262792E+04</totfact>
</mgrwt>
</event>
<event>
 4    1  0.6086918E-004  0.2509495E+03  0.7818608E-02  0.1112706E+00
         -2   -1    0    0    0  501 -0.00000000000E+00  0.00000000000E+00  0.65191802141E+02  0.65191802191E+02  0.25500000000E-02 0. -1.
          2   -1    0    0  501    0  0.00000000000E+00 -0.00000000000E+00 -0.24150137526E+03  0.24150137528E+03  0.25500000000E-02 0.  1.
    5000001    1    1    2    0    0  0.42346073715E+02  0.89559404134E+02 -0.89270248108E+02  0.15398783726E+03  0.77000000000E+02 0.  0.
   -5000001    1    1    2    0    0 -0.42346073715E+02 -0.89559404134E+02 -0.87039325016E+02  0.15270534020E+03  0.77000000000E+02 0.  0.
<mgrwt>
<rscale>  0 0.25094948E+03</rscale>
<asrwt>0</asrwt>
<pdfrwt beam="1">  1        2 0.37154057E-01 0.25094948E+03</pdfrwt>
<pdfrwt beam="2">  1       -2 0.10029508E-01 0.25094948E+03</pdfrwt>
<totfact> 0.90216708E+03</totfact>
</mgrwt>
</event>
<event>
 4    1  0.6086918E-004  0.1730171E+03  0.7818608E-02  0.1174737E+00
         -2   -1    0    0    0  501 -0.00000000000E+00  0.00000000000E+00  0.99445078611E+01  0.99445081881E+01  0.25500000000E-02 0. -1.
          2   -1    0    0  501    0  0.00000000000E+00 -0.00000000000E+00 -0.75254931244E+03  0.75254931244E+03  0.25500000000E-02 0.  1.
    5000001    1    1    2    0    0  0.34446707207E+02 -0.14855968327E+02 -0.42481798528E+03  0.43336658391E+03  0.77000000000E+02 0.  0.
   -5000001    1    1    2    0    0 -0.34446707207E+02  0.14855968327E+02 -0.31778681929E+03  0.32912723672E+03  0.77000000000E+02 0.  0.
<mgrwt>
<rscale>  0 0.17301714E+03</rscale>
<asrwt>0</asrwt>
<pdfrwt beam="1">  1        2 0.11577677E+00 0.17301714E+03</pdfrwt>
<pdfrwt beam="2">  1       -2 0.15299249E-02 0.17301714E+03</pdfrwt>
<totfact> 0.42121419E+04</totfact>
</mgrwt>
</event>
<event>
 4    1  0.6086918E-004  0.2421125E+03  0.7818608E-02  0.1118393E+00
          2   -1    0    0  501    0  0.00000000000E+00  0.00000000000E+00  0.39590790475E+03  0.39590790476E+03  0.25500000000E-02 0.  1.
         -2   -1    0    0    0  501 -0.00000000000E+00 -0.00000000000E+00 -0.37015217373E+02  0.37015217461E+02  0.25500000000E-02 0. -1.
    5000001    1    1    2    0    0  0.25438672667E+02 -0.64568706579E+02  0.29124771107E+03  0.30914474464E+03  0.77000000000E+02 0.  0.
   -5000001    1    1    2    0    0 -0.25438672667E+02  0.64568706579E+02  0.67644976309E+02  0.12377837758E+03  0.77000000000E+02 0.  0.
<mgrwt>
<rscale>  0 0.24211251E+03</rscale>
<asrwt>0</asrwt>
<pdfrwt beam="1">  1        2 0.60908909E-01 0.24211251E+03</pdfrwt>
<pdfrwt beam="2">  1       -2 0.56946488E-02 0.24211251E+03</pdfrwt>
<totfact> 0.12755750E+04</totfact>
</mgrwt>
</event>
<event>
 4    1  0.6086918E-004  0.4606887E+03  0.7818608E-02  0.1024582E+00
         -2   -1    0    0    0  501 -0.00000000000E+00  0.00000000000E+00  0.74003533133E+02  0.74003533177E+02  0.25500000000E-02 0. -1.
          2   -1    0    0  501    0  0.00000000000E+00 -0.00000000000E+00 -0.71697291411E+03  0.71697291411E+03  0.25500000000E-02 0.  1.
    5000001    1    1    2    0    0  0.10511280095E+03  0.90153981882E+02 -0.60854347777E+03  0.62883273269E+03  0.77000000000E+02 0.  0.
   -5000001    1    1    2    0    0 -0.10511280095E+03 -0.90153981882E+02 -0.34425903208E+02  0.16214371460E+03  0.77000000000E+02 0.  0.
<mgrwt>
<rscale>  0 0.46068874E+03</rscale>
<asrwt>0</asrwt>
<pdfrwt beam="1">  1        2 0.11030352E+00 0.46068874E+03</pdfrwt>
<pdfrwt beam="2">  1       -2 0.11385159E-01 0.46068874E+03</pdfrwt>
<totfact> 0.22025066E+03</totfact>
</mgrwt>
</event>
<event>
 4    1  0.6086918E-004  0.2152254E+03  0.7818608E-02  0.1137494E+00
         -2   -1    0    0    0  501 -0.00000000000E+00  0.00000000000E+00  0.31062414260E+02  0.31062414365E+02  0.25500000000E-02 0. -1.
          2   -1    0    0  501    0  0.00000000000E+00 -0.00000000000E+00 -0.37281365132E+03  0.37281365133E+03  0.25500000000E-02 0.  1.
    5000001    1    1    2    0    0 -0.24529932135E+02  0.56978738112E+02 -0.25056057039E+03  0.26936572462E+03  0.77000000000E+02 0.  0.
   -5000001    1    1    2    0    0  0.24529932135E+02 -0.56978738112E+02 -0.91190666670E+02  0.13451034107E+03  0.77000000000E+02 0.  0.
<mgrwt>
<rscale>  0 0.21522539E+03</rscale>
<asrwt>0</asrwt>
<pdfrwt beam="1">  1        2 0.57355943E-01 0.21522539E+03</pdfrwt>
<pdfrwt beam="2">  1       -2 0.47788332E-02 0.21522539E+03</pdfrwt>
<totfact> 0.17639731E+04</totfact>
</mgrwt>
</event>
<event>
 4    1  0.6086918E-004  0.2742984E+03  0.7818608E-02  0.1098844E+00
         -2   -1    0    0    0  501 -0.00000000000E+00  0.00000000000E+00  0.19507553775E+02  0.19507553942E+02  0.25500000000E-02 0. -1.
          2   -1    0    0  501    0  0.00000000000E+00 -0.00000000000E+00 -0.96423719986E+03  0.96423719986E+03  0.25500000000E-02 0.  1.
    5000001    1    1    2    0    0 -0.16621871890E+02  0.82882416918E+02 -0.74396535862E+03  0.75270129300E+03  0.77000000000E+02 0.  0.
   -5000001    1    1    2    0    0  0.16621871890E+02 -0.82882416918E+02 -0.20076428747E+03  0.23104346081E+03  0.77000000000E+02 0.  0.
<mgrwt>
<rscale>  0 0.27429844E+03</rscale>
<asrwt>0</asrwt>
<pdfrwt beam="1">  1        2 0.14834415E+00 0.27429844E+03</pdfrwt>
<pdfrwt beam="2">  1       -2 0.30011629E-02 0.27429844E+03</pdfrwt>
<totfact> 0.11667162E+04</totfact>
</mgrwt>
</event>
<event>
 4    1  0.6086918E-004  0.3070493E+03  0.7818608E-02  0.1081769E+00
          2   -1    0    0  501    0  0.00000000000E+00  0.00000000000E+00  0.59403393832E+02  0.59403393886E+02  0.25500000000E-02 0.  1.
         -2   -1    0    0    0  501 -0.00000000000E+00 -0.00000000000E+00 -0.39677570458E+03  0.39677570459E+03  0.25500000000E-02 0. -1.
    5000001    1    1    2    0    0  0.11807542374E+03 -0.58496490372E+02 -0.19342086958E+03  0.24638238141E+03  0.77000000000E+02 0.  0.
   -5000001    1    1    2    0    0 -0.11807542374E+03  0.58496490372E+02 -0.14395144117E+03  0.20979671707E+03  0.77000000000E+02 0.  0.
<mgrwt>
<rscale>  0 0.30704933E+03</rscale>
<asrwt>0</asrwt>
<pdfrwt beam="1">  1        2 0.91389839E-02 0.30704933E+03</pdfrwt>
<pdfrwt beam="2">  1       -2 0.61042414E-01 0.30704933E+03</pdfrwt>
<totfact> 0.18341800E+03</totfact>
</mgrwt>
</event>
<event>
 4    1  0.6086918E-004  0.2744942E+03  0.7818608E-02  0.1098735E+00
         -2   -1    0    0    0  501 -0.00000000000E+00  0.00000000000E+00  0.15860967042E+02  0.15860967247E+02  0.25500000000E-02 0. -1.
          2   -1    0    0  501    0  0.00000000000E+00 -0.00000000000E+00 -0.11876175644E+04  0.11876175644E+04  0.25500000000E-02 0.  1.
    5000001    1    1    2    0    0  0.81094172182E+02 -0.61529155194E+02 -0.36466790033E+03  0.38635965010E+03  0.77000000000E+02 0.  0.
   -5000001    1    1    2    0    0 -0.81094172182E+02  0.61529155194E+02 -0.80708869702E+03  0.81711888153E+03  0.77000000000E+02 0.  0.
<mgrwt>
<rscale>  0 0.27449418E+03</rscale>
<asrwt>0</asrwt>
<pdfrwt beam="1">  1        2 0.18271033E+00 0.27449418E+03</pdfrwt>
<pdfrwt beam="2">  1       -2 0.24401497E-02 0.27449418E+03</pdfrwt>
<totfact> 0.11683463E+04</totfact>
</mgrwt>
</event>
<event>
 4    1  0.6086918E-004  0.1850049E+03  0.7818608E-02  0.1163045E+00
         -2   -1    0    0    0  501 -0.00000000000E+00  0.00000000000E+00  0.30113686049E+02  0.30113686157E+02  0.25500000000E-02 0. -1.
          2   -1    0    0  501    0  0.00000000000E+00 -0.00000000000E+00 -0.28414652353E+03  0.28414652354E+03  0.25500000000E-02 0.  1.
    5000001    1    1    2    0    0 -0.24121474734E+01 -0.51203644502E+02 -0.12745792099E+03  0.15748699403E+03  0.77000000000E+02 0.  0.
   -5000001    1    1    2    0    0  0.24121474734E+01  0.51203644502E+02 -0.12657491648E+03  0.15677321566E+03  0.77000000000E+02 0.  0.
<mgrwt>
<rscale>  0 0.18500486E+03</rscale>
<asrwt>0</asrwt>
<pdfrwt beam="1">  1        2 0.43714848E-01 0.18500486E+03</pdfrwt>
<pdfrwt beam="2">  1       -2 0.46328750E-02 0.18500486E+03</pdfrwt>
<totfact> 0.24447648E+04</totfact>
</mgrwt>
</event>
<event>
 4    1  0.6086918E-004  0.2117693E+03  0.7818608E-02  0.1140173E+00
          2   -1    0    0  501    0  0.00000000000E+00  0.00000000000E+00  0.29905679586E+03  0.29905679587E+03  0.25500000000E-02 0.  1.
         -2   -1    0    0    0  501 -0.00000000000E+00 -0.00000000000E+00 -0.37489715329E+02  0.37489715416E+02  0.25500000000E-02 0. -1.
    5000001    1    1    2    0    0 -0.62624585004E+01  0.27516963503E+02  0.23722705433E+03  0.25100214535E+03  0.77000000000E+02 0.  0.
   -5000001    1    1    2    0    0  0.62624585004E+01 -0.27516963503E+02  0.24340026199E+02  0.85544365929E+02  0.77000000000E+02 0.  0.
<mgrwt>
<rscale>  0 0.21176925E+03</rscale>
<asrwt>0</asrwt>
<pdfrwt beam="1">  1        2 0.46008737E-01 0.21176925E+03</pdfrwt>
<pdfrwt beam="2">  1       -2 0.57676486E-02 0.21176925E+03</pdfrwt>
<totfact> 0.16779850E+04</totfact>
</mgrwt>
</event>
<event>
 4    1  0.6086918E-004  0.6568911E+03  0.7818608E-02  0.9793934E-01
         -2   -1    0    0    0  501 -0.00000000000E+00  0.00000000000E+00  0.18332847837E+03  0.18332847839E+03  0.25500000000E-02 0. -1.
          2   -1    0    0  501    0  0.00000000000E+00 -0.00000000000E+00 -0.58843282333E+03  0.58843282333E+03  0.25500000000E-02 0.  1.
    5000001    1    1    2    0    0  0.15147170169E+03  0.27097821176E+03 -0.11483240400E+03  0.33983576721E+03  0.77000000000E+02 0.  0.
   -5000001    1    1    2    0    0 -0.15147170169E+03 -0.27097821176E+03 -0.29027194095E+03  0.43192553452E+03  0.77000000000E+02 0.  0.
<mgrwt>
<rscale>  0 0.65689115E+03</rscale>
<asrwt>0</asrwt>
<pdfrwt beam="1">  1        2 0.90528125E-01 0.65689115E+03</pdfrwt>
<pdfrwt beam="2">  1       -2 0.28204382E-01 0.65689115E+03</pdfrwt>
<totfact> 0.58727930E+02</totfact>
</mgrwt>
</event>
<event>
 4    1  0.6086918E-004  0.2461542E+03  0.7818608E-02  0.1115760E+00
         -2   -1    0    0    0  501 -0.00000000000E+00  0.00000000000E+00  0.62058690253E+02  0.62058690306E+02  0.25500000000E-02 0. -1.
          2   -1    0    0  501    0  0.00000000000E+00 -0.00000000000E+00 -0.24409108560E+03  0.24409108562E+03  0.25500000000E-02 0.  1.
    5000001    1    1    2    0    0 -0.12677756773E+02  0.60062789482E+02  0.80716260448E+00  0.98477996063E+02  0.77000000000E+02 0.  0.
   -5000001    1    1    2    0    0  0.12677756773E+02 -0.60062789482E+02 -0.18283955796E+03  0.20767177986E+03  0.77000000000E+02 0.  0.
<mgrwt>
<rscale>  0 0.24615420E+03</rscale>
<asrwt>0</asrwt>
<pdfrwt beam="1">  1        2 0.37552474E-01 0.24615420E+03</pdfrwt>
<pdfrwt beam="2">  1       -2 0.95474909E-02 0.24615420E+03</pdfrwt>
<totfact> 0.96333109E+03</totfact>
</mgrwt>
</event>
<event>
 4    1  0.6086918E-004  0.6381537E+03  0.7818608E-02  0.9829265E-01
         -2   -1    0    0    0  501 -0.00000000000E+00  0.00000000000E+00  0.13786796716E+03  0.13786796719E+03  0.25500000000E-02 0. -1.
          2   -1    0    0  501    0  0.00000000000E+00 -0.00000000000E+00 -0.73846041553E+03  0.73846041553E+03  0.25500000000E-02 0.  1.
    5000001    1    1    2    0    0  0.35715050000E+02 -0.30098212119E+03 -0.38731180634E+03  0.49780039916E+03  0.77000000000E+02 0.  0.
   -5000001    1    1    2    0    0 -0.35715050000E+02  0.30098212119E+03 -0.21328064203E+03  0.37852798356E+03  0.77000000000E+02 0.  0.
<mgrwt>
<rscale>  0 0.63815370E+03</rscale>
<asrwt>0</asrwt>
<pdfrwt beam="1">  1        2 0.11360929E+00 0.63815370E+03</pdfrwt>
<pdfrwt beam="2">  1       -2 0.21210457E-01 0.63815370E+03</pdfrwt>
<totfact> 0.74023481E+02</totfact>
</mgrwt>
</event>
<event>
 4    1  0.6086918E-004  0.2473281E+03  0.7818608E-02  0.1115005E+00
          2   -1    0    0  501    0  0.00000000000E+00  0.00000000000E+00  0.24043803824E+04  0.24043803824E+04  0.25500000000E-02 0.  1.
         -2   -1    0    0    0  501 -0.00000000000E+00 -0.00000000000E+00 -0.63603879848E+01  0.63603884960E+01  0.25500000000E-02 0. -1.
    5000001    1    1    2    0    0 -0.19942316499E+02 -0.90501935791E+02  0.92757428048E+03  0.93536695590E+03  0.77000000000E+02 0.  0.
   -5000001    1    1    2    0    0  0.19942316499E+02  0.90501935791E+02  0.14704457140E+04  0.14753738150E+04  0.77000000000E+02 0.  0.
<mgrwt>
<rscale>  0 0.24732806E+03</rscale>
<asrwt>0</asrwt>
<pdfrwt beam="1">  1        2 0.36990527E+00 0.24732806E+03</pdfrwt>
<pdfrwt beam="2">  1       -2 0.97851970E-03 0.24732806E+03</pdfrwt>
<totfact> 0.99407313E+03</totfact>
</mgrwt>
</event>
<event>
 4    1  0.6086918E-004  0.2402888E+03  0.7818608E-02  0.1119601E+00
         -2   -1    0    0    0  501 -0.00000000000E+00  0.00000000000E+00  0.17615850478E+02  0.17615850663E+02  0.25500000000E-02 0. -1.
          2   -1    0    0  501    0  0.00000000000E+00 -0.00000000000E+00 -0.81941437802E+03  0.81941437803E+03  0.25500000000E-02 0.  1.
    5000001    1    1    2    0    0  0.16274295113E+02 -0.47394430874E+02 -0.67060334921E+03  0.67686700077E+03  0.77000000000E+02 0.  0.
   -5000001    1    1    2    0    0 -0.16274295113E+02  0.47394430874E+02 -0.13119517833E+03  0.16016322792E+03  0.77000000000E+02 0.  0.
<mgrwt>
<rscale>  0 0.24028884E+03</rscale>
<asrwt>0</asrwt>
<pdfrwt beam="1">  1        2 0.12606372E+00 0.24028884E+03</pdfrwt>
<pdfrwt beam="2">  1       -2 0.27101315E-02 0.24028884E+03</pdfrwt>
<totfact> 0.16763192E+04</totfact>
</mgrwt>
</event>
<event>
 4    1  0.6086918E-004  0.2046392E+03  0.7818608E-02  0.1145883E+00
         -2   -1    0    0    0  501 -0.00000000000E+00  0.00000000000E+00  0.18860158669E+02  0.18860158842E+02  0.25500000000E-02 0. -1.
          2   -1    0    0  501    0  0.00000000000E+00 -0.00000000000E+00 -0.55510159539E+03  0.55510159539E+03  0.25500000000E-02 0.  1.
    5000001    1    1    2    0    0  0.39614317105E+02  0.41346550202E+02 -0.16850382159E+03  0.19391072488E+03  0.77000000000E+02 0.  0.
   -5000001    1    1    2    0    0 -0.39614317105E+02 -0.41346550202E+02 -0.36773761512E+03  0.38005102935E+03  0.77000000000E+02 0.  0.
<mgrwt>
<rscale>  0 0.20463924E+03</rscale>
<asrwt>0</asrwt>
<pdfrwt beam="1">  1        2 0.85400233E-01 0.20463924E+03</pdfrwt>
<pdfrwt beam="2">  1       -2 0.29015633E-02 0.20463924E+03</pdfrwt>
<totfact> 0.23919876E+04</totfact>
</mgrwt>
</event>
<event>
 4    1  0.6086918E-004  0.2041534E+03  0.7818608E-02  0.1146281E+00
         -2   -1    0    0    0  501 -0.00000000000E+00  0.00000000000E+00  0.36734072805E+01  0.36734081656E+01  0.25500000000E-02 0. -1.
          2   -1    0    0  501    0  0.00000000000E+00 -0.00000000000E+00 -0.28365089796E+04  0.28365089796E+04  0.25500000000E-02 0.  1.
    5000001    1    1    2    0    0 -0.96878541901E+01  0.64578612750E+02 -0.16257470551E+04  0.16288789822E+04  0.77000000000E+02 0.  0.
   -5000001    1    1    2    0    0  0.96878541901E+01 -0.64578612750E+02 -0.12070885173E+04  0.12113034056E+04  0.77000000000E+02 0.  0.
<mgrwt>
<rscale>  0 0.20415341E+03</rscale>
<asrwt>0</asrwt>
<pdfrwt beam="1">  1        2 0.43638425E+00 0.20415341E+03</pdfrwt>
<pdfrwt beam="2">  1       -2 0.56514192E-03 0.20415341E+03</pdfrwt>
<totfact> 0.12607449E+04</totfact>
</mgrwt>
</event>
<event>
 4    1  0.6086918E-004  0.3127113E+03  0.7818608E-02  0.1079054E+00
         -2   -1    0    0    0  501 -0.00000000000E+00  0.00000000000E+00  0.16697620126E+03  0.16697620128E+03  0.25500000000E-02 0. -1.
          2   -1    0    0  501    0  0.00000000000E+00 -0.00000000000E+00 -0.14641064170E+03  0.14641064172E+03  0.25500000000E-02 0.  1.
    5000001    1    1    2    0    0 -0.12472217833E+02 -0.13513867594E+03  0.20308130579E+02  0.15735132069E+03  0.77000000000E+02 0.  0.
   -5000001    1    1    2    0    0  0.12472217833E+02  0.13513867594E+03  0.25742897681E+00  0.15603552231E+03  0.77000000000E+02 0.  0.
<mgrwt>
<rscale>  0 0.31271132E+03</rscale>
<asrwt>0</asrwt>
<pdfrwt beam="1">  1        2 0.22524714E-01 0.31271132E+03</pdfrwt>
<pdfrwt beam="2">  1       -2 0.25688646E-01 0.31271132E+03</pdfrwt>
<totfact> 0.32804531E+03</totfact>
</mgrwt>
</event>
<event>
 4    1  0.6086918E-004  0.2064582E+03  0.7818608E-02  0.1144402E+00
         -2   -1    0    0    0  501 -0.00000000000E+00  0.00000000000E+00  0.12537371120E+02  0.12537371379E+02  0.25500000000E-02 0. -1.
          2   -1    0    0  501    0  0.00000000000E+00 -0.00000000000E+00 -0.84995856053E+03  0.84995856053E+03  0.25500000000E-02 0.  1.
    5000001    1    1    2    0    0 -0.38168634024E+02 -0.42409829560E+02 -0.57897994783E+03  0.58685791999E+03  0.77000000000E+02 0.  0.
   -5000001    1    1    2    0    0  0.38168634024E+02  0.42409829560E+02 -0.25844124157E+03  0.27563801192E+03  0.77000000000E+02 0.  0.
<mgrwt>
<rscale>  0 0.20645819E+03</rscale>
<asrwt>0</asrwt>
<pdfrwt beam="1">  1        2 0.13076281E+00 0.20645819E+03</pdfrwt>
<pdfrwt beam="2">  1       -2 0.19288270E-02 0.20645819E+03</pdfrwt>
<totfact> 0.26142809E+04</totfact>
</mgrwt>
</event>
<event>
 4    1  0.6086918E-004  0.1660187E+03  0.7818608E-02  0.1182064E+00
         -2   -1    0    0    0  501 -0.00000000000E+00  0.00000000000E+00  0.38278245984E+02  0.38278246069E+02  0.25500000000E-02 0. -1.
          2   -1    0    0  501    0  0.00000000000E+00 -0.00000000000E+00 -0.18001226296E+03  0.18001226298E+03  0.25500000000E-02 0.  1.
    5000001    1    1    2    0    0 -0.21203998722E+01  0.29360585180E+02 -0.83683547526E+02  0.11746691528E+03  0.77000000000E+02 0.  0.
   -5000001    1    1    2    0    0  0.21203998722E+01 -0.29360585180E+02 -0.58050469449E+02  0.10082359377E+03  0.77000000000E+02 0.  0.
<mgrwt>
<rscale>  0 0.16601872E+03</rscale>
<asrwt>0</asrwt>
<pdfrwt beam="1">  1        2 0.27694194E-01 0.16601872E+03</pdfrwt>
<pdfrwt beam="2">  1       -2 0.58889610E-02 0.16601872E+03</pdfrwt>
<totfact> 0.27567161E+04</totfact>
</mgrwt>
</event>
<event>
 4    1  0.6086918E-004  0.7916378E+03  0.7818608E-02  0.9572201E-01
          2   -1    0    0  501    0  0.00000000000E+00  0.00000000000E+00  0.61974481052E+02  0.61974481104E+02  0.25500000000E-02 0.  1.
         -2   -1    0    0    0  501 -0.00000000000E+00 -0.00000000000E+00 -0.25280179248E+04  0.25280179248E+04  0.25500000000E-02 0. -1.
    5000001    1    1    2    0    0 -0.16005126286E+03  0.34558425924E+03 -0.98604255107E+03  0.10598366853E+04  0.77000000000E+02 0.  0.
   -5000001    1    1    2    0    0  0.16005126286E+03 -0.34558425924E+03 -0.14800008926E+04  0.15301557206E+04  0.77000000000E+02 0.  0.
<mgrwt>
<rscale>  0 0.79163779E+03</rscale>
<asrwt>0</asrwt>
<pdfrwt beam="1">  1        2 0.95345375E-02 0.79163779E+03</pdfrwt>
<pdfrwt beam="2">  1       -2 0.38892575E+00 0.79163779E+03</pdfrwt>
<totfact> 0.65440058E+00</totfact>
</mgrwt>
</event>
<event>
 4    1  0.6086918E-004  0.2675559E+03  0.7818608E-02  0.1102687E+00
         -2   -1    0    0    0  501 -0.00000000000E+00  0.00000000000E+00  0.22483813149E+02  0.22483813293E+02  0.25500000000E-02 0. -1.
          2   -1    0    0  501    0  0.00000000000E+00 -0.00000000000E+00 -0.79597411976E+03  0.79597411976E+03  0.25500000000E-02 0.  1.
    5000001    1    1    2    0    0  0.49964076868E+02 -0.91666684874E+02 -0.48673072492E+03  0.50372114178E+03  0.77000000000E+02 0.  0.
   -5000001    1    1    2    0    0 -0.49964076868E+02  0.91666684874E+02 -0.28675958169E+03  0.31473679128E+03  0.77000000000E+02 0.  0.
<mgrwt>
<rscale>  0 0.26755585E+03</rscale>
<asrwt>0</asrwt>
<pdfrwt beam="1">  1        2 0.12245753E+00 0.26755585E+03</pdfrwt>
<pdfrwt beam="2">  1       -2 0.34590488E-02 0.26755585E+03</pdfrwt>
<totfact> 0.12156995E+04</totfact>
</mgrwt>
</event>
<event>
 4    1  0.6086918E-004  0.2402706E+03  0.7818608E-02  0.1119613E+00
         -2   -1    0    0    0  501 -0.00000000000E+00  0.00000000000E+00  0.29884795000E+02  0.29884795108E+02  0.25500000000E-02 0. -1.
          2   -1    0    0  501    0  0.00000000000E+00 -0.00000000000E+00 -0.48293759534E+03  0.48293759535E+03  0.25500000000E-02 0.  1.
    5000001    1    1    2    0    0 -0.42567162807E+02 -0.73463565916E+02 -0.30332256575E+03  0.32425674667E+03  0.77000000000E+02 0.  0.
   -5000001    1    1    2    0    0  0.42567162807E+02  0.73463565916E+02 -0.14973023459E+03  0.18856564379E+03  0.77000000000E+02 0.  0.
<mgrwt>
<rscale>  0 0.24027061E+03</rscale>
<asrwt>0</asrwt>
<pdfrwt beam="1">  1        2 0.74298086E-01 0.24027061E+03</pdfrwt>
<pdfrwt beam="2">  1       -2 0.45976611E-02 0.24027061E+03</pdfrwt>
<totfact> 0.14195920E+04</totfact>
</mgrwt>
</event>
<event>
 4    1  0.6086918E-004  0.1799739E+03  0.7818608E-02  0.1167828E+00
          2   -1    0    0  501    0  0.00000000000E+00  0.00000000000E+00  0.31600150874E+03  0.31600150875E+03  0.25500000000E-02 0.  1.
         -2   -1    0    0    0  501 -0.00000000000E+00 -0.00000000000E+00 -0.25625350323E+02  0.25625350450E+02  0.25500000000E-02 0. -1.
    5000001    1    1    2    0    0  0.34643994338E+00 -0.42024885008E+02  0.18326766702E+03  0.20318033555E+03  0.77000000000E+02 0.  0.
   -5000001    1    1    2    0    0 -0.34643994338E+00  0.42024885008E+02  0.10710849139E+03  0.13844652364E+03  0.77000000000E+02 0.  0.
<mgrwt>
<rscale>  0 0.17997388E+03</rscale>
<asrwt>0</asrwt>
<pdfrwt beam="1">  1        2 0.48615617E-01 0.17997388E+03</pdfrwt>
<pdfrwt beam="2">  1       -2 0.39423616E-02 0.17997388E+03</pdfrwt>
<totfact> 0.27734872E+04</totfact>
</mgrwt>
</event>
<event>
 4    1  0.6086918E-004  0.2402564E+03  0.7818608E-02  0.1119622E+00
         -2   -1    0    0    0  501 -0.00000000000E+00  0.00000000000E+00  0.73612789378E+01  0.73612793795E+01  0.25500000000E-02 0. -1.
          2   -1    0    0  501    0  0.00000000000E+00 -0.00000000000E+00 -0.19603630911E+04  0.19603630911E+04  0.25500000000E-02 0.  1.
    5000001    1    1    2    0    0 -0.11374284005E+02  0.89314037376E+02 -0.11393601034E+04  0.11455028664E+04  0.77000000000E+02 0.  0.
   -5000001    1    1    2    0    0  0.11374284005E+02 -0.89314037376E+02 -0.81364170875E+03  0.82222150411E+03  0.77000000000E+02 0.  0.
<mgrwt>
<rscale>  0 0.24025636E+03</rscale>
<asrwt>0</asrwt>
<pdfrwt beam="1">  1        2 0.30159391E+00 0.24025636E+03</pdfrwt>
<pdfrwt beam="2">  1       -2 0.11325060E-02 0.24025636E+03</pdfrwt>
<totfact> 0.13817708E+04</totfact>
</mgrwt>
</event>
<event>
 4    1  0.6086918E-004  0.1685851E+03  0.7818608E-02  0.1179331E+00
          2   -1    0    0  501    0  0.00000000000E+00  0.00000000000E+00  0.12251149782E+04  0.12251149782E+04  0.25500000000E-02 0.  1.
         -2   -1    0    0    0  501 -0.00000000000E+00 -0.00000000000E+00 -0.57996496088E+01  0.57996501694E+01  0.25500000000E-02 0. -1.
    5000001    1    1    2    0    0  0.33781003632E+02  0.52716270431E+01  0.62937384532E+03  0.63498770337E+03  0.77000000000E+02 0.  0.
   -5000001    1    1    2    0    0 -0.33781003632E+02 -0.52716270431E+01  0.58994148324E+03  0.59592692497E+03  0.77000000000E+02 0.  0.
<mgrwt>
<rscale>  0 0.16858515E+03</rscale>
<asrwt>0</asrwt>
<pdfrwt beam="1">  1        2 0.18847925E+00 0.16858515E+03</pdfrwt>
<pdfrwt beam="2">  1       -2 0.89225373E-03 0.16858515E+03</pdfrwt>
<totfact> 0.46872278E+04</totfact>
</mgrwt>
</event>
<event>
 4    1  0.6086918E-004  0.2030904E+03  0.7818608E-02  0.1147158E+00
          2   -1    0    0  501    0  0.00000000000E+00  0.00000000000E+00  0.20167940981E+03  0.20167940983E+03  0.25500000000E-02 0.  1.
         -2   -1    0    0    0  501 -0.00000000000E+00 -0.00000000000E+00 -0.51127806484E+02  0.51127806548E+02  0.25500000000E-02 0. -1.
    5000001    1    1    2    0    0 -0.52137042816E+02 -0.39040400408E+02  0.60547019449E+02  0.11763233255E+03  0.77000000000E+02 0.  0.
   -5000001    1    1    2    0    0  0.52137042816E+02  0.39040400408E+02  0.90004583881E+02  0.13517488383E+03  0.77000000000E+02 0.  0.
<mgrwt>
<rscale>  0 0.20309038E+03</rscale>
<asrwt>0</asrwt>
<pdfrwt beam="1">  1        2 0.31027601E-01 0.20309038E+03</pdfrwt>
<pdfrwt beam="2">  1       -2 0.78658165E-02 0.20309038E+03</pdfrwt>
<totfact> 0.15867427E+04</totfact>
</mgrwt>
</event>
<event>
 4    1  0.6086918E-004  0.3633516E+03  0.7818608E-02  0.1057265E+00
          2   -1    0    0  501    0  0.00000000000E+00  0.00000000000E+00  0.15897360019E+04  0.15897360019E+04  0.25500000000E-02 0. -1.
         -2   -1    0    0    0  501 -0.00000000000E+00 -0.00000000000E+00 -0.20761993052E+02  0.20761993208E+02  0.25500000000E-02 0.  1.
    5000001    1    1    2    0    0  0.73012889645E+02 -0.13974398533E+03  0.99322271342E+03  0.10086028068E+04  0.77000000000E+02 0.  0.
   -5000001    1    1    2    0    0 -0.73012889645E+02  0.13974398533E+03  0.57575129543E+03  0.60189518829E+03  0.77000000000E+02 0.  0.
<mgrwt>
<rscale>  0 0.36335155E+03</rscale>
<asrwt>0</asrwt>
<pdfrwt beam="1">  1        2 0.24457476E+00 0.36335155E+03</pdfrwt>
<pdfrwt beam="2">  1       -2 0.31941529E-02 0.36335155E+03</pdfrwt>
<totfact> 0.47196939E+03</totfact>
</mgrwt>
</event>
<event>
 4    1  0.6086918E-004  0.4436667E+03  0.7818608E-02  0.1029628E+00
          2   -1    0    0  501    0  0.00000000000E+00  0.00000000000E+00  0.15021254182E+04  0.15021254182E+04  0.25500000000E-02 0.  1.
         -2   -1    0    0    0  501 -0.00000000000E+00 -0.00000000000E+00 -0.32760264285E+02  0.32760264385E+02  0.25500000000E-02 0. -1.
    5000001    1    1    2    0    0  0.15902107633E+03 -0.97382661071E+01  0.27184625849E+03  0.32436387715E+03  0.77000000000E+02 0.  0.
   -5000001    1    1    2    0    0 -0.15902107633E+03  0.97382661071E+01  0.11975188954E+04  0.12105218054E+04  0.77000000000E+02 0.  0.
<mgrwt>
<rscale>  0 0.44366666E+03</rscale>
<asrwt>0</asrwt>
<pdfrwt beam="1">  1        2 0.23109620E+00 0.44366666E+03</pdfrwt>
<pdfrwt beam="2">  1       -2 0.50400412E-02 0.44366666E+03</pdfrwt>
<totfact> 0.26273161E+03</totfact>
</mgrwt>
</event>
<event>
 4    1  0.6086918E-004  0.2693059E+03  0.7818608E-02  0.1101677E+00
          2   -1    0    0  501    0  0.00000000000E+00  0.00000000000E+00  0.22662202246E+04  0.22662202246E+04  0.25500000000E-02 0.  1.
         -2   -1    0    0    0  501 -0.00000000000E+00 -0.00000000000E+00 -0.80007318962E+01  0.80007323026E+01  0.25500000000E-02 0. -1.
    5000001    1    1    2    0    0  0.52300562015E+01 -0.10831126012E+03  0.95122028488E+03  0.96047265080E+03  0.77000000000E+02 0.  0.
   -5000001    1    1    2    0    0 -0.52300562015E+01  0.10831126012E+03  0.13069992078E+04  0.13137483061E+04  0.77000000000E+02 0.  0.
<mgrwt>
<rscale>  0 0.26930593E+03</rscale>
<asrwt>0</asrwt>
<pdfrwt beam="1">  1        2 0.34864992E+00 0.26930593E+03</pdfrwt>
<pdfrwt beam="2">  1       -2 0.12308796E-02 0.26930593E+03</pdfrwt>
<totfact> 0.84545249E+03</totfact>
</mgrwt>
</event>
<event>
 4    1  0.6086918E-004  0.1794559E+03  0.7818608E-02  0.1168331E+00
          2   -1    0    0  501    0  0.00000000000E+00  0.00000000000E+00  0.76917787118E+03  0.76917787119E+03  0.25500000000E-02 0.  1.
         -2   -1    0    0    0  501 -0.00000000000E+00 -0.00000000000E+00 -0.10467151087E+02  0.10467151398E+02  0.25500000000E-02 0. -1.
    5000001    1    1    2    0    0  0.22346674488E+02  0.39978326246E+02  0.40084225034E+03  0.41073245560E+03  0.77000000000E+02 0.  0.
   -5000001    1    1    2    0    0 -0.22346674488E+02 -0.39978326246E+02  0.35786846975E+03  0.36891256698E+03  0.77000000000E+02 0.  0.
<mgrwt>
<rscale>  0 0.17945586E+03</rscale>
<asrwt>0</asrwt>
<pdfrwt beam="1">  1        2 0.11833510E+00 0.17945586E+03</pdfrwt>
<pdfrwt beam="2">  1       -2 0.16103304E-02 0.17945586E+03</pdfrwt>
<totfact> 0.38184647E+04</totfact>
</mgrwt>
</event>
<event>
 4    1  0.6086918E-004  0.4230271E+03  0.7818608E-02  0.1036086E+00
         -2   -1    0    0    0  501 -0.00000000000E+00  0.00000000000E+00  0.47684475119E+02  0.47684475187E+02  0.25500000000E-02 0. -1.
          2   -1    0    0  501    0  0.00000000000E+00 -0.00000000000E+00 -0.93820853552E+03  0.93820853552E+03  0.25500000000E-02 0.  1.
    5000001    1    1    2    0    0  0.12517041552E+03 -0.93480731513E+01 -0.91399655789E+02  0.17331450162E+03  0.77000000000E+02 0.  0.
   -5000001    1    1    2    0    0 -0.12517041552E+03  0.93480731513E+01 -0.79912440461E+03  0.81257850909E+03  0.77000000000E+02 0.  0.
<mgrwt>
<rscale>  0 0.42302710E+03</rscale>
<asrwt>0</asrwt>
<pdfrwt beam="1">  1        2 0.14433976E+00 0.42302710E+03</pdfrwt>
<pdfrwt beam="2">  1       -2 0.73360738E-02 0.42302710E+03</pdfrwt>
<totfact> 0.31215823E+03</totfact>
</mgrwt>
</event>
<event>
 4    1  0.6086918E-004  0.3243115E+03  0.7818608E-02  0.1073682E+00
          2   -1    0    0  501    0  0.00000000000E+00  0.00000000000E+00  0.15865077353E+03  0.15865077355E+03  0.25500000000E-02 0.  1.
         -2   -1    0    0    0  501 -0.00000000000E+00 -0.00000000000E+00 -0.16573812430E+03  0.16573812432E+03  0.25500000000E-02 0. -1.
    5000001    1    1    2    0    0  0.11417202387E+03  0.84238579132E+02  0.11760055509E+02  0.16186008820E+03  0.77000000000E+02 0.  0.
   -5000001    1    1    2    0    0 -0.11417202387E+03 -0.84238579132E+02 -0.18847406285E+02  0.16252880967E+03  0.77000000000E+02 0.  0.
<mgrwt>
<rscale>  0 0.32431147E+03</rscale>
<asrwt>0</asrwt>
<pdfrwt beam="1">  1        2 0.24407811E-01 0.32431147E+03</pdfrwt>
<pdfrwt beam="2">  1       -2 0.25498173E-01 0.32431147E+03</pdfrwt>
<totfact> 0.30384063E+03</totfact>
</mgrwt>
</event>
<event>
 4    1  0.6086918E-004  0.3834549E+03  0.7818608E-02  0.1049664E+00
          2   -1    0    0  501    0  0.00000000000E+00  0.00000000000E+00  0.51920152714E+02  0.51920152777E+02  0.25500000000E-02 0.  1.
         -2   -1    0    0    0  501 -0.00000000000E+00 -0.00000000000E+00 -0.70799909893E+03  0.70799909893E+03  0.25500000000E-02 0. -1.
    5000001    1    1    2    0    0  0.90308097045E+02  0.11714812958E+03 -0.51553606481E+03  0.54183546467E+03  0.77000000000E+02 0.  0.
   -5000001    1    1    2    0    0 -0.90308097045E+02 -0.11714812958E+03 -0.14054288141E+03  0.21808378704E+03  0.77000000000E+02 0.  0.
<mgrwt>
<rscale>  0 0.38345493E+03</rscale>
<asrwt>0</asrwt>
<pdfrwt beam="1">  1        2 0.79877163E-02 0.38345493E+03</pdfrwt>
<pdfrwt beam="2">  1       -2 0.10892293E+00 0.38345493E+03</pdfrwt>
<totfact> 0.60065169E+02</totfact>
</mgrwt>
</event>
<event>
 4    1  0.6086918E-004  0.1896298E+03  0.7818608E-02  0.1158796E+00
         -2   -1    0    0    0  501 -0.00000000000E+00  0.00000000000E+00  0.12443598780E+02  0.12443599041E+02  0.25500000000E-02 0. -1.
          2   -1    0    0  501    0  0.00000000000E+00 -0.00000000000E+00 -0.72244886108E+03  0.72244886109E+03  0.25500000000E-02 0.  1.
    5000001    1    1    2    0    0  0.11663622972E+02 -0.80019171595E+01 -0.56228409263E+03  0.56770808661E+03  0.77000000000E+02 0.  0.
   -5000001    1    1    2    0    0 -0.11663622972E+02  0.80019171595E+01 -0.14772116967E+03  0.16718437352E+03  0.77000000000E+02 0.  0.
<mgrwt>
<rscale>  0 0.18962979E+03</rscale>
<asrwt>0</asrwt>
<pdfrwt beam="1">  1        2 0.11114595E+00 0.18962979E+03</pdfrwt>
<pdfrwt beam="2">  1       -2 0.19144004E-02 0.18962979E+03</pdfrwt>
<totfact> 0.32197107E+04</totfact>
</mgrwt>
</event>
<event>
 4    1  0.6086918E-004  0.2072898E+03  0.7818608E-02  0.1143730E+00
         -2   -1    0    0    0  501 -0.00000000000E+00  0.00000000000E+00  0.22787528086E+03  0.22787528087E+03  0.25500000000E-02 0. -1.
          2   -1    0    0  501    0  0.00000000000E+00 -0.00000000000E+00 -0.47140987794E+02  0.47140987863E+02  0.25500000000E-02 0.  1.
    5000001    1    1    2    0    0 -0.27129500035E+02  0.61643891687E+02  0.11245965112E+03  0.15202681436E+03  0.77000000000E+02 0.  0.
   -5000001    1    1    2    0    0  0.27129500035E+02 -0.61643891687E+02  0.68274641940E+02  0.12298945437E+03  0.77000000000E+02 0.  0.
<mgrwt>
<rscale>  0 0.20728981E+03</rscale>
<asrwt>0</asrwt>
<pdfrwt beam="1">  1        2 0.72524597E-02 0.20728981E+03</pdfrwt>
<pdfrwt beam="2">  1       -2 0.35057736E-01 0.20728981E+03</pdfrwt>
<totfact> 0.72003854E+03</totfact>
</mgrwt>
</event>
<event>
 4    1  0.6086918E-004  0.3046088E+03  0.7818608E-02  0.1082959E+00
          2   -1    0    0  501    0  0.00000000000E+00  0.00000000000E+00  0.18189303856E+04  0.18189303856E+04  0.25500000000E-02 0.  1.
         -2   -1    0    0    0  501 -0.00000000000E+00 -0.00000000000E+00 -0.12752899774E+02  0.12752900029E+02  0.25500000000E-02 0. -1.
    5000001    1    1    2    0    0 -0.10790745880E+03 -0.74617169161E+02  0.94804565286E+03  0.96017253736E+03  0.77000000000E+02 0.  0.
   -5000001    1    1    2    0    0  0.10790745880E+03  0.74617169161E+02  0.85813183293E+03  0.87151074824E+03  0.77000000000E+02 0.  0.
<mgrwt>
<rscale>  0 0.30460885E+03</rscale>
<asrwt>0</asrwt>
<pdfrwt beam="1">  1        2 0.27983542E+00 0.30460885E+03</pdfrwt>
<pdfrwt beam="2">  1       -2 0.19619847E-02 0.30460885E+03</pdfrwt>
<totfact> 0.73640575E+03</totfact>
</mgrwt>
</event>
<event>
 4    1  0.6086918E-004  0.2289206E+03  0.7818608E-02  0.1127402E+00
         -2   -1    0    0    0  501 -0.00000000000E+00  0.00000000000E+00  0.69037950451E+03  0.69037950451E+03  0.25500000000E-02 0. -1.
          2   -1    0    0  501    0  0.00000000000E+00 -0.00000000000E+00 -0.18976745506E+02  0.18976745677E+02  0.25500000000E-02 0.  1.
    5000001    1    1    2    0    0 -0.39580603460E+02  0.24279637212E+01  0.10382338778E+03  0.13520656430E+03  0.77000000000E+02 0.  0.
   -5000001    1    1    2    0    0  0.39580603460E+02 -0.24279637212E+01  0.56757937122E+03  0.57414968589E+03  0.77000000000E+02 0.  0.
<mgrwt>
<rscale>  0 0.22892056E+03</rscale>
<asrwt>0</asrwt>
<pdfrwt beam="1">  1        2 0.29194997E-02 0.22892056E+03</pdfrwt>
<pdfrwt beam="2">  1       -2 0.10621222E+00 0.22892056E+03</pdfrwt>
<totfact> 0.23949409E+03</totfact>
</mgrwt>
</event>
<event>
 4    1  0.6086918E-004  0.3140427E+03  0.7818608E-02  0.1078424E+00
         -2   -1    0    0    0  501 -0.00000000000E+00  0.00000000000E+00  0.14113459998E+03  0.14113460000E+03  0.25500000000E-02 0. -1.
          2   -1    0    0  501    0  0.00000000000E+00 -0.00000000000E+00 -0.17469641185E+03  0.17469641187E+03  0.25500000000E-02 0.  1.
    5000001    1    1    2    0    0  0.17645983823E+02 -0.12653271430E+03 -0.66098909494E+02  0.16315628817E+03  0.77000000000E+02 0.  0.
   -5000001    1    1    2    0    0 -0.17645983823E+02  0.12653271430E+03  0.32537097624E+02  0.15267472370E+03  0.77000000000E+02 0.  0.
<mgrwt>
<rscale>  0 0.31404272E+03</rscale>
<asrwt>0</asrwt>
<pdfrwt beam="1">  1        2 0.26876371E-01 0.31404272E+03</pdfrwt>
<pdfrwt beam="2">  1       -2 0.21713015E-01 0.31404272E+03</pdfrwt>
<totfact> 0.36135810E+03</totfact>
</mgrwt>
</event>
<event>
 4    1  0.6086918E-004  0.3326788E+03  0.7818608E-02  0.1069958E+00
          2   -1    0    0  501    0  0.00000000000E+00  0.00000000000E+00  0.57539491584E+02  0.57539491641E+02  0.25500000000E-02 0.  1.
         -2   -1    0    0    0  501 -0.00000000000E+00 -0.00000000000E+00 -0.48086627547E+03  0.48086627548E+03  0.25500000000E-02 0. -1.
    5000001    1    1    2    0    0  0.89130018480E+02 -0.11581976839E+03 -0.24327069604E+03  0.29405443457E+03  0.77000000000E+02 0.  0.
   -5000001    1    1    2    0    0 -0.89130018480E+02  0.11581976839E+03 -0.18005608785E+03  0.24435133254E+03  0.77000000000E+02 0.  0.
<mgrwt>
<rscale>  0 0.33267883E+03</rscale>
<asrwt>0</asrwt>
<pdfrwt beam="1">  1        2 0.88522298E-02 0.33267883E+03</pdfrwt>
<pdfrwt beam="2">  1       -2 0.73979424E-01 0.33267883E+03</pdfrwt>
<totfact> 0.12700393E+03</totfact>
</mgrwt>
</event>
<event>
 4    1  0.6086918E-004  0.1643382E+03  0.7818608E-02  0.1183884E+00
          2   -1    0    0  501    0  0.00000000000E+00  0.00000000000E+00  0.24459662240E+04  0.24459662240E+04  0.25500000000E-02 0.  1.
         -2   -1    0    0    0  501 -0.00000000000E+00 -0.00000000000E+00 -0.27603653279E+01  0.27603665057E+01  0.25500000000E-02 0. -1.
    5000001    1    1    2    0    0 -0.71900515884E+01  0.22227915682E+02  0.97361550689E+03  0.97693496832E+03  0.77000000000E+02 0.  0.
   -5000001    1    1    2    0    0  0.71900515884E+01 -0.22227915682E+02  0.14695903518E+04  0.14717916222E+04  0.77000000000E+02 0.  0.
<mgrwt>
<rscale>  0 0.16433821E+03</rscale>
<asrwt>0</asrwt>
<pdfrwt beam="1">  1        2 0.37630243E+00 0.16433821E+03</pdfrwt>
<pdfrwt beam="2">  1       -2 0.42467176E-03 0.16433821E+03</pdfrwt>
<totfact> 0.30906308E+04</totfact>
</mgrwt>
</event>
<event>
 4    1  0.6086918E-004  0.2425545E+03  0.7818608E-02  0.1118103E+00
          2   -1    0    0  501    0  0.00000000000E+00  0.00000000000E+00  0.98305183198E+03  0.98305183198E+03  0.25500000000E-02 0.  1.
         -2   -1    0    0    0  501 -0.00000000000E+00 -0.00000000000E+00 -0.14961743977E+02  0.14961744195E+02  0.25500000000E-02 0. -1.
    5000001    1    1    2    0    0 -0.81955961753E+02  0.95518601917E+01  0.30136663627E+03  0.32180563568E+03  0.77000000000E+02 0.  0.
   -5000001    1    1    2    0    0  0.81955961753E+02 -0.95518601917E+01  0.66672345173E+03  0.67620794050E+03  0.77000000000E+02 0.  0.
<mgrwt>
<rscale>  0 0.24255449E+03</rscale>
<asrwt>0</asrwt>
<pdfrwt beam="1">  1        2 0.15123877E+00 0.24255449E+03</pdfrwt>
<pdfrwt beam="2">  1       -2 0.23018064E-02 0.24255449E+03</pdfrwt>
<totfact> 0.16743014E+04</totfact>
</mgrwt>
</event>
<event>
 4    1  0.6086918E-004  0.1949664E+03  0.7818608E-02  0.1154057E+00
          2   -1    0    0  501    0  0.00000000000E+00  0.00000000000E+00  0.17762812286E+03  0.17762812288E+03  0.25500000000E-02 0.  1.
         -2   -1    0    0    0  501 -0.00000000000E+00 -0.00000000000E+00 -0.53499255236E+02  0.53499255297E+02  0.25500000000E-02 0. -1.
    5000001    1    1    2    0    0 -0.25484344098E+01  0.58324634957E+02  0.77325055384E+02  0.12375953196E+03  0.77000000000E+02 0.  0.
   -5000001    1    1    2    0    0  0.25484344098E+01 -0.58324634957E+02  0.46803812241E+02  0.10736784622E+03  0.77000000000E+02 0.  0.
<mgrwt>
<rscale>  0 0.19496638E+03</rscale>
<asrwt>0</asrwt>
<pdfrwt beam="1">  1        2 0.27327404E-01 0.19496638E+03</pdfrwt>
<pdfrwt beam="2">  1       -2 0.82306545E-02 0.19496638E+03</pdfrwt>
<totfact> 0.16942586E+04</totfact>
</mgrwt>
</event>
<event>
 4    1  0.6086918E-004  0.2230158E+03  0.7818608E-02  0.1131654E+00
         -2   -1    0    0    0  501 -0.00000000000E+00  0.00000000000E+00  0.59735465029E+01  0.59735470472E+01  0.25500000000E-02 0. -1.
          2   -1    0    0  501    0  0.00000000000E+00 -0.00000000000E+00 -0.20815128246E+04  0.20815128246E+04  0.25500000000E-02 0.  1.
    5000001    1    1    2    0    0 -0.73725876314E+02 -0.29427551972E+02 -0.90423293142E+03  0.91097073494E+03  0.77000000000E+02 0.  0.
   -5000001    1    1    2    0    0  0.73725876314E+02  0.29427551972E+02 -0.11713063467E+04  0.11765156367E+04  0.77000000000E+02 0.  0.
<mgrwt>
<rscale>  0 0.22301582E+03</rscale>
<asrwt>0</asrwt>
<pdfrwt beam="1">  1        2 0.32023216E+00 0.22301582E+03</pdfrwt>
<pdfrwt beam="2">  1       -2 0.91900886E-03 0.22301582E+03</pdfrwt>
<totfact> 0.16125883E+04</totfact>
</mgrwt>
</event>
<event>
 4    1  0.6086918E-004  0.3551929E+03  0.7818608E-02  0.1060504E+00
          2   -1    0    0  501    0  0.00000000000E+00  0.00000000000E+00  0.98068563482E+03  0.98068563483E+03  0.25500000000E-02 0.  1.
         -2   -1    0    0    0  501 -0.00000000000E+00 -0.00000000000E+00 -0.32161687926E+02  0.32161688027E+02  0.25500000000E-02 0. -1.
    5000001    1    1    2    0    0 -0.38980274429E+02  0.11442773305E+03  0.77331154619E+03  0.78648135093E+03  0.77000000000E+02 0.  0.
   -5000001    1    1    2    0    0  0.38980274429E+02 -0.11442773305E+03  0.17521240071E+03  0.22636597193E+03  0.77000000000E+02 0.  0.
<mgrwt>
<rscale>  0 0.35519294E+03</rscale>
<asrwt>0</asrwt>
<pdfrwt beam="1">  1        2 0.15087471E+00 0.35519294E+03</pdfrwt>
<pdfrwt beam="2">  1       -2 0.49479522E-02 0.35519294E+03</pdfrwt>
<totfact> 0.53927001E+03</totfact>
</mgrwt>
</event>
<event>
 4    1  0.6086918E-004  0.7375529E+03  0.7818608E-02  0.9655083E-01
         -2   -1    0    0    0  501 -0.00000000000E+00  0.00000000000E+00  0.45091073930E+02  0.45091074003E+02  0.25500000000E-02 0. -1.
          2   -1    0    0  501    0  0.00000000000E+00 -0.00000000000E+00 -0.30160308131E+04  0.30160308131E+04  0.25500000000E-02 0.  1.
    5000001    1    1    2    0    0  0.69835571629E+02 -0.34865068408E+03 -0.17356229860E+04  0.17733444268E+04  0.77000000000E+02 0.  0.
   -5000001    1    1    2    0    0 -0.69835571629E+02  0.34865068408E+03 -0.12353167531E+04  0.12877774603E+04  0.77000000000E+02 0.  0.
<mgrwt>
<rscale>  0 0.73755290E+03</rscale>
<asrwt>0</asrwt>
<pdfrwt beam="1">  1        2 0.46400458E+00 0.73755290E+03</pdfrwt>
<pdfrwt beam="2">  1       -2 0.69370907E-02 0.73755290E+03</pdfrwt>
<totfact> 0.22212647E+02</totfact>
</mgrwt>
</event>
<event>
 4    1  0.6086918E-004  0.4790665E+03  0.7818608E-02  0.1019392E+00
          2   -1    0    0  501    0  0.00000000000E+00  0.00000000000E+00  0.12807199148E+03  0.12807199150E+03  0.25500000000E-02 0.  1.
         -2   -1    0    0    0  501 -0.00000000000E+00 -0.00000000000E+00 -0.44799934612E+03  0.44799934612E+03  0.25500000000E-02 0. -1.
    5000001    1    1    2    0    0  0.16154700351E+03 -0.60326033223E+02  0.17216630284E+02  0.18963669736E+03  0.77000000000E+02 0.  0.
   -5000001    1    1    2    0    0 -0.16154700351E+03  0.60326033223E+02 -0.33714398492E+03  0.38643464027E+03  0.77000000000E+02 0.  0.
<mgrwt>
<rscale>  0 0.47906646E+03</rscale>
<asrwt>0</asrwt>
<pdfrwt beam="1">  1        2 0.19703384E-01 0.47906646E+03</pdfrwt>
<pdfrwt beam="2">  1       -2 0.68922975E-01 0.47906646E+03</pdfrwt>
<totfact> 0.56029607E+02</totfact>
</mgrwt>
</event>
<event>
 4    1  0.6086918E-004  0.2128623E+03  0.7818608E-02  0.1139319E+00
         -2   -1    0    0    0  501 -0.00000000000E+00  0.00000000000E+00  0.93019699636E+02  0.93019699671E+02  0.25500000000E-02 0. -1.
          2   -1    0    0  501    0  0.00000000000E+00 -0.00000000000E+00 -0.12177618837E+03  0.12177618840E+03  0.25500000000E-02 0.  1.
    5000001    1    1    2    0    0  0.38805723334E+02  0.40658270646E+02 -0.62132607724E+02  0.11379121266E+03  0.77000000000E+02 0.  0.
   -5000001    1    1    2    0    0 -0.38805723334E+02 -0.40658270646E+02  0.33376118992E+02  0.10100467541E+03  0.77000000000E+02 0.  0.
<mgrwt>
<rscale>  0 0.21286225E+03</rscale>
<asrwt>0</asrwt>
<pdfrwt beam="1">  1        2 0.18734798E-01 0.21286225E+03</pdfrwt>
<pdfrwt beam="2">  1       -2 0.14310723E-01 0.21286225E+03</pdfrwt>
<totfact> 0.10783843E+04</totfact>
</mgrwt>
</event>
<event>
 4    1  0.6086918E-004  0.2277827E+03  0.7818608E-02  0.1128210E+00
          2   -1    0    0  501    0  0.00000000000E+00  0.00000000000E+00  0.16896655330E+03  0.16896655332E+03  0.25500000000E-02 0.  1.
         -2   -1    0    0    0  501 -0.00000000000E+00 -0.00000000000E+00 -0.76768063756E+02  0.76768063798E+02  0.25500000000E-02 0. -1.
    5000001    1    1    2    0    0  0.18011175039E+02  0.31447923212E+02  0.12775368679E+03  0.15350367680E+03  0.77000000000E+02 0.  0.
   -5000001    1    1    2    0    0 -0.18011175039E+02 -0.31447923212E+02 -0.35555197251E+02  0.92230940320E+02  0.77000000000E+02 0.  0.
<mgrwt>
<rscale>  0 0.22778266E+03</rscale>
<asrwt>0</asrwt>
<pdfrwt beam="1">  1        2 0.25994854E-01 0.22778266E+03</pdfrwt>
<pdfrwt beam="2">  1       -2 0.11810471E-01 0.22778266E+03</pdfrwt>
<totfact> 0.10216336E+04</totfact>
</mgrwt>
</event>
<event>
 4    1  0.6086918E-004  0.2918072E+03  0.7818608E-02  0.1089409E+00
          2   -1    0    0  501    0  0.00000000000E+00  0.00000000000E+00  0.58244477721E+03  0.58244477722E+03  0.25500000000E-02 0.  1.
         -2   -1    0    0    0  501 -0.00000000000E+00 -0.00000000000E+00 -0.36549152910E+02  0.36549152999E+02  0.25500000000E-02 0. -1.
    5000001    1    1    2    0    0  0.67925226399E+02  0.93391807405E+02  0.17753910791E+03  0.22535527708E+03  0.77000000000E+02 0.  0.
   -5000001    1    1    2    0    0 -0.67925226399E+02 -0.93391807405E+02  0.36835651640E+03  0.39363865314E+03  0.77000000000E+02 0.  0.
<mgrwt>
<rscale>  0 0.29180722E+03</rscale>
<asrwt>0</asrwt>
<pdfrwt beam="1">  1        2 0.89606886E-01 0.29180722E+03</pdfrwt>
<pdfrwt beam="2">  1       -2 0.56229468E-02 0.29180722E+03</pdfrwt>
<totfact> 0.85271540E+03</totfact>
</mgrwt>
</event>
<event>
 4    1  0.6086918E-004  0.3469387E+03  0.7818608E-02  0.1063879E+00
         -2   -1    0    0    0  501 -0.00000000000E+00  0.00000000000E+00  0.23126336557E+02  0.23126336698E+02  0.25500000000E-02 0. -1.
          2   -1    0    0  501    0  0.00000000000E+00 -0.00000000000E+00 -0.13011841382E+04  0.13011841382E+04  0.25500000000E-02 0.  1.
    5000001    1    1    2    0    0 -0.98711868897E+02 -0.90309652638E+02 -0.33695043854E+03  0.37062712321E+03  0.77000000000E+02 0.  0.
   -5000001    1    1    2    0    0  0.98711868897E+02  0.90309652638E+02 -0.94110736314E+03  0.95368335173E+03  0.77000000000E+02 0.  0.
<mgrwt>
<rscale>  0 0.34693874E+03</rscale>
<asrwt>0</asrwt>
<pdfrwt beam="1">  1        2 0.20018212E+00 0.34693874E+03</pdfrwt>
<pdfrwt beam="2">  1       -2 0.35578990E-02 0.34693874E+03</pdfrwt>
<totfact> 0.57658635E+03</totfact>
</mgrwt>
</event>
<event>
 4    1  0.6086918E-004  0.3939205E+03  0.7818608E-02  0.1045905E+00
          2   -1    0    0  501    0  0.00000000000E+00  0.00000000000E+00  0.22059113998E+03  0.22059114000E+03  0.25500000000E-02 0.  1.
         -2   -1    0    0    0  501 -0.00000000000E+00 -0.00000000000E+00 -0.17586084386E+03  0.17586084388E+03  0.25500000000E-02 0. -1.
    5000001    1    1    2    0    0  0.70997843965E+02 -0.16274301881E+03 -0.14453553364E+02  0.19407186613E+03  0.77000000000E+02 0.  0.
   -5000001    1    1    2    0    0 -0.70997843965E+02  0.16274301881E+03  0.59183849489E+02  0.20238011775E+03  0.77000000000E+02 0.  0.
<mgrwt>
<rscale>  0 0.39392052E+03</rscale>
<asrwt>0</asrwt>
<pdfrwt beam="1">  1        2 0.33937098E-01 0.39392052E+03</pdfrwt>
<pdfrwt beam="2">  1       -2 0.27055514E-01 0.39392052E+03</pdfrwt>
<totfact> 0.19005211E+03</totfact>
</mgrwt>
</event>
<event>
 4    1  0.6086918E-004  0.3186342E+03  0.7818608E-02  0.1076280E+00
          2   -1    0    0  501    0  0.00000000000E+00  0.00000000000E+00  0.47688444493E+03  0.47688444494E+03  0.25500000000E-02 0.  1.
         -2   -1    0    0    0  501 -0.00000000000E+00 -0.00000000000E+00 -0.53224517880E+02  0.53224517941E+02  0.25500000000E-02 0. -1.
    5000001    1    1    2    0    0 -0.10715988099E+03 -0.12875197908E+02  0.64859692476E+02  0.14759671583E+03  0.77000000000E+02 0.  0.
   -5000001    1    1    2    0    0  0.10715988099E+03  0.12875197908E+02  0.35880023458E+03  0.38251224706E+03  0.77000000000E+02 0.  0.
<mgrwt>
<rscale>  0 0.31863424E+03</rscale>
<asrwt>0</asrwt>
<pdfrwt beam="1">  1        2 0.73366835E-01 0.31863424E+03</pdfrwt>
<pdfrwt beam="2">  1       -2 0.81883876E-02 0.31863424E+03</pdfrwt>
<totfact> 0.59899312E+03</totfact>
</mgrwt>
</event>
<event>
 4    1  0.6086918E-004  0.3301929E+03  0.7818608E-02  0.1071052E+00
          2   -1    0    0  501    0  0.00000000000E+00  0.00000000000E+00  0.46629897515E+03  0.46629897515E+03  0.25500000000E-02 0.  1.
         -2   -1    0    0    0  501 -0.00000000000E+00 -0.00000000000E+00 -0.58453555751E+02  0.58453555806E+02  0.25500000000E-02 0. -1.
    5000001    1    1    2    0    0 -0.41866932642E+02  0.13951993430E+03  0.22052853496E+03  0.27528255819E+03  0.77000000000E+02 0.  0.
   -5000001    1    1    2    0    0  0.41866932642E+02 -0.13951993430E+03  0.18731688444E+03  0.24946997277E+03  0.77000000000E+02 0.  0.
<mgrwt>
<rscale>  0 0.33019287E+03</rscale>
<asrwt>0</asrwt>
<pdfrwt beam="1">  1        2 0.71738306E-01 0.33019287E+03</pdfrwt>
<pdfrwt beam="2">  1       -2 0.89928545E-02 0.33019287E+03</pdfrwt>
<totfact> 0.53030316E+03</totfact>
</mgrwt>
</event>
<event>
 4    1  0.6086918E-004  0.5910670E+03  0.7818608E-02  0.9924114E-01
         -2   -1    0    0    0  501 -0.00000000000E+00  0.00000000000E+00  0.70089163022E+02  0.70089163068E+02  0.25500000000E-02 0. -1.
          2   -1    0    0  501    0  0.00000000000E+00 -0.00000000000E+00 -0.12461279063E+04  0.12461279063E+04  0.25500000000E-02 0.  1.
    5000001    1    1    2    0    0  0.24572405971E+03  0.14473302266E+03 -0.60831922710E+03  0.67624643691E+03  0.77000000000E+02 0.  0.
   -5000001    1    1    2    0    0 -0.24572405971E+03 -0.14473302266E+03 -0.56771951619E+03  0.63997063248E+03  0.77000000000E+02 0.  0.
<mgrwt>
<rscale>  0 0.59106704E+03</rscale>
<asrwt>0</asrwt>
<pdfrwt beam="1">  1        2 0.19171197E+00 0.59106704E+03</pdfrwt>
<pdfrwt beam="2">  1       -2 0.10782949E-01 0.59106704E+03</pdfrwt>
<totfact> 0.10929695E+03</totfact>
</mgrwt>
</event>
<event>
 4    1  0.6086918E-004  0.7515494E+03  0.7818608E-02  0.9632923E-01
          2   -1    0    0  501    0  0.00000000000E+00  0.00000000000E+00  0.74421379051E+03  0.74421379051E+03  0.25500000000E-02 0.  1.
         -2   -1    0    0    0  501 -0.00000000000E+00 -0.00000000000E+00 -0.18973933316E+03  0.18973933318E+03  0.25500000000E-02 0. -1.
    5000001    1    1    2    0    0  0.31112721415E+03 -0.18561687204E+03  0.35606678256E+03  0.51377652751E+03  0.77000000000E+02 0.  0.
   -5000001    1    1    2    0    0 -0.31112721415E+03  0.18561687204E+03  0.19840767478E+03  0.42017659619E+03  0.77000000000E+02 0.  0.
<mgrwt>
<rscale>  0 0.75154941E+03</rscale>
<asrwt>0</asrwt>
<pdfrwt beam="1">  1        2 0.11449443E+00 0.75154941E+03</pdfrwt>
<pdfrwt beam="2">  1       -2 0.29190667E-01 0.75154941E+03</pdfrwt>
<totfact> 0.41086725E+02</totfact>
</mgrwt>
</event>
<event>
 4    1  0.6086918E-004  0.2678692E+03  0.7818608E-02  0.1102505E+00
         -2   -1    0    0    0  501 -0.00000000000E+00  0.00000000000E+00  0.31805539646E+02  0.31805539748E+02  0.25500000000E-02 0. -1.
          2   -1    0    0  501    0  0.00000000000E+00 -0.00000000000E+00 -0.56400484196E+03  0.56400484196E+03  0.25500000000E-02 0.  1.
    5000001    1    1    2    0    0 -0.99749648598E+02 -0.22528697116E+02 -0.17847561266E+03  0.21963624224E+03  0.77000000000E+02 0.  0.
   -5000001    1    1    2    0    0  0.99749648598E+02  0.22528697116E+02 -0.35372368965E+03  0.37617413948E+03  0.77000000000E+02 0.  0.
<mgrwt>
<rscale>  0 0.26786921E+03</rscale>
<asrwt>0</asrwt>
<pdfrwt beam="1">  1        2 0.86769968E-01 0.26786921E+03</pdfrwt>
<pdfrwt beam="2">  1       -2 0.48931604E-02 0.26786921E+03</pdfrwt>
<totfact> 0.10902810E+04</totfact>
</mgrwt>
</event>
<event>
 4    1  0.6086918E-004  0.1985819E+03  0.7818608E-02  0.1150941E+00
          2   -1    0    0  501    0  0.00000000000E+00  0.00000000000E+00  0.10483327866E+03  0.10483327869E+03  0.25500000000E-02 0.  1.
         -2   -1    0    0    0  501 -0.00000000000E+00 -0.00000000000E+00 -0.94041629788E+02  0.94041629823E+02  0.25500000000E-02 0. -1.
    5000001    1    1    2    0    0 -0.58789338738E+02  0.11686117865E+02 -0.12987204400E+02  0.98439926748E+02  0.77000000000E+02 0.  0.
   -5000001    1    1    2    0    0  0.58789338738E+02 -0.11686117865E+02  0.23778853275E+02  0.10043498177E+03  0.77000000000E+02 0.  0.
<mgrwt>
<rscale>  0 0.19858190E+03</rscale>
<asrwt>0</asrwt>
<pdfrwt beam="1">  1        2 0.16128197E-01 0.19858190E+03</pdfrwt>
<pdfrwt beam="2">  1       -2 0.14467943E-01 0.19858190E+03</pdfrwt>
<totfact> 0.12545295E+04</totfact>
</mgrwt>
</event>
<event>
 4    1  0.6086918E-004  0.2714666E+03  0.7818608E-02  0.1100443E+00
         -2   -1    0    0    0  501 -0.00000000000E+00  0.00000000000E+00  0.36092434908E+02  0.36092434998E+02  0.25500000000E-02 0. -1.
          2   -1    0    0  501    0  0.00000000000E+00 -0.00000000000E+00 -0.51045393448E+03  0.51045393449E+03  0.25500000000E-02 0.  1.
    5000001    1    1    2    0    0  0.10372101589E+03  0.29939562579E+02 -0.29553545149E+03  0.32392071504E+03  0.77000000000E+02 0.  0.
   -5000001    1    1    2    0    0 -0.10372101589E+03 -0.29939562579E+02 -0.17882604809E+03  0.22262565445E+03  0.77000000000E+02 0.  0.
<mgrwt>
<rscale>  0 0.27146658E+03</rscale>
<asrwt>0</asrwt>
<pdfrwt beam="1">  1        2 0.78531369E-01 0.27146658E+03</pdfrwt>
<pdfrwt beam="2">  1       -2 0.55526827E-02 0.27146658E+03</pdfrwt>
<totfact> 0.10075272E+04</totfact>
</mgrwt>
</event>
<event>
 4    1  0.6086918E-004  0.3245384E+03  0.7818608E-02  0.1073579E+00
          2   -1    0    0  501    0  0.00000000000E+00  0.00000000000E+00  0.24921864210E+03  0.24921864212E+03  0.25500000000E-02 0.  1.
         -2   -1    0    0    0  501 -0.00000000000E+00 -0.00000000000E+00 -0.10565536008E+03  0.10565536011E+03  0.25500000000E-02 0. -1.
    5000001    1    1    2    0    0  0.12160408312E+03  0.67202218062E+02  0.35538417569E+02  0.16277490675E+03  0.77000000000E+02 0.  0.
   -5000001    1    1    2    0    0 -0.12160408312E+03 -0.67202218062E+02  0.10802486446E+03  0.19209909548E+03  0.77000000000E+02 0.  0.
<mgrwt>
<rscale>  0 0.32453835E+03</rscale>
<asrwt>0</asrwt>
<pdfrwt beam="1">  1        2 0.38341330E-01 0.32453835E+03</pdfrwt>
<pdfrwt beam="2">  1       -2 0.16254671E-01 0.32453835E+03</pdfrwt>
<totfact> 0.40086908E+03</totfact>
</mgrwt>
</event>
<event>
 4    1  0.6086918E-004  0.2744255E+03  0.7818608E-02  0.1098773E+00
         -2   -1    0    0    0  501 -0.00000000000E+00  0.00000000000E+00  0.11541136800E+03  0.11541136803E+03  0.25500000000E-02 0. -1.
          2   -1    0    0  501    0  0.00000000000E+00 -0.00000000000E+00 -0.16313246595E+03  0.16313246597E+03  0.25500000000E-02 0.  1.
    5000001    1    1    2    0    0  0.85248166013E+02  0.15362468038E+02 -0.98414083477E+02  0.15204468771E+03  0.77000000000E+02 0.  0.
   -5000001    1    1    2    0    0 -0.85248166013E+02 -0.15362468038E+02  0.50692985528E+02  0.12649914630E+03  0.77000000000E+02 0.  0.
<mgrwt>
<rscale>  0 0.27442552E+03</rscale>
<asrwt>0</asrwt>
<pdfrwt beam="1">  1        2 0.25097302E-01 0.27442552E+03</pdfrwt>
<pdfrwt beam="2">  1       -2 0.17755595E-01 0.27442552E+03</pdfrwt>
<totfact> 0.54795819E+03</totfact>
</mgrwt>
</event>
<event>
 4    1  0.6086918E-004  0.4072724E+03  0.7818608E-02  0.1041290E+00
         -2   -1    0    0    0  501 -0.00000000000E+00  0.00000000000E+00  0.21456880676E+02  0.21456880827E+02  0.25500000000E-02 0. -1.
          2   -1    0    0  501    0  0.00000000000E+00 -0.00000000000E+00 -0.19326061195E+04  0.19326061195E+04  0.25500000000E-02 0.  1.
    5000001    1    1    2    0    0 -0.56382488442E+02 -0.17435301572E+03 -0.11680279757E+04  0.11848191048E+04  0.77000000000E+02 0.  0.
   -5000001    1    1    2    0    0  0.56382488442E+02  0.17435301572E+03 -0.74312126308E+03  0.76924389548E+03  0.77000000000E+02 0.  0.
<mgrwt>
<rscale>  0 0.40727239E+03</rscale>
<asrwt>0</asrwt>
<pdfrwt beam="1">  1        2 0.29732388E+00 0.40727239E+03</pdfrwt>
<pdfrwt beam="2">  1       -2 0.33010601E-02 0.40727239E+03</pdfrwt>
<totfact> 0.29449800E+03</totfact>
</mgrwt>
</event>
<event>
 4    1  0.6086918E-004  0.3171720E+03  0.7818608E-02  0.1076958E+00
         -2   -1    0    0    0  501 -0.00000000000E+00  0.00000000000E+00  0.36133771161E+02  0.36133771251E+02  0.25500000000E-02 0. -1.
          2   -1    0    0  501    0  0.00000000000E+00 -0.00000000000E+00 -0.69601166158E+03  0.69601166159E+03  0.25500000000E-02 0.  1.
    5000001    1    1    2    0    0 -0.12857969872E+03  0.31550887951E+02 -0.23497804641E+03  0.28048507937E+03  0.77000000000E+02 0.  0.
   -5000001    1    1    2    0    0  0.12857969872E+03 -0.31550887951E+02 -0.42489984402E+03  0.45166035347E+03  0.77000000000E+02 0.  0.
<mgrwt>
<rscale>  0 0.31717204E+03</rscale>
<asrwt>0</asrwt>
<pdfrwt beam="1">  1        2 0.10707871E+00 0.31717204E+03</pdfrwt>
<pdfrwt beam="2">  1       -2 0.55590423E-02 0.31717204E+03</pdfrwt>
<totfact> 0.70428244E+03</totfact>
</mgrwt>
</event>
<event>
 4    1  0.6086918E-004  0.2794292E+03  0.7818608E-02  0.1096001E+00
         -2   -1    0    0    0  501 -0.00000000000E+00  0.00000000000E+00  0.94731317313E+02  0.94731317347E+02  0.25500000000E-02 0. -1.
          2   -1    0    0  501    0  0.00000000000E+00 -0.00000000000E+00 -0.20605827436E+03  0.20605827438E+03  0.25500000000E-02 0.  1.
    5000001    1    1    2    0    0  0.39030534620E+02 -0.35051673404E+02 -0.16773338038E+03  0.19187362855E+03  0.77000000000E+02 0.  0.
   -5000001    1    1    2    0    0 -0.39030534620E+02  0.35051673404E+02  0.56406423328E+02  0.10891596317E+03  0.77000000000E+02 0.  0.
<mgrwt>
<rscale>  0 0.27942922E+03</rscale>
<asrwt>0</asrwt>
<pdfrwt beam="1">  1        2 0.31701273E-01 0.27942922E+03</pdfrwt>
<pdfrwt beam="2">  1       -2 0.14574049E-01 0.27942922E+03</pdfrwt>
<totfact> 0.58859006E+03</totfact>
</mgrwt>
</event>
<event>
 4    1  0.6086918E-004  0.2197791E+03  0.7818608E-02  0.1134048E+00
          2   -1    0    0  501    0  0.00000000000E+00  0.00000000000E+00  0.19161571197E+02  0.19161571367E+02  0.25500000000E-02 0.  1.
         -2   -1    0    0    0  501 -0.00000000000E+00 -0.00000000000E+00 -0.63020453195E+03  0.63020453196E+03  0.25500000000E-02 0. -1.
    5000001    1    1    2    0    0  0.73716725092E+02 -0.20534729011E+02 -0.35591318423E+03  0.37210082688E+03  0.77000000000E+02 0.  0.
   -5000001    1    1    2    0    0 -0.73716725092E+02  0.20534729011E+02 -0.25512977653E+03  0.27726527645E+03  0.77000000000E+02 0.  0.
<mgrwt>
<rscale>  0 0.21977906E+03</rscale>
<asrwt>0</asrwt>
<pdfrwt beam="1">  1        2 0.29479345E-02 0.21977906E+03</pdfrwt>
<pdfrwt beam="2">  1       -2 0.96954528E-01 0.21977906E+03</pdfrwt>
<totfact> 0.29165788E+03</totfact>
</mgrwt>
</event>
<event>
 4    1  0.6086918E-004  0.3705588E+03  0.7818608E-02  0.1054480E+00
          2   -1    0    0  501    0  0.00000000000E+00  0.00000000000E+00  0.10040863349E+03  0.10040863352E+03  0.25500000000E-02 0.  1.
         -2   -1    0    0    0  501 -0.00000000000E+00 -0.00000000000E+00 -0.34188746194E+03  0.34188746195E+03  0.25500000000E-02 0. -1.
    5000001    1    1    2    0    0 -0.10023354772E+03 -0.13544808124E+03 -0.12378390986E+03  0.22281024020E+03  0.77000000000E+02 0.  0.
   -5000001    1    1    2    0    0  0.10023354772E+03  0.13544808124E+03 -0.11769491860E+03  0.21948585527E+03  0.77000000000E+02 0.  0.
<mgrwt>
<rscale>  0 0.37055878E+03</rscale>
<asrwt>0</asrwt>
<pdfrwt beam="1">  1        2 0.15447482E-01 0.37055878E+03</pdfrwt>
<pdfrwt beam="2">  1       -2 0.52598070E-01 0.37055878E+03</pdfrwt>
<totfact> 0.13127718E+03</totfact>
</mgrwt>
</event>
<event>
 4    1  0.6086918E-004  0.2394957E+03  0.7818608E-02  0.1120129E+00
          2   -1    0    0  501    0  0.00000000000E+00  0.00000000000E+00  0.22037722164E+03  0.22037722165E+03  0.25500000000E-02 0.  1.
         -2   -1    0    0    0  501 -0.00000000000E+00 -0.00000000000E+00 -0.65068211599E+02  0.65068211649E+02  0.25500000000E-02 0. -1.
    5000001    1    1    2    0    0 -0.54885333841E+02 -0.70264445523E+02  0.52062529315E+02  0.12879828855E+03  0.77000000000E+02 0.  0.
   -5000001    1    1    2    0    0  0.54885333841E+02  0.70264445523E+02  0.10324648072E+03  0.15664714475E+03  0.77000000000E+02 0.  0.
<mgrwt>
<rscale>  0 0.23949573E+03</rscale>
<asrwt>0</asrwt>
<pdfrwt beam="1">  1        2 0.33904187E-01 0.23949573E+03</pdfrwt>
<pdfrwt beam="2">  1       -2 0.10010494E-01 0.23949573E+03</pdfrwt>
<totfact> 0.99694320E+03</totfact>
</mgrwt>
</event>
<event>
 4    1  0.6086918E-004  0.3969307E+03  0.7818608E-02  0.1044848E+00
          2   -1    0    0  501    0  0.00000000000E+00  0.00000000000E+00  0.28651475803E+04  0.28651475803E+04  0.25500000000E-02 0.  1.
         -2   -1    0    0    0  501 -0.00000000000E+00 -0.00000000000E+00 -0.13747460564E+02  0.13747460800E+02  0.25500000000E-02 0. -1.
    5000001    1    1    2    0    0 -0.15163535664E+03 -0.79226776177E+02  0.18951441892E+04  0.19044082181E+04  0.77000000000E+02 0.  0.
   -5000001    1    1    2    0    0  0.15163535664E+03  0.79226776177E+02  0.95625593060E+03  0.97448682303E+03  0.77000000000E+02 0.  0.
<mgrwt>
<rscale>  0 0.39693074E+03</rscale>
<asrwt>0</asrwt>
<pdfrwt beam="1">  1        2 0.44079193E+00 0.39693074E+03</pdfrwt>
<pdfrwt beam="2">  1       -2 0.21149940E-02 0.39693074E+03</pdfrwt>
<totfact> 0.17537334E+03</totfact>
</mgrwt>
</event>
<event>
 4    1  0.6086918E-004  0.2448473E+03  0.7818608E-02  0.1116605E+00
          2   -1    0    0  501    0  0.00000000000E+00  0.00000000000E+00  0.43337182530E+03  0.43337182530E+03  0.25500000000E-02 0.  1.
         -2   -1    0    0    0  501 -0.00000000000E+00 -0.00000000000E+00 -0.34583573657E+02  0.34583573751E+02  0.25500000000E-02 0. -1.
    5000001    1    1    2    0    0  0.28347410252E+02 -0.79533499654E+02  0.28334390739E+03  0.30551910430E+03  0.77000000000E+02 0.  0.
   -5000001    1    1    2    0    0 -0.28347410252E+02  0.79533499654E+02  0.11544434424E+03  0.16243629475E+03  0.77000000000E+02 0.  0.
<mgrwt>
<rscale>  0 0.24484727E+03</rscale>
<asrwt>0</asrwt>
<pdfrwt beam="1">  1        2 0.66672588E-01 0.24484727E+03</pdfrwt>
<pdfrwt beam="2">  1       -2 0.53205499E-02 0.24484727E+03</pdfrwt>
<totfact> 0.12829542E+04</totfact>
</mgrwt>
</event>
<event>
 4    1  0.6086918E-004  0.2304061E+03  0.7818608E-02  0.1126354E+00
          2   -1    0    0  501    0  0.00000000000E+00  0.00000000000E+00  0.10558308968E+03  0.10558308971E+03  0.25500000000E-02 0.  1.
         -2   -1    0    0    0  501 -0.00000000000E+00 -0.00000000000E+00 -0.12569948998E+03  0.12569949001E+03  0.25500000000E-02 0. -1.
    5000001    1    1    2    0    0  0.31326577845E+01 -0.60595876428E+02  0.50678726064E+02  0.11035853868E+03  0.77000000000E+02 0.  0.
   -5000001    1    1    2    0    0 -0.31326577845E+01  0.60595876428E+02 -0.70795126365E+02  0.12092404104E+03  0.77000000000E+02 0.  0.
<mgrwt>
<rscale>  0 0.23040608E+03</rscale>
<asrwt>0</asrwt>
<pdfrwt beam="1">  1        2 0.16243552E-01 0.23040608E+03</pdfrwt>
<pdfrwt beam="2">  1       -2 0.19338383E-01 0.23040608E+03</pdfrwt>
<totfact> 0.77393769E+03</totfact>
</mgrwt>
</event>
<event>
 4    1  0.6086918E-004  0.2004792E+03  0.7818608E-02  0.1149335E+00
         -2   -1    0    0    0  501 -0.00000000000E+00  0.00000000000E+00  0.77999678387E+01  0.77999682555E+01  0.25500000000E-02 0. -1.
          2   -1    0    0  501    0  0.00000000000E+00 -0.00000000000E+00 -0.12882076864E+04  0.12882076864E+04  0.25500000000E-02 0.  1.
    5000001    1    1    2    0    0 -0.52727145361E+02  0.36522973785E+02 -0.65451275985E+03  0.66214049286E+03  0.77000000000E+02 0.  0.
   -5000001    1    1    2    0    0  0.52727145361E+02 -0.36522973785E+02 -0.62589495872E+03  0.63386716181E+03  0.77000000000E+02 0.  0.
<mgrwt>
<rscale>  0 0.20047921E+03</rscale>
<asrwt>0</asrwt>
<pdfrwt beam="1">  1        2 0.19818563E+00 0.20047921E+03</pdfrwt>
<pdfrwt beam="2">  1       -2 0.11999961E-02 0.20047921E+03</pdfrwt>
<totfact> 0.28574120E+04</totfact>
</mgrwt>
</event>
<event>
 4    1  0.6086918E-004  0.2636744E+03  0.7818608E-02  0.1104955E+00
          2   -1    0    0  501    0  0.00000000000E+00  0.00000000000E+00  0.30625887168E+03  0.30625887169E+03  0.25500000000E-02 0.  1.
         -2   -1    0    0    0  501 -0.00000000000E+00 -0.00000000000E+00 -0.56752807955E+02  0.56752808012E+02  0.25500000000E-02 0. -1.
    5000001    1    1    2    0    0  0.64090512296E+02 -0.74837049175E+02  0.67260684088E+02  0.14199006064E+03  0.77000000000E+02 0.  0.
   -5000001    1    1    2    0    0 -0.64090512296E+02  0.74837049175E+02  0.18224537964E+03  0.22102161907E+03  0.77000000000E+02 0.  0.
<mgrwt>
<rscale>  0 0.26367443E+03</rscale>
<asrwt>0</asrwt>
<pdfrwt beam="1">  1        2 0.47116750E-01 0.26367443E+03</pdfrwt>
<pdfrwt beam="2">  1       -2 0.87312010E-02 0.26367443E+03</pdfrwt>
<totfact> 0.87158915E+03</totfact>
</mgrwt>
</event>
<event>
 4    1  0.6086918E-004  0.1719833E+03  0.7818608E-02  0.1175795E+00
          2   -1    0    0  501    0  0.00000000000E+00  0.00000000000E+00  0.14310944186E+04  0.14310944186E+04  0.25500000000E-02 0.  1.
         -2   -1    0    0    0  501 -0.00000000000E+00 -0.00000000000E+00 -0.51670717770E+01  0.51670724063E+01  0.25500000000E-02 0. -1.
    5000001    1    1    2    0    0  0.36502234438E+01  0.38087142783E+02  0.70235585934E+03  0.70759925645E+03  0.77000000000E+02 0.  0.
   -5000001    1    1    2    0    0 -0.36502234438E+01 -0.38087142783E+02  0.72357148749E+03  0.72866223457E+03  0.77000000000E+02 0.  0.
<mgrwt>
<rscale>  0 0.17198335E+03</rscale>
<asrwt>0</asrwt>
<pdfrwt beam="1">  1        2 0.22016844E+00 0.17198335E+03</pdfrwt>
<pdfrwt beam="2">  1       -2 0.79493393E-03 0.17198335E+03</pdfrwt>
<totfact> 0.42848171E+04</totfact>
</mgrwt>
</event>
<event>
 4    1  0.6086918E-004  0.5023012E+03  0.7818608E-02  0.1013180E+00
          2   -1    0    0  501    0  0.00000000000E+00  0.00000000000E+00  0.41630884810E+04  0.41630884810E+04  0.25500000000E-02 0.  1.
         -2   -1    0    0    0  501 -0.00000000000E+00 -0.00000000000E+00 -0.15151401237E+02  0.15151401451E+02  0.25500000000E-02 0. -1.
    5000001    1    1    2    0    0 -0.75254094116E+02 -0.20846901939E+03  0.28191374883E+04  0.28288845308E+04  0.77000000000E+02 0.  0.
   -5000001    1    1    2    0    0  0.75254094116E+02  0.20846901939E+03  0.13287995914E+04  0.13493553516E+04  0.77000000000E+02 0.  0.
<mgrwt>
<rscale>  0 0.50230120E+03</rscale>
<asrwt>0</asrwt>
<pdfrwt beam="1">  1        2 0.64047588E+00 0.50230120E+03</pdfrwt>
<pdfrwt beam="2">  1       -2 0.23309822E-02 0.50230120E+03</pdfrwt>
<totfact> 0.19263772E+02</totfact>
</mgrwt>
</event>
<event>
 4    1  0.6086918E-004  0.2691180E+03  0.7818608E-02  0.1101785E+00
          2   -1    0    0  501    0  0.00000000000E+00  0.00000000000E+00  0.20041630206E+04  0.20041630206E+04  0.25500000000E-02 0.  1.
         -2   -1    0    0    0  501 -0.00000000000E+00 -0.00000000000E+00 -0.90342544655E+01  0.90342548253E+01  0.25500000000E-02 0. -1.
    5000001    1    1    2    0    0 -0.27379859462E+02 -0.65354838810E+02  0.16303915460E+04  0.16337461568E+04  0.77000000000E+02 0.  0.
   -5000001    1    1    2    0    0  0.27379859462E+02  0.65354838810E+02  0.36473722015E+03  0.37945111862E+03  0.77000000000E+02 0.  0.
<mgrwt>
<rscale>  0 0.26911796E+03</rscale>
<asrwt>0</asrwt>
<pdfrwt beam="1">  1        2 0.30833276E+00 0.26911796E+03</pdfrwt>
<pdfrwt beam="2">  1       -2 0.13898854E-02 0.26911796E+03</pdfrwt>
<totfact> 0.97475914E+03</totfact>
</mgrwt>
</event>
<event>
 4    1  0.6086918E-004  0.2016544E+03  0.7818608E-02  0.1148351E+00
         -2   -1    0    0    0  501 -0.00000000000E+00  0.00000000000E+00  0.37955426602E+02  0.37955426687E+02  0.25500000000E-02 0. -1.
          2   -1    0    0  501    0  0.00000000000E+00 -0.00000000000E+00 -0.26784364478E+03  0.26784364479E+03  0.25500000000E-02 0.  1.
    5000001    1    1    2    0    0 -0.12690067948E+02  0.57794694594E+02 -0.73807853630E+02  0.12197484907E+03  0.77000000000E+02 0.  0.
   -5000001    1    1    2    0    0  0.12690067948E+02 -0.57794694594E+02 -0.15608036455E+03  0.18382422241E+03  0.77000000000E+02 0.  0.
<mgrwt>
<rscale>  0 0.20165436E+03</rscale>
<asrwt>0</asrwt>
<pdfrwt beam="1">  1        2 0.41206714E-01 0.20165436E+03</pdfrwt>
<pdfrwt beam="2">  1       -2 0.58392966E-02 0.20165436E+03</pdfrwt>
<totfact> 0.18465866E+04</totfact>
</mgrwt>
</event>
<event>
 4    1  0.6086918E-004  0.2087980E+03  0.7818608E-02  0.1142521E+00
         -2   -1    0    0    0  501 -0.00000000000E+00  0.00000000000E+00  0.29329693740E+02  0.29329693851E+02  0.25500000000E-02 0. -1.
          2   -1    0    0  501    0  0.00000000000E+00 -0.00000000000E+00 -0.37160803059E+03  0.37160803060E+03  0.25500000000E-02 0.  1.
    5000001    1    1    2    0    0 -0.17704581513E+02 -0.57451811240E+02 -0.24184876633E+03  0.26083325823E+03  0.77000000000E+02 0.  0.
   -5000001    1    1    2    0    0  0.17704581513E+02  0.57451811240E+02 -0.10042957052E+03  0.14010446623E+03  0.77000000000E+02 0.  0.
<mgrwt>
<rscale>  0 0.20879799E+03</rscale>
<asrwt>0</asrwt>
<pdfrwt beam="1">  1        2 0.57170463E-01 0.20879799E+03</pdfrwt>
<pdfrwt beam="2">  1       -2 0.45122609E-02 0.20879799E+03</pdfrwt>
<totfact> 0.19262533E+04</totfact>
</mgrwt>
</event>
<event>
 4    1  0.6086918E-004  0.2385081E+03  0.7818608E-02  0.1120791E+00
          2   -1    0    0  501    0  0.00000000000E+00  0.00000000000E+00  0.13846785304E+03  0.13846785306E+03  0.25500000000E-02 0.  1.
         -2   -1    0    0    0  501 -0.00000000000E+00 -0.00000000000E+00 -0.10270634417E+03  0.10270634420E+03  0.25500000000E-02 0. -1.
    5000001    1    1    2    0    0 -0.62339848075E+02 -0.64177898503E+02  0.35025152055E+02  0.12312928405E+03  0.77000000000E+02 0.  0.
   -5000001    1    1    2    0    0  0.62339848075E+02  0.64177898503E+02  0.73635680846E+00  0.11804491321E+03  0.77000000000E+02 0.  0.
<mgrwt>
<rscale>  0 0.23850809E+03</rscale>
<asrwt>0</asrwt>
<pdfrwt beam="1">  1        2 0.21302747E-01 0.23850809E+03</pdfrwt>
<pdfrwt beam="2">  1       -2 0.15800976E-01 0.23850809E+03</pdfrwt>
<totfact> 0.79608322E+03</totfact>
</mgrwt>
</event>
<event>
 4    1  0.6086918E-004  0.2625339E+03  0.7818608E-02  0.1105630E+00
         -2   -1    0    0    0  501 -0.00000000000E+00  0.00000000000E+00  0.12853861962E+04  0.12853861962E+04  0.25500000000E-02 0. -1.
          2   -1    0    0  501    0  0.00000000000E+00 -0.00000000000E+00 -0.13405314779E+02  0.13405315021E+02  0.25500000000E-02 0.  1.
    5000001    1    1    2    0    0 -0.74552910408E+02  0.75773629989E+02  0.64337358786E+03  0.65662649429E+03  0.77000000000E+02 0.  0.
   -5000001    1    1    2    0    0  0.74552910408E+02 -0.75773629989E+02  0.62860729360E+03  0.64216501697E+03  0.77000000000E+02 0.  0.
<mgrwt>
<rscale>  0 0.26253386E+03</rscale>
<asrwt>0</asrwt>
<pdfrwt beam="1">  1        2 0.20623549E-02 0.26253386E+03</pdfrwt>
<pdfrwt beam="2">  1       -2 0.19775184E+00 0.26253386E+03</pdfrwt>
<totfact> 0.78132081E+02</totfact>
</mgrwt>
</event>
<event>
 4    1  0.6086918E-004  0.2592991E+03  0.7818608E-02  0.1107565E+00
         -2   -1    0    0    0  501 -0.00000000000E+00  0.00000000000E+00  0.21375312340E+02  0.21375312492E+02  0.25500000000E-02 0. -1.
          2   -1    0    0  501    0  0.00000000000E+00 -0.00000000000E+00 -0.78637460210E+03  0.78637460211E+03  0.25500000000E-02 0.  1.
    5000001    1    1    2    0    0  0.10253743248E+03  0.59224714939E+01 -0.43917461583E+03  0.45755037309E+03  0.77000000000E+02 0.  0.
   -5000001    1    1    2    0    0 -0.10253743248E+03 -0.59224714939E+01 -0.32582467394E+03  0.35019954151E+03  0.77000000000E+02 0.  0.
<mgrwt>
<rscale>  0 0.25929908E+03</rscale>
<asrwt>0</asrwt>
<pdfrwt beam="1">  1        2 0.12098069E+00 0.25929908E+03</pdfrwt>
<pdfrwt beam="2">  1       -2 0.32885102E-02 0.25929908E+03</pdfrwt>
<totfact> 0.13296837E+04</totfact>
</mgrwt>
</event>
<event>
 4    1  0.6086918E-004  0.3303783E+03  0.7818608E-02  0.1070970E+00
          2   -1    0    0  501    0  0.00000000000E+00  0.00000000000E+00  0.62248084262E+03  0.62248084262E+03  0.25500000000E-02 0.  1.
         -2   -1    0    0    0  501 -0.00000000000E+00 -0.00000000000E+00 -0.43836618024E+02  0.43836618098E+02  0.25500000000E-02 0. -1.
    5000001    1    1    2    0    0  0.68280789603E+02  0.12131677904E+03  0.37902982642E+03  0.41106281323E+03  0.77000000000E+02 0.  0.
   -5000001    1    1    2    0    0 -0.68280789603E+02 -0.12131677904E+03  0.19961439817E+03  0.25525464749E+03  0.77000000000E+02 0.  0.
<mgrwt>
<rscale>  0 0.33037830E+03</rscale>
<asrwt>0</asrwt>
<pdfrwt beam="1">  1        2 0.95766277E-01 0.33037830E+03</pdfrwt>
<pdfrwt beam="2">  1       -2 0.67440956E-02 0.33037830E+03</pdfrwt>
<totfact> 0.59821186E+03</totfact>
</mgrwt>
</event>
<event>
 4    1  0.6086918E-004  0.2573775E+03  0.7818608E-02  0.1108729E+00
          2   -1    0    0  501    0  0.00000000000E+00  0.00000000000E+00  0.74123672951E+03  0.74123672951E+03  0.25500000000E-02 0.  1.
         -2   -1    0    0    0  501 -0.00000000000E+00 -0.00000000000E+00 -0.22342107256E+02  0.22342107402E+02  0.25500000000E-02 0. -1.
    5000001    1    1    2    0    0  0.37013129487E+02  0.92001993241E+02  0.44322640248E+03  0.46066580334E+03  0.77000000000E+02 0.  0.
   -5000001    1    1    2    0    0 -0.37013129487E+02 -0.92001993241E+02  0.27566821977E+03  0.30291303357E+03  0.77000000000E+02 0.  0.
<mgrwt>
<rscale>  0 0.25737747E+03</rscale>
<asrwt>0</asrwt>
<pdfrwt beam="1">  1        2 0.11403643E+00 0.25737747E+03</pdfrwt>
<pdfrwt beam="2">  1       -2 0.34372470E-02 0.25737747E+03</pdfrwt>
<totfact> 0.13396213E+04</totfact>
</mgrwt>
</event>
<event>
 4    1  0.6086918E-004  0.3368560E+03  0.7818608E-02  0.1068143E+00
          2   -1    0    0  501    0  0.00000000000E+00  0.00000000000E+00  0.19237217866E+04  0.19237217866E+04  0.25500000000E-02 0.  1.
         -2   -1    0    0    0  501 -0.00000000000E+00 -0.00000000000E+00 -0.14746413480E+02  0.14746413700E+02  0.25500000000E-02 0. -1.
    5000001    1    1    2    0    0  0.87000187928E+02 -0.11054834732E+03  0.12506689394E+04  0.12609091029E+04  0.77000000000E+02 0.  0.
   -5000001    1    1    2    0    0 -0.87000187928E+02  0.11054834732E+03  0.65830643372E+03  0.67755909740E+03  0.77000000000E+02 0.  0.
<mgrwt>
<rscale>  0 0.33685604E+03</rscale>
<asrwt>0</asrwt>
<pdfrwt beam="1">  1        2 0.29595718E+00 0.33685604E+03</pdfrwt>
<pdfrwt beam="2">  1       -2 0.22686792E-02 0.33685604E+03</pdfrwt>
<totfact> 0.52296169E+03</totfact>
</mgrwt>
</event>
<event>
 4    1  0.6086918E-004  0.3305562E+03  0.7818608E-02  0.1070891E+00
          2   -1    0    0  501    0  0.00000000000E+00  0.00000000000E+00  0.85884999816E+03  0.85884999817E+03  0.25500000000E-02 0.  1.
         -2   -1    0    0    0  501 -0.00000000000E+00 -0.00000000000E+00 -0.31806306531E+02  0.31806306633E+02  0.25500000000E-02 0. -1.
    5000001    1    1    2    0    0 -0.89561152285E+02 -0.87554207880E+02  0.61696208159E+03  0.63423824343E+03  0.77000000000E+02 0.  0.
   -5000001    1    1    2    0    0  0.89561152285E+02  0.87554207880E+02  0.21008161004E+03  0.25641806137E+03  0.77000000000E+02 0.  0.
<mgrwt>
<rscale>  0 0.33055618E+03</rscale>
<asrwt>0</asrwt>
<pdfrwt beam="1">  1        2 0.13213075E+00 0.33055618E+03</pdfrwt>
<pdfrwt beam="2">  1       -2 0.48932788E-02 0.33055618E+03</pdfrwt>
<totfact> 0.65655929E+03</totfact>
</mgrwt>
</event>
<event>
 4    1  0.6086918E-004  0.1883804E+03  0.7818608E-02  0.1159930E+00
          2   -1    0    0  501    0  0.00000000000E+00  0.00000000000E+00  0.63213304774E+03  0.63213304775E+03  0.25500000000E-02 0.  1.
         -2   -1    0    0    0  501 -0.00000000000E+00 -0.00000000000E+00 -0.14034686564E+02  0.14034686796E+02  0.25500000000E-02 0. -1.
    5000001    1    1    2    0    0 -0.51994474007E+02 -0.99431588221E+01  0.34970699363E+03  0.36197551454E+03  0.77000000000E+02 0.  0.
   -5000001    1    1    2    0    0  0.51994474007E+02  0.99431588221E+01  0.26839136755E+03  0.28419222000E+03  0.77000000000E+02 0.  0.
<mgrwt>
<rscale>  0 0.18838035E+03</rscale>
<asrwt>0</asrwt>
<pdfrwt beam="1">  1        2 0.97251259E-01 0.18838035E+03</pdfrwt>
<pdfrwt beam="2">  1       -2 0.21591821E-02 0.18838035E+03</pdfrwt>
<totfact> 0.31631087E+04</totfact>
</mgrwt>
</event>
<event>
 4    1  0.6086918E-004  0.2014168E+03  0.7818608E-02  0.1148549E+00
          2   -1    0    0  501    0  0.00000000000E+00  0.00000000000E+00  0.29307780334E+04  0.29307780334E+04  0.25500000000E-02 0.  1.
         -2   -1    0    0    0  501 -0.00000000000E+00 -0.00000000000E+00 -0.34605753216E+01  0.34605762611E+01  0.25500000000E-02 0. -1.
    5000001    1    1    2    0    0 -0.34960429928E+02  0.52710754910E+02  0.16760340025E+04  0.16789936369E+04  0.77000000000E+02 0.  0.
   -5000001    1    1    2    0    0  0.34960429928E+02 -0.52710754910E+02  0.12512834557E+04  0.12552449728E+04  0.77000000000E+02 0.  0.
<mgrwt>
<rscale>  0 0.20141678E+03</rscale>
<asrwt>0</asrwt>
<pdfrwt beam="1">  1        2 0.45088721E+00 0.20141678E+03</pdfrwt>
<pdfrwt beam="2">  1       -2 0.53239830E-03 0.20141678E+03</pdfrwt>
<totfact> 0.12119530E+04</totfact>
</mgrwt>
</event>
<event>
 4    1  0.6086918E-004  0.4276817E+03  0.7818608E-02  0.1034595E+00
          2   -1    0    0  501    0  0.00000000000E+00  0.00000000000E+00  0.69770022639E+03  0.69770022640E+03  0.25500000000E-02 0.  1.
         -2   -1    0    0    0  501 -0.00000000000E+00 -0.00000000000E+00 -0.65540899688E+02  0.65540899738E+02  0.25500000000E-02 0. -1.
    5000001    1    1    2    0    0  0.10246249503E+03 -0.15788142715E+03  0.43410363675E+03  0.47937467118E+03  0.77000000000E+02 0.  0.
   -5000001    1    1    2    0    0 -0.10246249503E+03  0.15788142715E+03  0.19805568996E+03  0.28386645496E+03  0.77000000000E+02 0.  0.
<mgrwt>
<rscale>  0 0.42768166E+03</rscale>
<asrwt>0</asrwt>
<pdfrwt beam="1">  1        2 0.10733850E+00 0.42768166E+03</pdfrwt>
<pdfrwt beam="2">  1       -2 0.10083215E-01 0.42768166E+03</pdfrwt>
<totfact> 0.27722906E+03</totfact>
</mgrwt>
</event>
<event>
 4    1  0.6086918E-004  0.1898544E+03  0.7818608E-02  0.1158593E+00
          2   -1    0    0  501    0  0.00000000000E+00  0.00000000000E+00  0.90063771017E+03  0.90063771018E+03  0.25500000000E-02 0.  1.
         -2   -1    0    0    0  501 -0.00000000000E+00 -0.00000000000E+00 -0.10005321895E+02  0.10005322220E+02  0.25500000000E-02 0. -1.
    5000001    1    1    2    0    0 -0.27606275007E+02 -0.41845096709E+02  0.55973659866E+03  0.56722762487E+03  0.77000000000E+02 0.  0.
   -5000001    1    1    2    0    0  0.27606275007E+02  0.41845096709E+02  0.33089578962E+03  0.34341540752E+03  0.77000000000E+02 0.  0.
<mgrwt>
<rscale>  0 0.18985437E+03</rscale>
<asrwt>0</asrwt>
<pdfrwt beam="1">  1        2 0.13855965E+00 0.18985437E+03</pdfrwt>
<pdfrwt beam="2">  1       -2 0.15392803E-02 0.18985437E+03</pdfrwt>
<totfact> 0.33471024E+04</totfact>
</mgrwt>
</event>
<event>
 4    1  0.6086918E-004  0.2064211E+03  0.7818608E-02  0.1144432E+00
         -2   -1    0    0    0  501 -0.00000000000E+00  0.00000000000E+00  0.91400920901E+01  0.91400924458E+01  0.25500000000E-02 0. -1.
          2   -1    0    0  501    0  0.00000000000E+00 -0.00000000000E+00 -0.11654604203E+04  0.11654604203E+04  0.25500000000E-02 0.  1.
    5000001    1    1    2    0    0 -0.40972985219E+02 -0.52134484669E+02 -0.68099999620E+03  0.68853960296E+03  0.77000000000E+02 0.  0.
   -5000001    1    1    2    0    0  0.40972985219E+02  0.52134484669E+02 -0.47532033199E+03  0.48606090978E+03  0.77000000000E+02 0.  0.
<mgrwt>
<rscale>  0 0.20642108E+03</rscale>
<asrwt>0</asrwt>
<pdfrwt beam="1">  1        2 0.17930149E+00 0.20642108E+03</pdfrwt>
<pdfrwt beam="2">  1       -2 0.14061690E-02 0.20642108E+03</pdfrwt>
<totfact> 0.26636181E+04</totfact>
</mgrwt>
</event>
<event>
 4    1  0.6086918E-004  0.5462101E+03  0.7818608E-02  0.1002375E+00
         -2   -1    0    0    0  501 -0.00000000000E+00  0.00000000000E+00  0.91388954734E+02  0.91388954770E+02  0.25500000000E-02 0. -1.
          2   -1    0    0  501    0  0.00000000000E+00 -0.00000000000E+00 -0.81614206795E+03  0.81614206795E+03  0.25500000000E-02 0.  1.
    5000001    1    1    2    0    0  0.16420854914E+03  0.13313954193E+03 -0.61959768524E+03  0.65918197548E+03  0.77000000000E+02 0.  0.
   -5000001    1    1    2    0    0 -0.16420854914E+03 -0.13313954193E+03 -0.10515542797E+03  0.24834904725E+03  0.77000000000E+02 0.  0.
<mgrwt>
<rscale>  0 0.54621011E+03</rscale>
<asrwt>0</asrwt>
<pdfrwt beam="1">  1        2 0.12556031E+00 0.54621011E+03</pdfrwt>
<pdfrwt beam="2">  1       -2 0.14059840E-01 0.54621011E+03</pdfrwt>
<totfact> 0.13164243E+03</totfact>
</mgrwt>
</event>
<event>
 4    1  0.6086918E-004  0.1998047E+03  0.7818608E-02  0.1149904E+00
          2   -1    0    0  501    0  0.00000000000E+00  0.00000000000E+00  0.20959476833E+04  0.20959476833E+04  0.25500000000E-02 0.  1.
         -2   -1    0    0    0  501 -0.00000000000E+00 -0.00000000000E+00 -0.47617975357E+01  0.47617982185E+01  0.25500000000E-02 0. -1.
    5000001    1    1    2    0    0 -0.15358059355E+02  0.53523367215E+02  0.72138904830E+03  0.72762062905E+03  0.77000000000E+02 0.  0.
   -5000001    1    1    2    0    0  0.15358059355E+02 -0.53523367215E+02  0.13697968375E+04  0.13730888525E+04  0.77000000000E+02 0.  0.
<mgrwt>
<rscale>  0 0.19980470E+03</rscale>
<asrwt>0</asrwt>
<pdfrwt beam="1">  1        2 0.32245353E+00 0.19980470E+03</pdfrwt>
<pdfrwt beam="2">  1       -2 0.73258419E-03 0.19980470E+03</pdfrwt>
<totfact> 0.21886094E+04</totfact>
</mgrwt>
</event>
<event>
 4    1  0.6086918E-004  0.2582492E+03  0.7818608E-02  0.1108200E+00
         -2   -1    0    0    0  501 -0.00000000000E+00  0.00000000000E+00  0.51260802672E+02  0.51260802736E+02  0.25500000000E-02 0. -1.
          2   -1    0    0  501    0  0.00000000000E+00 -0.00000000000E+00 -0.32526150264E+03  0.32526150265E+03  0.25500000000E-02 0.  1.
    5000001    1    1    2    0    0 -0.95866524029E+02  0.14044267407E+01 -0.79566232001E+02  0.14646551853E+03  0.77000000000E+02 0.  0.
   -5000001    1    1    2    0    0  0.95866524029E+02 -0.14044267407E+01 -0.19443446796E+03  0.23005678685E+03  0.77000000000E+02 0.  0.
<mgrwt>
<rscale>  0 0.25824923E+03</rscale>
<asrwt>0</asrwt>
<pdfrwt beam="1">  1        2 0.50040230E-01 0.25824923E+03</pdfrwt>
<pdfrwt beam="2">  1       -2 0.78862776E-02 0.25824923E+03</pdfrwt>
<totfact> 0.95719527E+03</totfact>
</mgrwt>
</event>
<event>
 4    1  0.6086918E-004  0.2193795E+03  0.7818608E-02  0.1134347E+00
          2   -1    0    0  501    0  0.00000000000E+00  0.00000000000E+00  0.53519563742E+03  0.53519563743E+03  0.25500000000E-02 0.  1.
         -2   -1    0    0    0  501 -0.00000000000E+00 -0.00000000000E+00 -0.22481193132E+02  0.22481193277E+02  0.25500000000E-02 0. -1.
    5000001    1    1    2    0    0  0.28568223094E+02 -0.52260338155E+02  0.38486483437E+03  0.39698517233E+03  0.77000000000E+02 0.  0.
   -5000001    1    1    2    0    0 -0.28568223094E+02  0.52260338155E+02  0.12784960992E+03  0.16069165838E+03  0.77000000000E+02 0.  0.
<mgrwt>
<rscale>  0 0.21937946E+03</rscale>
<asrwt>0</asrwt>
<pdfrwt beam="1">  1        2 0.82337795E-01 0.21937946E+03</pdfrwt>
<pdfrwt beam="2">  1       -2 0.34586449E-02 0.21937946E+03</pdfrwt>
<totfact> 0.19294916E+04</totfact>
</mgrwt>
</event>
<event>
 4    1  0.6086918E-004  0.3247915E+03  0.7818608E-02  0.1073465E+00
          2   -1    0    0  501    0  0.00000000000E+00  0.00000000000E+00  0.36354178601E+03  0.36354178602E+03  0.25500000000E-02 0.  1.
         -2   -1    0    0    0  501 -0.00000000000E+00 -0.00000000000E+00 -0.72542917690E+02  0.72542917735E+02  0.25500000000E-02 0. -1.
    5000001    1    1    2    0    0  0.13525655894E+03 -0.43724934128E+02  0.16617706994E+03  0.23184051668E+03  0.77000000000E+02 0.  0.
   -5000001    1    1    2    0    0 -0.13525655894E+03  0.43724934128E+02  0.12482179839E+03  0.20424418708E+03  0.77000000000E+02 0.  0.
<mgrwt>
<rscale>  0 0.32479151E+03</rscale>
<asrwt>0</asrwt>
<pdfrwt beam="1">  1        2 0.55929505E-01 0.32479151E+03</pdfrwt>
<pdfrwt beam="2">  1       -2 0.11160449E-01 0.32479151E+03</pdfrwt>
<totfact> 0.49352452E+03</totfact>
</mgrwt>
</event>
<event>
 4    1  0.6086918E-004  0.2744313E+03  0.7818608E-02  0.1098770E+00
         -2   -1    0    0    0  501 -0.00000000000E+00  0.00000000000E+00  0.89500171958E+02  0.89500171994E+02  0.25500000000E-02 0. -1.
          2   -1    0    0  501    0  0.00000000000E+00 -0.00000000000E+00 -0.21036986596E+03  0.21036986598E+03  0.25500000000E-02 0.  1.
    5000001    1    1    2    0    0 -0.87799189428E+02  0.13615448083E+02  0.16869527501E+02  0.11877566691E+03  0.77000000000E+02 0.  0.
   -5000001    1    1    2    0    0  0.87799189428E+02 -0.13615448083E+02 -0.13773922151E+03  0.18109437107E+03  0.77000000000E+02 0.  0.
<mgrwt>
<rscale>  0 0.27443133E+03</rscale>
<asrwt>0</asrwt>
<pdfrwt beam="1">  1        2 0.32364595E-01 0.27443133E+03</pdfrwt>
<pdfrwt beam="2">  1       -2 0.13769257E-01 0.27443133E+03</pdfrwt>
<totfact> 0.63128050E+03</totfact>
</mgrwt>
</event>
<event>
 4    1  0.6086918E-004  0.5142695E+03  0.7818608E-02  0.1010120E+00
         -2   -1    0    0    0  501 -0.00000000000E+00  0.00000000000E+00  0.76169080116E+02  0.76169080158E+02  0.25500000000E-02 0. -1.
          2   -1    0    0  501    0  0.00000000000E+00 -0.00000000000E+00 -0.86804618525E+03  0.86804618525E+03  0.25500000000E-02 0.  1.
    5000001    1    1    2    0    0  0.18556819882E+03 -0.10451251187E+03 -0.17234288367E+03  0.28458652656E+03  0.77000000000E+02 0.  0.
   -5000001    1    1    2    0    0 -0.18556819882E+03  0.10451251187E+03 -0.61953422146E+03  0.65962873885E+03  0.77000000000E+02 0.  0.
<mgrwt>
<rscale>  0 0.51426950E+03</rscale>
<asrwt>0</asrwt>
<pdfrwt beam="1">  1        2 0.13354556E+00 0.51426950E+03</pdfrwt>
<pdfrwt beam="2">  1       -2 0.11718321E-01 0.51426950E+03</pdfrwt>
<totfact> 0.16390204E+03</totfact>
</mgrwt>
</event>
<event>
 4    1  0.6086918E-004  0.3956547E+03  0.7818608E-02  0.1045295E+00
         -2   -1    0    0    0  501 -0.00000000000E+00  0.00000000000E+00  0.62061347428E+02  0.62061347481E+02  0.25500000000E-02 0.  1.
          2   -1    0    0  501    0  0.00000000000E+00 -0.00000000000E+00 -0.63059629373E+03  0.63059629373E+03  0.25500000000E-02 0. -1.
    5000001    1    1    2    0    0  0.12548590848E+03  0.10268898402E+03 -0.42984547378E+03  0.46581957022E+03  0.77000000000E+02 0.  0.
   -5000001    1    1    2    0    0 -0.12548590848E+03 -0.10268898402E+03 -0.13868947252E+03  0.22683807100E+03  0.77000000000E+02 0.  0.
<mgrwt>
<rscale>  0 0.39565468E+03</rscale>
<asrwt>0</asrwt>
<pdfrwt beam="1">  1        2 0.97014810E-01 0.39565468E+03</pdfrwt>
<pdfrwt beam="2">  1       -2 0.95479000E-02 0.39565468E+03</pdfrwt>
<totfact> 0.34184362E+03</totfact>
</mgrwt>
</event>
<event>
 4    1  0.6086918E-004  0.1837186E+03  0.7818608E-02  0.1164252E+00
         -2   -1    0    0    0  501 -0.00000000000E+00  0.00000000000E+00  0.33679671504E+01  0.33679681158E+01  0.25500000000E-02 0. -1.
          2   -1    0    0  501    0  0.00000000000E+00 -0.00000000000E+00 -0.25054064494E+04  0.25054064494E+04  0.25500000000E-02 0.  1.
    5000001    1    1    2    0    0  0.35632897403E+02 -0.31173069378E+02 -0.10276086738E+04  0.10315764878E+04  0.77000000000E+02 0.  0.
   -5000001    1    1    2    0    0 -0.35632897403E+02  0.31173069378E+02 -0.14744298085E+04  0.14771979298E+04  0.77000000000E+02 0.  0.
<mgrwt>
<rscale>  0 0.18371857E+03</rscale>
<asrwt>0</asrwt>
<pdfrwt beam="1">  1        2 0.38544566E+00 0.18371857E+03</pdfrwt>
<pdfrwt beam="2">  1       -2 0.51815087E-03 0.18371857E+03</pdfrwt>
<totfact> 0.21730145E+04</totfact>
</mgrwt>
</event>
<event>
 4    1  0.6086918E-004  0.2244455E+03  0.7818608E-02  0.1130612E+00
         -2   -1    0    0    0  501 -0.00000000000E+00  0.00000000000E+00  0.21158936219E+02  0.21158936373E+02  0.25500000000E-02 0. -1.
          2   -1    0    0  501    0  0.00000000000E+00 -0.00000000000E+00 -0.59520680616E+03  0.59520680616E+03  0.25500000000E-02 0.  1.
    5000001    1    1    2    0    0 -0.18426948461E+02  0.52611646731E+02 -0.45081654317E+03  0.46072995713E+03  0.77000000000E+02 0.  0.
   -5000001    1    1    2    0    0  0.18426948461E+02 -0.52611646731E+02 -0.12323132676E+03  0.15563578540E+03  0.77000000000E+02 0.  0.
<mgrwt>
<rscale>  0 0.22444548E+03</rscale>
<asrwt>0</asrwt>
<pdfrwt beam="1">  1        2 0.91570265E-01 0.22444548E+03</pdfrwt>
<pdfrwt beam="2">  1       -2 0.32552214E-02 0.22444548E+03</pdfrwt>
<totfact> 0.18736093E+04</totfact>
</mgrwt>
</event>
<event>
 4    1  0.6086918E-004  0.2544946E+03  0.7818608E-02  0.1110497E+00
         -2   -1    0    0    0  501 -0.00000000000E+00  0.00000000000E+00  0.17852469224E+02  0.17852469407E+02  0.25500000000E-02 0. -1.
          2   -1    0    0  501    0  0.00000000000E+00 -0.00000000000E+00 -0.90698242711E+03  0.90698242711E+03  0.25500000000E-02 0.  1.
    5000001    1    1    2    0    0  0.80587630387E+02 -0.45686206200E+02 -0.29555831324E+03  0.31916345676E+03  0.77000000000E+02 0.  0.
   -5000001    1    1    2    0    0 -0.80587630387E+02  0.45686206200E+02 -0.59357164465E+03  0.60567143976E+03  0.77000000000E+02 0.  0.
<mgrwt>
<rscale>  0 0.25449460E+03</rscale>
<asrwt>0</asrwt>
<pdfrwt beam="1">  1        2 0.13953572E+00 0.25449460E+03</pdfrwt>
<pdfrwt beam="2">  1       -2 0.27465344E-02 0.25449460E+03</pdfrwt>
<totfact> 0.14426285E+04</totfact>
</mgrwt>
</event>
<event>
 4    1  0.6086918E-004  0.1817859E+03  0.7818608E-02  0.1166086E+00
         -2   -1    0    0    0  501 -0.00000000000E+00  0.00000000000E+00  0.11372635732E+02  0.11372636018E+02  0.25500000000E-02 0. -1.
          2   -1    0    0  501    0  0.00000000000E+00 -0.00000000000E+00 -0.72643904717E+03  0.72643904717E+03  0.25500000000E-02 0.  1.
    5000001    1    1    2    0    0 -0.28060877880E+02 -0.19520748303E+02 -0.21905800831E+03  0.23469956004E+03  0.77000000000E+02 0.  0.
   -5000001    1    1    2    0    0  0.28060877880E+02  0.19520748303E+02 -0.49600840313E+03  0.50311212315E+03  0.77000000000E+02 0.  0.
<mgrwt>
<rscale>  0 0.18178588E+03</rscale>
<asrwt>0</asrwt>
<pdfrwt beam="1">  1        2 0.11175982E+00 0.18178588E+03</pdfrwt>
<pdfrwt beam="2">  1       -2 0.17496368E-02 0.18178588E+03</pdfrwt>
<totfact> 0.36341015E+04</totfact>
</mgrwt>
</event>
<event>
 4    1  0.6086918E-004  0.1689881E+03  0.7818608E-02  0.1178907E+00
          2   -1    0    0  501    0  0.00000000000E+00  0.00000000000E+00  0.71710160516E+03  0.71710160517E+03  0.25500000000E-02 0.  1.
         -2   -1    0    0    0  501 -0.00000000000E+00 -0.00000000000E+00 -0.99556898460E+01  0.99556901726E+01  0.25500000000E-02 0. -1.
    5000001    1    1    2    0    0  0.14503201734E-01  0.20924320207E+02  0.47314720388E+03  0.47982820251E+03  0.77000000000E+02 0.  0.
   -5000001    1    1    2    0    0 -0.14503201734E-01 -0.20924320207E+02  0.23399871144E+03  0.24722909283E+03  0.77000000000E+02 0.  0.
<mgrwt>
<rscale>  0 0.16898806E+03</rscale>
<asrwt>0</asrwt>
<pdfrwt beam="1">  1        2 0.11032335E+00 0.16898806E+03</pdfrwt>
<pdfrwt beam="2">  1       -2 0.15316443E-02 0.16898806E+03</pdfrwt>
<totfact> 0.44500286E+04</totfact>
</mgrwt>
</event>
<event>
 4    1  0.6086918E-004  0.2735047E+03  0.7818608E-02  0.1099290E+00
          2   -1    0    0  501    0  0.00000000000E+00  0.00000000000E+00  0.52749574095E+02  0.52749574156E+02  0.25500000000E-02 0.  1.
         -2   -1    0    0    0  501 -0.00000000000E+00 -0.00000000000E+00 -0.35452817396E+03  0.35452817397E+03  0.25500000000E-02 0. -1.
    5000001    1    1    2    0    0  0.57209440124E+02  0.53598604239E+02 -0.27210734337E+03  0.29345721449E+03  0.77000000000E+02 0.  0.
   -5000001    1    1    2    0    0 -0.57209440124E+02 -0.53598604239E+02 -0.29671256488E+02  0.11382053364E+03  0.77000000000E+02 0.  0.
<mgrwt>
<rscale>  0 0.27350474E+03</rscale>
<asrwt>0</asrwt>
<pdfrwt beam="1">  1        2 0.81153193E-02 0.27350474E+03</pdfrwt>
<pdfrwt beam="2">  1       -2 0.54542795E-01 0.27350474E+03</pdfrwt>
<totfact> 0.26791021E+03</totfact>
</mgrwt>
</event>
<event>
 4    1  0.6086918E-004  0.3880500E+03  0.7818608E-02  0.1047998E+00
         -2   -1    0    0    0  501 -0.00000000000E+00  0.00000000000E+00  0.41045663753E+02  0.41045663833E+02  0.25500000000E-02 0. -1.
          2   -1    0    0  501    0  0.00000000000E+00 -0.00000000000E+00 -0.91716632554E+03  0.91716632554E+03  0.25500000000E-02 0.  1.
    5000001    1    1    2    0    0  0.69477430776E+02 -0.15047742610E+03 -0.27715492612E+03  0.33198557533E+03  0.77000000000E+02 0.  0.
   -5000001    1    1    2    0    0 -0.69477430776E+02  0.15047742610E+03 -0.59896573566E+03  0.62622641404E+03  0.77000000000E+02 0.  0.
<mgrwt>
<rscale>  0 0.38805000E+03</rscale>
<asrwt>0</asrwt>
<pdfrwt beam="1">  1        2 0.14110250E+00 0.38805000E+03</pdfrwt>
<pdfrwt beam="2">  1       -2 0.63147182E-02 0.38805000E+03</pdfrwt>
<totfact> 0.40686491E+03</totfact>
</mgrwt>
</event>
<event>
 4    1  0.6086918E-004  0.2282930E+03  0.7818608E-02  0.1127847E+00
         -2   -1    0    0    0  501 -0.00000000000E+00  0.00000000000E+00  0.60396142866E+02  0.60396142920E+02  0.25500000000E-02 0.  1.
          2   -1    0    0  501    0  0.00000000000E+00 -0.00000000000E+00 -0.21573265904E+03  0.21573265906E+03  0.25500000000E-02 0. -1.
    5000001    1    1    2    0    0 -0.32428550568E+02  0.75526625850E+02 -0.55217139694E+02  0.12543450331E+03  0.77000000000E+02 0.  0.
   -5000001    1    1    2    0    0  0.32428550568E+02 -0.75526625850E+02 -0.10011937648E+03  0.15069429867E+03  0.77000000000E+02 0.  0.
<mgrwt>
<rscale>  0 0.22829297E+03</rscale>
<asrwt>0</asrwt>
<pdfrwt beam="1">  1        2 0.33189639E-01 0.22829297E+03</pdfrwt>
<pdfrwt beam="2">  1       -2 0.92917144E-02 0.22829297E+03</pdfrwt>
<totfact> 0.11448645E+04</totfact>
</mgrwt>
</event>
<event>
 4    1  0.6086918E-004  0.2289384E+03  0.7818608E-02  0.1127389E+00
         -2   -1    0    0    0  501 -0.00000000000E+00  0.00000000000E+00  0.82124670861E+01  0.82124674820E+01  0.25500000000E-02 0. -1.
          2   -1    0    0  501    0  0.00000000000E+00 -0.00000000000E+00 -0.15955249628E+04  0.15955249628E+04  0.25500000000E-02 0.  1.
    5000001    1    1    2    0    0 -0.75399302522E+02  0.21217141023E+02 -0.10194527039E+04  0.10253526405E+04  0.77000000000E+02 0.  0.
   -5000001    1    1    2    0    0  0.75399302522E+02 -0.21217141023E+02 -0.56785979187E+03  0.57838478984E+03  0.77000000000E+02 0.  0.
<mgrwt>
<rscale>  0 0.22893839E+03</rscale>
<asrwt>0</asrwt>
<pdfrwt beam="1">  1        2 0.24546513E+00 0.22893839E+03</pdfrwt>
<pdfrwt beam="2">  1       -2 0.12634578E-02 0.22893839E+03</pdfrwt>
<totfact> 0.18267162E+04</totfact>
</mgrwt>
</event>
<event>
 4    1  0.6086918E-004  0.2201507E+03  0.7818608E-02  0.1133771E+00
         -2   -1    0    0    0  501 -0.00000000000E+00  0.00000000000E+00  0.56720416213E+02  0.56720416271E+02  0.25500000000E-02 0. -1.
          2   -1    0    0  501    0  0.00000000000E+00 -0.00000000000E+00 -0.21361935054E+03  0.21361935055E+03  0.25500000000E-02 0.  1.
    5000001    1    1    2    0    0 -0.38448069909E+02  0.52175472898E+02 -0.23710861763E+02  0.10340086565E+03  0.77000000000E+02 0.  0.
   -5000001    1    1    2    0    0  0.38448069909E+02 -0.52175472898E+02 -0.13318807256E+03  0.16693890117E+03  0.77000000000E+02 0.  0.
<mgrwt>
<rscale>  0 0.22015066E+03</rscale>
<asrwt>0</asrwt>
<pdfrwt beam="1">  1        2 0.32864515E-01 0.22015066E+03</pdfrwt>
<pdfrwt beam="2">  1       -2 0.87262180E-02 0.22015066E+03</pdfrwt>
<totfact> 0.12743960E+04</totfact>
</mgrwt>
</event>
<event>
 4    1  0.6086918E-004  0.3427716E+03  0.7818608E-02  0.1065622E+00
         -2   -1    0    0    0  501 -0.00000000000E+00  0.00000000000E+00  0.61001271487E+02  0.61001271541E+02  0.25500000000E-02 0. -1.
          2   -1    0    0  501    0  0.00000000000E+00 -0.00000000000E+00 -0.48151614734E+03  0.48151614735E+03  0.25500000000E-02 0.  1.
    5000001    1    1    2    0    0  0.66652974918E+02 -0.13720201865E+03 -0.23131939860E+03  0.28758420881E+03  0.77000000000E+02 0.  0.
   -5000001    1    1    2    0    0 -0.66652974918E+02  0.13720201865E+03 -0.18919547725E+03  0.25493321008E+03  0.77000000000E+02 0.  0.
<mgrwt>
<rscale>  0 0.34277163E+03</rscale>
<asrwt>0</asrwt>
<pdfrwt beam="1">  1        2 0.74079405E-01 0.34277163E+03</pdfrwt>
<pdfrwt beam="2">  1       -2 0.93848113E-02 0.34277163E+03</pdfrwt>
<totfact> 0.47853926E+03</totfact>
</mgrwt>
</event>
<event>
 4    1  0.6086918E-004  0.2233517E+03  0.7818608E-02  0.1131409E+00
         -2   -1    0    0    0  501 -0.00000000000E+00  0.00000000000E+00  0.72297647584E+01  0.72297652081E+01  0.25500000000E-02 0. -1.
          2   -1    0    0  501    0  0.00000000000E+00 -0.00000000000E+00 -0.17250202617E+04  0.17250202617E+04  0.25500000000E-02 0.  1.
    5000001    1    1    2    0    0  0.29406094581E+02  0.28945172302E+02 -0.13984578182E+04  0.14011837176E+04  0.77000000000E+02 0.  0.
   -5000001    1    1    2    0    0 -0.29406094581E+02 -0.28945172302E+02 -0.31933267880E+03  0.33106630929E+03  0.77000000000E+02 0.  0.
<mgrwt>
<rscale>  0 0.22335166E+03</rscale>
<asrwt>0</asrwt>
<pdfrwt beam="1">  1        2 0.26538740E+00 0.22335166E+03</pdfrwt>
<pdfrwt beam="2">  1       -2 0.11122729E-02 0.22335166E+03</pdfrwt>
<totfact> 0.18778206E+04</totfact>
</mgrwt>
</event>
<event>
 4    1  0.6086918E-004  0.2935564E+03  0.7818608E-02  0.1088507E+00
         -2   -1    0    0    0  501 -0.00000000000E+00  0.00000000000E+00  0.13839192438E+02  0.13839192673E+02  0.25500000000E-02 0. -1.
          2   -1    0    0  501    0  0.00000000000E+00 -0.00000000000E+00 -0.15567262852E+04  0.15567262852E+04  0.25500000000E-02 0.  1.
    5000001    1    1    2    0    0  0.92547426292E+02  0.70992111358E+02 -0.53158517190E+03  0.54965143588E+03  0.77000000000E+02 0.  0.
   -5000001    1    1    2    0    0 -0.92547426292E+02 -0.70992111358E+02 -0.10113019208E+04  0.10209140420E+04  0.77000000000E+02 0.  0.
<mgrwt>
<rscale>  0 0.29355636E+03</rscale>
<asrwt>0</asrwt>
<pdfrwt beam="1">  1        2 0.23949621E+00 0.29355636E+03</pdfrwt>
<pdfrwt beam="2">  1       -2 0.21291078E-02 0.29355636E+03</pdfrwt>
<totfact> 0.89808612E+03</totfact>
</mgrwt>
</event>
<event>
 4    1  0.6086918E-004  0.2459354E+03  0.7818608E-02  0.1115901E+00
          2   -1    0    0  501    0  0.00000000000E+00  0.00000000000E+00  0.32678226790E+03  0.32678226791E+03  0.25500000000E-02 0.  1.
         -2   -1    0    0    0  501 -0.00000000000E+00 -0.00000000000E+00 -0.46272565330E+02  0.46272565401E+02  0.25500000000E-02 0. -1.
    5000001    1    1    2    0    0  0.22840790824E+02 -0.70405649851E+02  0.23269003590E+03  0.25603185361E+03  0.77000000000E+02 0.  0.
   -5000001    1    1    2    0    0 -0.22840790824E+02  0.70405649851E+02  0.47819666663E+02  0.11702297969E+03  0.77000000000E+02 0.  0.
<mgrwt>
<rscale>  0 0.24593539E+03</rscale>
<asrwt>0</asrwt>
<pdfrwt beam="1">  1        2 0.50274193E-01 0.24593539E+03</pdfrwt>
<pdfrwt beam="2">  1       -2 0.71188565E-02 0.24593539E+03</pdfrwt>
<totfact> 0.11140320E+04</totfact>
</mgrwt>
</event>
<event>
 4    1  0.6086918E-004  0.3710184E+03  0.7818608E-02  0.1054304E+00
         -2   -1    0    0    0  501 -0.00000000000E+00  0.00000000000E+00  0.51555032510E+02  0.51555032574E+02  0.25500000000E-02 0. -1.
          2   -1    0    0  501    0  0.00000000000E+00 -0.00000000000E+00 -0.66751334610E+03  0.66751334610E+03  0.25500000000E-02 0.  1.
    5000001    1    1    2    0    0 -0.12690345912E+03  0.10720798460E+03 -0.36568854646E+03  0.40896840087E+03  0.77000000000E+02 0.  0.
   -5000001    1    1    2    0    0  0.12690345912E+03 -0.10720798460E+03 -0.25026976713E+03  0.31009997781E+03  0.77000000000E+02 0.  0.
<mgrwt>
<rscale>  0 0.37101845E+03</rscale>
<asrwt>0</asrwt>
<pdfrwt beam="1">  1        2 0.10269435E+00 0.37101845E+03</pdfrwt>
<pdfrwt beam="2">  1       -2 0.79315440E-02 0.37101845E+03</pdfrwt>
<totfact> 0.42802206E+03</totfact>
</mgrwt>
</event>
<event>
 4    1  0.6086918E-004  0.1986167E+03  0.7818608E-02  0.1150911E+00
          2   -1    0    0  501    0  0.00000000000E+00  0.00000000000E+00  0.12787580401E+04  0.12787580401E+04  0.25500000000E-02 0.  1.
         -2   -1    0    0    0  501 -0.00000000000E+00 -0.00000000000E+00 -0.77122845510E+01  0.77122849726E+01  0.25500000000E-02 0. -1.
    5000001    1    1    2    0    0  0.56382961402E+02 -0.20983393899E+02  0.75026265054E+03  0.75659922413E+03  0.77000000000E+02 0.  0.
   -5000001    1    1    2    0    0 -0.56382961402E+02  0.20983393899E+02  0.52078310501E+03  0.52987110094E+03  0.77000000000E+02 0.  0.
<mgrwt>
<rscale>  0 0.19861668E+03</rscale>
<asrwt>0</asrwt>
<pdfrwt beam="1">  1        2 0.19673184E+00 0.19861668E+03</pdfrwt>
<pdfrwt beam="2">  1       -2 0.11865064E-02 0.19861668E+03</pdfrwt>
<totfact> 0.29378257E+04</totfact>
</mgrwt>
</event>
<event>
 4    1  0.6086918E-004  0.1667682E+03  0.7818608E-02  0.1181261E+00
          2   -1    0    0  501    0  0.00000000000E+00  0.00000000000E+00  0.62423543642E+02  0.62423543694E+02  0.25500000000E-02 0.  1.
         -2   -1    0    0    0  501 -0.00000000000E+00 -0.00000000000E+00 -0.11138280406E+03  0.11138280409E+03  0.25500000000E-02 0. -1.
    5000001    1    1    2    0    0  0.12299816624E+02  0.29493727202E+02 -0.26206011902E+02  0.87389475871E+02  0.77000000000E+02 0.  0.
   -5000001    1    1    2    0    0 -0.12299816624E+02 -0.29493727202E+02 -0.22753248519E+02  0.86416871914E+02  0.77000000000E+02 0.  0.
<mgrwt>
<rscale>  0 0.16676821E+03</rscale>
<asrwt>0</asrwt>
<pdfrwt beam="1">  1        2 0.96036221E-02 0.16676821E+03</pdfrwt>
<pdfrwt beam="2">  1       -2 0.17135816E-01 0.16676821E+03</pdfrwt>
<totfact> 0.17465572E+04</totfact>
</mgrwt>
</event>
<event>
 4    1  0.6086918E-004  0.3547754E+03  0.7818608E-02  0.1060672E+00
         -2   -1    0    0    0  501 -0.00000000000E+00  0.00000000000E+00  0.13459439953E+03  0.13459439955E+03  0.25500000000E-02 0. -1.
          2   -1    0    0  501    0  0.00000000000E+00 -0.00000000000E+00 -0.23378677724E+03  0.23378677725E+03  0.25500000000E-02 0.  1.
    5000001    1    1    2    0    0 -0.10173351118E+03  0.12081633486E+03 -0.74841067554E+02  0.19098816575E+03  0.77000000000E+02 0.  0.
   -5000001    1    1    2    0    0  0.10173351118E+03 -0.12081633486E+03 -0.24351310156E+02  0.17739301105E+03  0.77000000000E+02 0.  0.
<mgrwt>
<rscale>  0 0.35477537E+03</rscale>
<asrwt>0</asrwt>
<pdfrwt beam="1">  1        2 0.35967196E-01 0.35477537E+03</pdfrwt>
<pdfrwt beam="2">  1       -2 0.20706831E-01 0.35477537E+03</pdfrwt>
<totfact> 0.28532038E+03</totfact>
</mgrwt>
</event>
<event>
 4    1  0.6086918E-004  0.4285951E+03  0.7818608E-02  0.1034305E+00
         -2   -1    0    0    0  501 -0.00000000000E+00  0.00000000000E+00  0.70788784160E+02  0.70788784206E+02  0.25500000000E-02 0. -1.
          2   -1    0    0  501    0  0.00000000000E+00 -0.00000000000E+00 -0.64873893791E+03  0.64873893791E+03  0.25500000000E-02 0.  1.
    5000001    1    1    2    0    0 -0.58689769510E+02  0.17507161403E+03 -0.16002489063E+03  0.25618650376E+03  0.77000000000E+02 0.  0.
   -5000001    1    1    2    0    0  0.58689769510E+02 -0.17507161403E+03 -0.41792526311E+03  0.46334121836E+03  0.77000000000E+02 0.  0.
<mgrwt>
<rscale>  0 0.42859510E+03</rscale>
<asrwt>0</asrwt>
<pdfrwt beam="1">  1        2 0.99805987E-01 0.42859510E+03</pdfrwt>
<pdfrwt beam="2">  1       -2 0.10890583E-01 0.42859510E+03</pdfrwt>
<totfact> 0.26756742E+03</totfact>
</mgrwt>
</event>
<event>
 4    1  0.6086918E-004  0.1985024E+03  0.7818608E-02  0.1151009E+00
          2   -1    0    0  501    0  0.00000000000E+00  0.00000000000E+00  0.27737847771E+04  0.27737847771E+04  0.25500000000E-02 0.  1.
         -2   -1    0    0    0  501 -0.00000000000E+00 -0.00000000000E+00 -0.35513922641E+01  0.35513931796E+01  0.25500000000E-02 0. -1.
    5000001    1    1    2    0    0 -0.20456591727E+02  0.55596136013E+02  0.16692487628E+04  0.16720735135E+04  0.77000000000E+02 0.  0.
   -5000001    1    1    2    0    0  0.20456591727E+02 -0.55596136013E+02  0.11009846221E+04  0.11052626568E+04  0.77000000000E+02 0.  0.
<mgrwt>
<rscale>  0 0.19850238E+03</rscale>
<asrwt>0</asrwt>
<pdfrwt beam="1">  1        2 0.42673610E+00 0.19850238E+03</pdfrwt>
<pdfrwt beam="2">  1       -2 0.54636813E-03 0.19850238E+03</pdfrwt>
<totfact> 0.14353826E+04</totfact>
</mgrwt>
</event>
<event>
 4    1  0.6086918E-004  0.1898494E+03  0.7818608E-02  0.1158597E+00
          2   -1    0    0  501    0  0.00000000000E+00  0.00000000000E+00  0.39362518296E+02  0.39362518378E+02  0.25500000000E-02 0.  1.
         -2   -1    0    0    0  501 -0.00000000000E+00 -0.00000000000E+00 -0.22891568397E+03  0.22891568398E+03  0.25500000000E-02 0. -1.
    5000001    1    1    2    0    0  0.50869017123E+02 -0.44344578820E+01 -0.63998769684E+02  0.11239289942E+03  0.77000000000E+02 0.  0.
   -5000001    1    1    2    0    0 -0.50869017123E+02  0.44344578820E+01 -0.12555439599E+03  0.15588530294E+03  0.77000000000E+02 0.  0.
<mgrwt>
<rscale>  0 0.18984939E+03</rscale>
<asrwt>0</asrwt>
<pdfrwt beam="1">  1        2 0.60557722E-02 0.18984939E+03</pdfrwt>
<pdfrwt beam="2">  1       -2 0.35217797E-01 0.18984939E+03</pdfrwt>
<totfact> 0.89523146E+03</totfact>
</mgrwt>
</event>
<event>
 4    1  0.6086918E-004  0.1992581E+03  0.7818608E-02  0.1150366E+00
         -2   -1    0    0    0  501 -0.00000000000E+00  0.00000000000E+00  0.10379409934E+03  0.10379409937E+03  0.25500000000E-02 0. -1.
          2   -1    0    0  501    0  0.00000000000E+00 -0.00000000000E+00 -0.95631114276E+02  0.95631114310E+02  0.25500000000E-02 0.  1.
    5000001    1    1    2    0    0  0.16101548786E+02 -0.61116212356E+02  0.25008973638E+01  0.99647909028E+02  0.77000000000E+02 0.  0.
   -5000001    1    1    2    0    0 -0.16101548786E+02  0.61116212356E+02  0.56620876963E+01  0.99777304649E+02  0.77000000000E+02 0.  0.
<mgrwt>
<rscale>  0 0.19925808E+03</rscale>
<asrwt>0</asrwt>
<pdfrwt beam="1">  1        2 0.14712479E-01 0.19925808E+03</pdfrwt>
<pdfrwt beam="2">  1       -2 0.15968323E-01 0.19925808E+03</pdfrwt>
<totfact> 0.11882790E+04</totfact>
</mgrwt>
</event>
<event>
 4    1  0.6086918E-004  0.3146912E+03  0.7818608E-02  0.1078119E+00
          2   -1    0    0  501    0  0.00000000000E+00  0.00000000000E+00  0.60290739157E+03  0.60290739158E+03  0.25500000000E-02 0.  1.
         -2   -1    0    0    0  501 -0.00000000000E+00 -0.00000000000E+00 -0.41063748672E+02  0.41063748751E+02  0.25500000000E-02 0. -1.
    5000001    1    1    2    0    0 -0.10610170980E+03 -0.86804639334E+02  0.26864036094E+03  0.31127039975E+03  0.77000000000E+02 0.  0.
   -5000001    1    1    2    0    0  0.10610170980E+03  0.86804639334E+02  0.29320328196E+03  0.33270074058E+03  0.77000000000E+02 0.  0.
<mgrwt>
<rscale>  0 0.31469120E+03</rscale>
<asrwt>0</asrwt>
<pdfrwt beam="1">  1        2 0.92754971E-01 0.31469120E+03</pdfrwt>
<pdfrwt beam="2">  1       -2 0.63175006E-02 0.31469120E+03</pdfrwt>
<totfact> 0.68637835E+03</totfact>
</mgrwt>
</event>
<event>
 4    1  0.6086918E-004  0.2690337E+03  0.7818608E-02  0.1101834E+00
          2   -1    0    0  501    0  0.00000000000E+00  0.00000000000E+00  0.12051781455E+03  0.12051781458E+03  0.25500000000E-02 0.  1.
         -2   -1    0    0    0  501 -0.00000000000E+00 -0.00000000000E+00 -0.15014202201E+03  0.15014202203E+03  0.25500000000E-02 0. -1.
    5000001    1    1    2    0    0 -0.10700846568E+03 -0.17524599599E+02 -0.35129839771E+02  0.13755373117E+03  0.77000000000E+02 0.  0.
   -5000001    1    1    2    0    0  0.10700846568E+03  0.17524599599E+02  0.55056323098E+01  0.13310610544E+03  0.77000000000E+02 0.  0.
<mgrwt>
<rscale>  0 0.26903374E+03</rscale>
<asrwt>0</asrwt>
<pdfrwt beam="1">  1        2 0.18541202E-01 0.26903374E+03</pdfrwt>
<pdfrwt beam="2">  1       -2 0.23098773E-01 0.26903374E+03</pdfrwt>
<totfact> 0.49199914E+03</totfact>
</mgrwt>
</event>
<event>
 4    1  0.6086918E-004  0.1814893E+03  0.7818608E-02  0.1166369E+00
          2   -1    0    0  501    0  0.00000000000E+00  0.00000000000E+00  0.74533251078E+03  0.74533251078E+03  0.25500000000E-02 0.  1.
         -2   -1    0    0    0  501 -0.00000000000E+00 -0.00000000000E+00 -0.11048209520E+02  0.11048209815E+02  0.25500000000E-02 0. -1.
    5000001    1    1    2    0    0 -0.32130436947E+02  0.34626857926E+02  0.33124104955E+03  0.34333805087E+03  0.77000000000E+02 0.  0.
   -5000001    1    1    2    0    0  0.32130436947E+02 -0.34626857926E+02  0.40304325171E+03  0.41304266973E+03  0.77000000000E+02 0.  0.
<mgrwt>
<rscale>  0 0.18148928E+03</rscale>
<asrwt>0</asrwt>
<pdfrwt beam="1">  1        2 0.11466652E+00 0.18148928E+03</pdfrwt>
<pdfrwt beam="2">  1       -2 0.16997249E-02 0.18148928E+03</pdfrwt>
<totfact> 0.36730915E+04</totfact>
</mgrwt>
</event>
<event>
 4    1  0.6086918E-004  0.4393254E+03  0.7818608E-02  0.1030954E+00
          2   -1    0    0  501    0  0.00000000000E+00  0.00000000000E+00  0.28625460670E+03  0.28625460671E+03  0.25500000000E-02 0.  1.
         -2   -1    0    0    0  501 -0.00000000000E+00 -0.00000000000E+00 -0.16856216951E+03  0.16856216952E+03  0.25500000000E-02 0. -1.
    5000001    1    1    2    0    0 -0.18578518927E+03 -0.77498955672E+02  0.14918012195E+02  0.21604113444E+03  0.77000000000E+02 0.  0.
   -5000001    1    1    2    0    0  0.18578518927E+03  0.77498955672E+02  0.10277442499E+03  0.23877564179E+03  0.77000000000E+02 0.  0.
<mgrwt>
<rscale>  0 0.43932538E+03</rscale>
<asrwt>0</asrwt>
<pdfrwt beam="1">  1        2 0.44039170E-01 0.43932538E+03</pdfrwt>
<pdfrwt beam="2">  1       -2 0.25932642E-01 0.43932538E+03</pdfrwt>
<totfact> 0.15429762E+03</totfact>
</mgrwt>
</event>
<event>
 4    1  0.6086918E-004  0.3507630E+03  0.7818608E-02  0.1062302E+00
          2   -1    0    0  501    0  0.00000000000E+00  0.00000000000E+00  0.21252297779E+03  0.21252297781E+03  0.25500000000E-02 0.  1.
         -2   -1    0    0    0  501 -0.00000000000E+00 -0.00000000000E+00 -0.14473100135E+03  0.14473100137E+03  0.25500000000E-02 0. -1.
    5000001    1    1    2    0    0  0.52395426949E+02 -0.79230865302E+02  0.16194789544E+03  0.20292592643E+03  0.77000000000E+02 0.  0.
   -5000001    1    1    2    0    0 -0.52395426949E+02  0.79230865302E+02 -0.94155918996E+02  0.15432805274E+03  0.77000000000E+02 0.  0.
<mgrwt>
<rscale>  0 0.35076296E+03</rscale>
<asrwt>0</asrwt>
<pdfrwt beam="1">  1        2 0.32695843E-01 0.35076296E+03</pdfrwt>
<pdfrwt beam="2">  1       -2 0.22266308E-01 0.35076296E+03</pdfrwt>
<totfact> 0.27916947E+03</totfact>
</mgrwt>
</event>
<event>
 4    1  0.6086918E-004  0.3445055E+03  0.7818608E-02  0.1064893E+00
          2   -1    0    0  501    0  0.00000000000E+00  0.00000000000E+00  0.21349619926E+03  0.21349619928E+03  0.25500000000E-02 0.  1.
         -2   -1    0    0    0  501 -0.00000000000E+00 -0.00000000000E+00 -0.13897676786E+03  0.13897676788E+03  0.25500000000E-02 0. -1.
    5000001    1    1    2    0    0  0.15249870180E+03 -0.51014140034E+01  0.15312903294E+02  0.17159651361E+03  0.77000000000E+02 0.  0.
   -5000001    1    1    2    0    0 -0.15249870180E+03  0.51014140034E+01  0.59206528113E+02  0.18087645355E+03  0.77000000000E+02 0.  0.
<mgrwt>
<rscale>  0 0.34450551E+03</rscale>
<asrwt>0</asrwt>
<pdfrwt beam="1">  1        2 0.32845569E-01 0.34450551E+03</pdfrwt>
<pdfrwt beam="2">  1       -2 0.21381041E-01 0.34450551E+03</pdfrwt>
<totfact> 0.29799252E+03</totfact>
</mgrwt>
</event>
<event>
 4    1  0.6086918E-004  0.1789601E+03  0.7818608E-02  0.1168813E+00
          2   -1    0    0  501    0  0.00000000000E+00  0.00000000000E+00  0.15984208430E+03  0.15984208432E+03  0.25500000000E-02 0.  1.
         -2   -1    0    0    0  501 -0.00000000000E+00 -0.00000000000E+00 -0.50091198401E+02  0.50091198465E+02  0.25500000000E-02 0. -1.
    5000001    1    1    2    0    0  0.31678137240E+02  0.31079090461E+02  0.67081452990E+02  0.11134781353E+03  0.77000000000E+02 0.  0.
   -5000001    1    1    2    0    0 -0.31678137240E+02 -0.31079090461E+02  0.42669432904E+02  0.98585469250E+02  0.77000000000E+02 0.  0.
<mgrwt>
<rscale>  0 0.17896012E+03</rscale>
<asrwt>0</asrwt>
<pdfrwt beam="1">  1        2 0.24591090E-01 0.17896012E+03</pdfrwt>
<pdfrwt beam="2">  1       -2 0.77063382E-02 0.17896012E+03</pdfrwt>
<totfact> 0.20944875E+04</totfact>
</mgrwt>
</event>
<event>
 4    1  0.6086918E-004  0.1657602E+03  0.7818608E-02  0.1182343E+00
         -2   -1    0    0    0  501 -0.00000000000E+00  0.00000000000E+00  0.79154974001E+01  0.79154978109E+01  0.25500000000E-02 0. -1.
          2   -1    0    0  501    0  0.00000000000E+00 -0.00000000000E+00 -0.86780541449E+03  0.86780541450E+03  0.25500000000E-02 0.  1.
    5000001    1    1    2    0    0  0.38688885906E+01 -0.30316969270E+02 -0.41697748778E+03  0.42512740707E+03  0.77000000000E+02 0.  0.
   -5000001    1    1    2    0    0 -0.38688885906E+01  0.30316969270E+02 -0.44291242931E+03  0.45059350524E+03  0.77000000000E+02 0.  0.
<mgrwt>
<rscale>  0 0.16576021E+03</rscale>
<asrwt>0</asrwt>
<pdfrwt beam="1">  1        2 0.13350845E+00 0.16576021E+03</pdfrwt>
<pdfrwt beam="2">  1       -2 0.12177695E-02 0.16576021E+03</pdfrwt>
<totfact> 0.48770668E+04</totfact>
</mgrwt>
</event>
<event>
 4    1  0.6086918E-004  0.1892777E+03  0.7818608E-02  0.1159114E+00
          2   -1    0    0  501    0  0.00000000000E+00  0.00000000000E+00  0.23519818926E+03  0.23519818927E+03  0.25500000000E-02 0.  1.
         -2   -1    0    0    0  501 -0.00000000000E+00 -0.00000000000E+00 -0.38080718580E+02  0.38080718666E+02  0.25500000000E-02 0. -1.
    5000001    1    1    2    0    0 -0.50129171722E+02  0.22603673765E+02  0.10131942894E+03  0.13863075635E+03  0.77000000000E+02 0.  0.
   -5000001    1    1    2    0    0  0.50129171722E+02 -0.22603673765E+02  0.95798041740E+02  0.13464815159E+03  0.77000000000E+02 0.  0.
<mgrwt>
<rscale>  0 0.18927774E+03</rscale>
<asrwt>0</asrwt>
<pdfrwt beam="1">  1        2 0.36184336E-01 0.18927774E+03</pdfrwt>
<pdfrwt beam="2">  1       -2 0.58585722E-02 0.18927774E+03</pdfrwt>
<totfact> 0.21024423E+04</totfact>
</mgrwt>
</event>
<event>
 4    1  0.6086918E-004  0.2324667E+03  0.7818608E-02  0.1124916E+00
          2   -1    0    0  501    0  0.00000000000E+00  0.00000000000E+00  0.73343388574E+03  0.73343388575E+03  0.25500000000E-02 0. -1.
         -2   -1    0    0    0  501 -0.00000000000E+00 -0.00000000000E+00 -0.18420461376E+02  0.18420461552E+02  0.25500000000E-02 0.  1.
    5000001    1    1    2    0    0 -0.59033675942E+02 -0.61187669331E+02  0.41821108406E+03  0.43365702646E+03  0.77000000000E+02 0.  0.
   -5000001    1    1    2    0    0  0.59033675942E+02  0.61187669331E+02  0.29680234031E+03  0.31819732083E+03  0.77000000000E+02 0.  0.
<mgrwt>
<rscale>  0 0.23246669E+03</rscale>
<asrwt>0</asrwt>
<pdfrwt beam="1">  1        2 0.11283599E+00 0.23246669E+03</pdfrwt>
<pdfrwt beam="2">  1       -2 0.28339168E-02 0.23246669E+03</pdfrwt>
<totfact> 0.17997395E+04</totfact>
</mgrwt>
</event>
<event>
 4    1  0.6086918E-004  0.1617993E+03  0.7818608E-02  0.1186680E+00
          2   -1    0    0  501    0  0.00000000000E+00  0.00000000000E+00  0.15894677265E+04  0.15894677265E+04  0.25500000000E-02 0.  1.
         -2   -1    0    0    0  501 -0.00000000000E+00 -0.00000000000E+00 -0.41175748076E+01  0.41175755972E+01  0.25500000000E-02 0. -1.
    5000001    1    1    2    0    0  0.20349442149E+02 -0.72718786445E+01  0.91280759503E+03  0.91630436295E+03  0.77000000000E+02 0.  0.
   -5000001    1    1    2    0    0 -0.20349442149E+02  0.72718786445E+01  0.67254255670E+03  0.67728093919E+03  0.77000000000E+02 0.  0.
<mgrwt>
<rscale>  0 0.16179929E+03</rscale>
<asrwt>0</asrwt>
<pdfrwt beam="1">  1        2 0.24453341E+00 0.16179929E+03</pdfrwt>
<pdfrwt beam="2">  1       -2 0.63347334E-03 0.16179929E+03</pdfrwt>
<totfact> 0.48727428E+04</totfact>
</mgrwt>
</event>
<event>
 4    1  0.6086918E-004  0.2770157E+03  0.7818608E-02  0.1097330E+00
          2   -1    0    0  501    0  0.00000000000E+00  0.00000000000E+00  0.96932381188E+03  0.96932381188E+03  0.25500000000E-02 0.  1.
         -2   -1    0    0    0  501 -0.00000000000E+00 -0.00000000000E+00 -0.19791549555E+02  0.19791549720E+02  0.25500000000E-02 0. -1.
    5000001    1    1    2    0    0  0.54210839603E+02  0.55695356417E+02  0.17148197929E+03  0.20341056285E+03  0.77000000000E+02 0.  0.
   -5000001    1    1    2    0    0 -0.54210839603E+02 -0.55695356417E+02  0.77805028303E+03  0.78570479875E+03  0.77000000000E+02 0.  0.
<mgrwt>
<rscale>  0 0.27701567E+03</rscale>
<asrwt>0</asrwt>
<pdfrwt beam="1">  1        2 0.14912671E+00 0.27701567E+03</pdfrwt>
<pdfrwt beam="2">  1       -2 0.30448544E-02 0.27701567E+03</pdfrwt>
<totfact> 0.11339383E+04</totfact>
</mgrwt>
</event>
<event>
 4    1  0.6086918E-004  0.2613296E+03  0.7818608E-02  0.1106347E+00
          2   -1    0    0  501    0  0.00000000000E+00  0.00000000000E+00  0.47994722110E+03  0.47994722111E+03  0.25500000000E-02 0.  1.
         -2   -1    0    0    0  501 -0.00000000000E+00 -0.00000000000E+00 -0.35573277214E+02  0.35573277305E+02  0.25500000000E-02 0. -1.
    5000001    1    1    2    0    0 -0.13866805811E+02 -0.59761216523E+02  0.39166102795E+03  0.40384533193E+03  0.77000000000E+02 0.  0.
   -5000001    1    1    2    0    0  0.13866805811E+02  0.59761216523E+02  0.52712915940E+02  0.11167516649E+03  0.77000000000E+02 0.  0.
<mgrwt>
<rscale>  0 0.26132964E+03</rscale>
<asrwt>0</asrwt>
<pdfrwt beam="1">  1        2 0.73838035E-01 0.26132964E+03</pdfrwt>
<pdfrwt beam="2">  1       -2 0.54728118E-02 0.26132964E+03</pdfrwt>
<totfact> 0.11016512E+04</totfact>
</mgrwt>
</event>
<event>
 4    1  0.6086918E-004  0.2743456E+03  0.7818608E-02  0.1098818E+00
          2   -1    0    0  501    0  0.00000000000E+00  0.00000000000E+00  0.51459283241E+02  0.51459283305E+02  0.25500000000E-02 0.  1.
         -2   -1    0    0    0  501 -0.00000000000E+00 -0.00000000000E+00 -0.36565572000E+03  0.36565572000E+03  0.25500000000E-02 0. -1.
    5000001    1    1    2    0    0  0.10895764619E+03  0.28882169364E+01 -0.10884448840E+03  0.17220985197E+03  0.77000000000E+02 0.  0.
   -5000001    1    1    2    0    0 -0.10895764619E+03 -0.28882169364E+01 -0.20535194835E+03  0.24490515134E+03  0.77000000000E+02 0.  0.
<mgrwt>
<rscale>  0 0.27434563E+03</rscale>
<asrwt>0</asrwt>
<pdfrwt beam="1">  1        2 0.79168130E-02 0.27434563E+03</pdfrwt>
<pdfrwt beam="2">  1       -2 0.56254725E-01 0.27434563E+03</pdfrwt>
<totfact> 0.25962787E+03</totfact>
</mgrwt>
</event>
<event>
 4    1  0.6086918E-004  0.3039342E+03  0.7818608E-02  0.1083290E+00
         -2   -1    0    0    0  501 -0.00000000000E+00  0.00000000000E+00  0.76822040411E+02  0.76822040453E+02  0.25500000000E-02 0. -1.
          2   -1    0    0  501    0  0.00000000000E+00 -0.00000000000E+00 -0.30061678941E+03  0.30061678942E+03  0.25500000000E-02 0.  1.
    5000001    1    1    2    0    0  0.89410889679E+02  0.76750802462E+02 -0.40775348548E+02  0.14654904272E+03  0.77000000000E+02 0.  0.
   -5000001    1    1    2    0    0 -0.89410889679E+02 -0.76750802462E+02 -0.18301940045E+03  0.23088978715E+03  0.77000000000E+02 0.  0.
<mgrwt>
<rscale>  0 0.30393417E+03</rscale>
<asrwt>0</asrwt>
<pdfrwt beam="1">  1        2 0.46248736E-01 0.30393417E+03</pdfrwt>
<pdfrwt beam="2">  1       -2 0.11818776E-01 0.30393417E+03</pdfrwt>
<totfact> 0.55169123E+03</totfact>
</mgrwt>
</event>
<event>
 4    1  0.6086918E-004  0.4194532E+03  0.7818608E-02  0.1037244E+00
         -2   -1    0    0    0  501 -0.00000000000E+00  0.00000000000E+00  0.28264729416E+03  0.28264729418E+03  0.25500000000E-02 0. -1.
          2   -1    0    0  501    0  0.00000000000E+00 -0.00000000000E+00 -0.15561882034E+03  0.15561882036E+03  0.25500000000E-02 0.  1.
    5000001    1    1    2    0    0  0.12523639514E+03 -0.14733223482E+03  0.36564035609E+02  0.21132172341E+03  0.77000000000E+02 0.  0.
   -5000001    1    1    2    0    0 -0.12523639514E+03  0.14733223482E+03  0.90464438213E+02  0.22694439113E+03  0.77000000000E+02 0.  0.
<mgrwt>
<rscale>  0 0.41945316E+03</rscale>
<asrwt>0</asrwt>
<pdfrwt beam="1">  1        2 0.23941357E-01 0.41945316E+03</pdfrwt>
<pdfrwt beam="2">  1       -2 0.43484198E-01 0.41945316E+03</pdfrwt>
<totfact> 0.11530834E+03</totfact>
</mgrwt>
</event>
<event>
 4    1  0.6086918E-004  0.2132047E+03  0.7818608E-02  0.1139053E+00
          2   -1    0    0  501    0  0.00000000000E+00  0.00000000000E+00  0.29488040320E+02  0.29488040430E+02  0.25500000000E-02 0.  1.
         -2   -1    0    0    0  501 -0.00000000000E+00 -0.00000000000E+00 -0.38537849745E+03  0.38537849746E+03  0.25500000000E-02 0. -1.
    5000001    1    1    2    0    0  0.64965388568E+02  0.28097062771E+02 -0.13782509220E+03  0.17301648097E+03  0.77000000000E+02 0.  0.
   -5000001    1    1    2    0    0 -0.64965388568E+02 -0.28097062771E+02 -0.21806536493E+03  0.24185005691E+03  0.77000000000E+02 0.  0.
<mgrwt>
<rscale>  0 0.21320466E+03</rscale>
<asrwt>0</asrwt>
<pdfrwt beam="1">  1        2 0.45366219E-02 0.21320466E+03</pdfrwt>
<pdfrwt beam="2">  1       -2 0.59288996E-01 0.21320466E+03</pdfrwt>
<totfact> 0.47581339E+03</totfact>
</mgrwt>
</event>
<event>
 4    1  0.6086918E-004  0.2124961E+03  0.7818608E-02  0.1139604E+00
          2   -1    0    0  501    0  0.00000000000E+00  0.00000000000E+00  0.10541017827E+04  0.10541017827E+04  0.25500000000E-02 0.  1.
         -2   -1    0    0    0  501 -0.00000000000E+00 -0.00000000000E+00 -0.10709254301E+02  0.10709254604E+02  0.25500000000E-02 0. -1.
    5000001    1    1    2    0    0 -0.82938012690E+01  0.57521926720E+02  0.29860488141E+03  0.31380158443E+03  0.77000000000E+02 0.  0.
   -5000001    1    1    2    0    0  0.82938012690E+01 -0.57521926720E+02  0.74478764701E+03  0.75100945289E+03  0.77000000000E+02 0.  0.
<mgrwt>
<rscale>  0 0.21249606E+03</rscale>
<asrwt>0</asrwt>
<pdfrwt beam="1">  1        2 0.16216958E+00 0.21249606E+03</pdfrwt>
<pdfrwt beam="2">  1       -2 0.16475769E-02 0.21249606E+03</pdfrwt>
<totfact> 0.24588205E+04</totfact>
</mgrwt>
</event>
<event>
 4    1  0.6086918E-004  0.5596398E+03  0.7818608E-02  0.9992870E-01
          2   -1    0    0  501    0  0.00000000000E+00  0.00000000000E+00  0.31870054525E+03  0.31870054526E+03  0.25500000000E-02 0.  1.
         -2   -1    0    0    0  501 -0.00000000000E+00 -0.00000000000E+00 -0.24568257861E+03  0.24568257863E+03  0.25500000000E-02 0. -1.
    5000001    1    1    2    0    0  0.18856791822E+03  0.12144217474E+03  0.18630789153E+03  0.30157203457E+03  0.77000000000E+02 0.  0.
   -5000001    1    1    2    0    0 -0.18856791822E+03 -0.12144217474E+03 -0.11328992490E+03  0.26281108932E+03  0.77000000000E+02 0.  0.
<mgrwt>
<rscale>  0 0.55963978E+03</rscale>
<asrwt>0</asrwt>
<pdfrwt beam="1">  1        2 0.49030853E-01 0.55963978E+03</pdfrwt>
<pdfrwt beam="2">  1       -2 0.37797320E-01 0.55963978E+03</pdfrwt>
<totfact> 0.68186983E+02</totfact>
</mgrwt>
</event>
<event>
 4    1  0.6086918E-004  0.3186541E+03  0.7818608E-02  0.1076270E+00
          2   -1    0    0  501    0  0.00000000000E+00  0.00000000000E+00  0.93949344314E+03  0.93949344314E+03  0.25500000000E-02 0.  1.
         -2   -1    0    0    0  501 -0.00000000000E+00 -0.00000000000E+00 -0.27019998670E+02  0.27019998791E+02  0.25500000000E-02 0. -1.
    5000001    1    1    2    0    0 -0.48418969358E+02 -0.69630755992E+02  0.12035098726E+03  0.16615113273E+03  0.77000000000E+02 0.  0.
   -5000001    1    1    2    0    0  0.48418969358E+02  0.69630755992E+02  0.79212245721E+03  0.80036230920E+03  0.77000000000E+02 0.  0.
<mgrwt>
<rscale>  0 0.31865412E+03</rscale>
<asrwt>0</asrwt>
<pdfrwt beam="1">  1        2 0.14453747E+00 0.31865412E+03</pdfrwt>
<pdfrwt beam="2">  1       -2 0.41569225E-02 0.31865412E+03</pdfrwt>
<totfact> 0.74476984E+03</totfact>
</mgrwt>
</event>
<event>
 4    1  0.6086918E-004  0.2026877E+03  0.7818608E-02  0.1147491E+00
          2   -1    0    0  501    0  0.00000000000E+00  0.00000000000E+00  0.70840064091E+03  0.70840064092E+03  0.25500000000E-02 0.  1.
         -2   -1    0    0    0  501 -0.00000000000E+00 -0.00000000000E+00 -0.14498252104E+02  0.14498252328E+02  0.25500000000E-02 0. -1.
    5000001    1    1    2    0    0 -0.31689544584E+02  0.19873041614E+02  0.15348656507E+03  0.17574495917E+03  0.77000000000E+02 0.  0.
   -5000001    1    1    2    0    0  0.31689544584E+02 -0.19873041614E+02  0.54041582374E+03  0.54715393407E+03  0.77000000000E+02 0.  0.
<mgrwt>
<rscale>  0 0.20268765E+03</rscale>
<asrwt>0</asrwt>
<pdfrwt beam="1">  1        2 0.10898472E+00 0.20268765E+03</pdfrwt>
<pdfrwt beam="2">  1       -2 0.22305003E-02 0.20268765E+03</pdfrwt>
<totfact> 0.26493472E+04</totfact>
</mgrwt>
</event>
<event>
 4    1  0.6086918E-004  0.2960844E+03  0.7818608E-02  0.1087215E+00
         -2   -1    0    0    0  501 -0.00000000000E+00  0.00000000000E+00  0.16215404498E+02  0.16215404698E+02  0.25500000000E-02 0. -1.
          2   -1    0    0  501    0  0.00000000000E+00 -0.00000000000E+00 -0.13515844450E+04  0.13515844451E+04  0.25500000000E-02 0.  1.
    5000001    1    1    2    0    0  0.26673550002E+02 -0.12140227786E+03 -0.56058310546E+03  0.57933790611E+03  0.77000000000E+02 0.  0.
   -5000001    1    1    2    0    0 -0.26673550002E+02  0.12140227786E+03 -0.77478593510E+03  0.78846194364E+03  0.77000000000E+02 0.  0.
<mgrwt>
<rscale>  0 0.29608437E+03</rscale>
<asrwt>0</asrwt>
<pdfrwt beam="1">  1        2 0.20793598E+00 0.29608437E+03</pdfrwt>
<pdfrwt beam="2">  1       -2 0.24946787E-02 0.29608437E+03</pdfrwt>
<totfact> 0.91715501E+03</totfact>
</mgrwt>
</event>
<event>
 4    1  0.6086918E-004  0.2802084E+03  0.7818608E-02  0.1095575E+00
          2   -1    0    0  501    0  0.00000000000E+00  0.00000000000E+00  0.17473585843E+03  0.17473585845E+03  0.25500000000E-02 0.  1.
         -2   -1    0    0    0  501 -0.00000000000E+00 -0.00000000000E+00 -0.11233632853E+03  0.11233632856E+03  0.25500000000E-02 0. -1.
    5000001    1    1    2    0    0 -0.60771972699E+02  0.99122524408E+02  0.17390825701E+02  0.14053450939E+03  0.77000000000E+02 0.  0.
   -5000001    1    1    2    0    0  0.60771972699E+02 -0.99122524408E+02  0.45008704198E+02  0.14653767763E+03  0.77000000000E+02 0.  0.
<mgrwt>
<rscale>  0 0.28020839E+03</rscale>
<asrwt>0</asrwt>
<pdfrwt beam="1">  1        2 0.26882440E-01 0.28020839E+03</pdfrwt>
<pdfrwt beam="2">  1       -2 0.17282512E-01 0.28020839E+03</pdfrwt>
<totfact> 0.53157210E+03</totfact>
</mgrwt>
</event>
<event>
 4    1  0.6086918E-004  0.5033906E+03  0.7818608E-02  0.1012898E+00
         -2   -1    0    0    0  501 -0.00000000000E+00  0.00000000000E+00  0.22348328615E+02  0.22348328760E+02  0.25500000000E-02 0. -1.
          2   -1    0    0  501    0  0.00000000000E+00 -0.00000000000E+00 -0.28346867721E+04  0.28346867721E+04  0.25500000000E-02 0.  1.
    5000001    1    1    2    0    0 -0.99149444014E+01  0.23746385882E+03 -0.15796343433E+04  0.15992689108E+04  0.77000000000E+02 0.  0.
   -5000001    1    1    2    0    0  0.99149444014E+01 -0.23746385882E+03 -0.12327041002E+04  0.12577661901E+04  0.77000000000E+02 0.  0.
<mgrwt>
<rscale>  0 0.50339055E+03</rscale>
<asrwt>0</asrwt>
<pdfrwt beam="1">  1        2 0.43610537E+00 0.50339055E+03</pdfrwt>
<pdfrwt beam="2">  1       -2 0.34382067E-02 0.50339055E+03</pdfrwt>
<totfact> 0.86999776E+02</totfact>
</mgrwt>
</event>
<event>
 4    1  0.6086918E-004  0.2328957E+03  0.7818608E-02  0.1124618E+00
         -2   -1    0    0    0  501 -0.00000000000E+00  0.00000000000E+00  0.40671148418E+02  0.40671148498E+02  0.25500000000E-02 0. -1.
          2   -1    0    0  501    0  0.00000000000E+00 -0.00000000000E+00 -0.33340837479E+03  0.33340837480E+03  0.25500000000E-02 0.  1.
    5000001    1    1    2    0    0  0.33841029065E+02 -0.78766743166E+02 -0.17332647461E+03  0.20813572946E+03  0.77000000000E+02 0.  0.
   -5000001    1    1    2    0    0 -0.33841029065E+02  0.78766743166E+02 -0.11941075176E+03  0.16594379384E+03  0.77000000000E+02 0.  0.
<mgrwt>
<rscale>  0 0.23289570E+03</rscale>
<asrwt>0</asrwt>
<pdfrwt beam="1">  1        2 0.51293594E-01 0.23289570E+03</pdfrwt>
<pdfrwt beam="2">  1       -2 0.62571000E-02 0.23289570E+03</pdfrwt>
<totfact> 0.13263331E+04</totfact>
</mgrwt>
</event>
<event>
 4    1  0.6086918E-004  0.3187856E+03  0.7818608E-02  0.1076210E+00
         -2   -1    0    0    0  501 -0.00000000000E+00  0.00000000000E+00  0.17824042169E+03  0.17824042170E+03  0.25500000000E-02 0. -1.
          2   -1    0    0  501    0  0.00000000000E+00 -0.00000000000E+00 -0.14253815463E+03  0.14253815465E+03  0.25500000000E-02 0.  1.
    5000001    1    1    2    0    0 -0.78430360676E+02 -0.96066946883E+02 -0.46555910857E+02  0.15322086214E+03  0.77000000000E+02 0.  0.
   -5000001    1    1    2    0    0  0.78430360676E+02  0.96066946883E+02  0.82258177914E+02  0.16755771422E+03  0.77000000000E+02 0.  0.
<mgrwt>
<rscale>  0 0.31878558E+03</rscale>
<asrwt>0</asrwt>
<pdfrwt beam="1">  1        2 0.21928947E-01 0.31878558E+03</pdfrwt>
<pdfrwt beam="2">  1       -2 0.27421603E-01 0.31878558E+03</pdfrwt>
<totfact> 0.30110716E+03</totfact>
</mgrwt>
</event>
<event>
 4    1  0.6086918E-004  0.2747283E+03  0.7818608E-02  0.1098604E+00
         -2   -1    0    0    0  501 -0.00000000000E+00  0.00000000000E+00  0.10572116618E+03  0.10572116621E+03  0.25500000000E-02 0. -1.
          2   -1    0    0  501    0  0.00000000000E+00 -0.00000000000E+00 -0.17847807819E+03  0.17847807820E+03  0.25500000000E-02 0.  1.
    5000001    1    1    2    0    0 -0.28413005677E+02  0.82856549492E+02  0.38700429999E+02  0.12287892402E+03  0.77000000000E+02 0.  0.
   -5000001    1    1    2    0    0  0.28413005677E+02 -0.82856549492E+02 -0.11145734201E+03  0.16132032040E+03  0.77000000000E+02 0.  0.
<mgrwt>
<rscale>  0 0.27472831E+03</rscale>
<asrwt>0</asrwt>
<pdfrwt beam="1">  1        2 0.27458166E-01 0.27472831E+03</pdfrwt>
<pdfrwt beam="2">  1       -2 0.16264795E-01 0.27472831E+03</pdfrwt>
<totfact> 0.57433316E+03</totfact>
</mgrwt>
</event>
<event>
 4    1  0.6086918E-004  0.2364154E+03  0.7818608E-02  0.1122204E+00
          2   -1    0    0  501    0  0.00000000000E+00  0.00000000000E+00  0.33132267430E+04  0.33132267430E+04  0.25500000000E-02 0.  1.
         -2   -1    0    0    0  501 -0.00000000000E+00 -0.00000000000E+00 -0.42173572821E+01  0.42173580530E+01  0.25500000000E-02 0. -1.
    5000001    1    1    2    0    0 -0.20452195479E+02  0.86484784236E+02  0.14848639308E+04  0.14895126059E+04  0.77000000000E+02 0.  0.
   -5000001    1    1    2    0    0  0.20452195479E+02 -0.86484784236E+02  0.18241454550E+04  0.18279314952E+04  0.77000000000E+02 0.  0.
<mgrwt>
<rscale>  0 0.23641542E+03</rscale>
<asrwt>0</asrwt>
<pdfrwt beam="1">  1        2 0.50972746E+00 0.23641542E+03</pdfrwt>
<pdfrwt beam="2">  1       -2 0.64882392E-03 0.23641542E+03</pdfrwt>
<totfact> 0.53605972E+03</totfact>
</mgrwt>
</event>
<event>
 4    1  0.6086918E-004  0.2916644E+03  0.7818608E-02  0.1089483E+00
          2   -1    0    0  501    0  0.00000000000E+00  0.00000000000E+00  0.27390218748E+02  0.27390218867E+02  0.25500000000E-02 0.  1.
         -2   -1    0    0    0  501 -0.00000000000E+00 -0.00000000000E+00 -0.77644606404E+03  0.77644606404E+03  0.25500000000E-02 0. -1.
    5000001    1    1    2    0    0 -0.10491262211E+03  0.10661849753E+02 -0.55351503441E+03  0.56870750534E+03  0.77000000000E+02 0.  0.
   -5000001    1    1    2    0    0  0.10491262211E+03 -0.10661849753E+02 -0.19554081088E+03  0.23512877757E+03  0.77000000000E+02 0.  0.
<mgrwt>
<rscale>  0 0.29166438E+03</rscale>
<asrwt>0</asrwt>
<pdfrwt beam="1">  1        2 0.42138804E-02 0.29166438E+03</pdfrwt>
<pdfrwt beam="2">  1       -2 0.11945322E+00 0.29166438E+03</pdfrwt>
<totfact> 0.11116835E+03</totfact>
</mgrwt>
</event>
<event>
 4    1  0.6086918E-004  0.2777491E+03  0.7818608E-02  0.1096925E+00
         -2   -1    0    0    0  501 -0.00000000000E+00  0.00000000000E+00  0.19378014712E+03  0.19378014714E+03  0.25500000000E-02 0. -1.
          2   -1    0    0  501    0  0.00000000000E+00 -0.00000000000E+00 -0.99525917299E+02  0.99525917332E+02  0.25500000000E-02 0.  1.
    5000001    1    1    2    0    0  0.99548176713E+02  0.58592184927E+02  0.43138904604E+02  0.14537141642E+03  0.77000000000E+02 0.  0.
   -5000001    1    1    2    0    0 -0.99548176713E+02 -0.58592184927E+02  0.51115325218E+02  0.14793464805E+03  0.77000000000E+02 0.  0.
<mgrwt>
<rscale>  0 0.27774915E+03</rscale>
<asrwt>0</asrwt>
<pdfrwt beam="1">  1        2 0.15311680E-01 0.27774915E+03</pdfrwt>
<pdfrwt beam="2">  1       -2 0.29812330E-01 0.27774915E+03</pdfrwt>
<totfact> 0.39136748E+03</totfact>
</mgrwt>
</event>
<event>
 4    1  0.6086918E-004  0.1925578E+03  0.7818608E-02  0.1156174E+00
         -2   -1    0    0    0  501 -0.00000000000E+00  0.00000000000E+00  0.54403077148E+02  0.54403077208E+02  0.25500000000E-02 0. -1.
          2   -1    0    0  501    0  0.00000000000E+00 -0.00000000000E+00 -0.17038793623E+03  0.17038793625E+03  0.25500000000E-02 0.  1.
    5000001    1    1    2    0    0 -0.45423114996E+02  0.10543895073E+02 -0.97858494839E+02  0.13296510110E+03  0.77000000000E+02 0.  0.
   -5000001    1    1    2    0    0  0.45423114996E+02 -0.10543895073E+02 -0.18126364246E+02  0.91825912356E+02  0.77000000000E+02 0.  0.
<mgrwt>
<rscale>  0 0.19255782E+03</rscale>
<asrwt>0</asrwt>
<pdfrwt beam="1">  1        2 0.26213528E-01 0.19255782E+03</pdfrwt>
<pdfrwt beam="2">  1       -2 0.83697043E-02 0.19255782E+03</pdfrwt>
<totfact> 0.17265777E+04</totfact>
</mgrwt>
</event>
<event>
 4    1  0.6086918E-004  0.1743934E+03  0.7818608E-02  0.1173342E+00
          2   -1    0    0  501    0  0.00000000000E+00  0.00000000000E+00  0.17684044731E+04  0.17684044731E+04  0.25500000000E-02 0.  1.
         -2   -1    0    0    0  501 -0.00000000000E+00 -0.00000000000E+00 -0.42995055216E+01  0.42995062778E+01  0.25500000000E-02 0. -1.
    5000001    1    1    2    0    0  0.30355217411E+02 -0.26586903751E+02  0.95096678440E+03  0.95493200162E+03  0.77000000000E+02 0.  0.
   -5000001    1    1    2    0    0 -0.30355217411E+02  0.26586903751E+02  0.81313818312E+03  0.81777197771E+03  0.77000000000E+02 0.  0.
<mgrwt>
<rscale>  0 0.17439341E+03</rscale>
<asrwt>0</asrwt>
<pdfrwt beam="1">  1        2 0.27206237E+00 0.17439341E+03</pdfrwt>
<pdfrwt beam="2">  1       -2 0.66146210E-03 0.17439341E+03</pdfrwt>
<totfact> 0.37199656E+04</totfact>
</mgrwt>
</event>
<event>
 4    1  0.6086918E-004  0.1962852E+03  0.7818608E-02  0.1152912E+00
          2   -1    0    0  501    0  0.00000000000E+00  0.00000000000E+00  0.23043518635E+03  0.23043518636E+03  0.25500000000E-02 0.  1.
         -2   -1    0    0    0  501 -0.00000000000E+00 -0.00000000000E+00 -0.41799055559E+02  0.41799055636E+02  0.25500000000E-02 0. -1.
    5000001    1    1    2    0    0 -0.60662639154E+02  0.43631748602E+01  0.91551115382E+02  0.13419985027E+03  0.77000000000E+02 0.  0.
   -5000001    1    1    2    0    0  0.60662639154E+02 -0.43631748602E+01  0.97085015407E+02  0.13803439173E+03  0.77000000000E+02 0.  0.
<mgrwt>
<rscale>  0 0.19628523E+03</rscale>
<asrwt>0</asrwt>
<pdfrwt beam="1">  1        2 0.35451567E-01 0.19628523E+03</pdfrwt>
<pdfrwt beam="2">  1       -2 0.64306240E-02 0.19628523E+03</pdfrwt>
<totfact> 0.18693869E+04</totfact>
</mgrwt>
</event>
<event>
 4    1  0.6086918E-004  0.4056601E+03  0.7818608E-02  0.1041837E+00
          2   -1    0    0  501    0  0.00000000000E+00  0.00000000000E+00  0.71170813383E+02  0.71170813428E+02  0.25500000000E-02 0.  1.
         -2   -1    0    0    0  501 -0.00000000000E+00 -0.00000000000E+00 -0.57804634750E+03  0.57804634751E+03  0.25500000000E-02 0. -1.
    5000001    1    1    2    0    0  0.40869209089E+02 -0.17186013826E+03 -0.35471683793E+03  0.40368209582E+03  0.77000000000E+02 0.  0.
   -5000001    1    1    2    0    0 -0.40869209089E+02  0.17186013826E+03 -0.15215869619E+03  0.24553506512E+03  0.77000000000E+02 0.  0.
<mgrwt>
<rscale>  0 0.40566010E+03</rscale>
<asrwt>0</asrwt>
<pdfrwt beam="1">  1        2 0.10949356E-01 0.40566010E+03</pdfrwt>
<pdfrwt beam="2">  1       -2 0.88930204E-01 0.40566010E+03</pdfrwt>
<totfact> 0.64685190E+02</totfact>
</mgrwt>
</event>
<event>
 4    1  0.6086918E-004  0.2071277E+03  0.7818608E-02  0.1143861E+00
         -2   -1    0    0    0  501 -0.00000000000E+00  0.00000000000E+00  0.87429477605E+01  0.87429481323E+01  0.25500000000E-02 0. -1.
          2   -1    0    0  501    0  0.00000000000E+00 -0.00000000000E+00 -0.12267562577E+04  0.12267562577E+04  0.25500000000E-02 0.  1.
    5000001    1    1    2    0    0 -0.31078699619E+01  0.56663742323E+02 -0.84580915934E+03  0.85120066528E+03  0.77000000000E+02 0.  0.
   -5000001    1    1    2    0    0  0.31078699619E+01 -0.56663742323E+02 -0.37220415062E+03  0.38429854058E+03  0.77000000000E+02 0.  0.
<mgrwt>
<rscale>  0 0.20712765E+03</rscale>
<asrwt>0</asrwt>
<pdfrwt beam="1">  1        2 0.18873160E+00 0.20712765E+03</pdfrwt>
<pdfrwt beam="2">  1       -2 0.13450699E-02 0.20712765E+03</pdfrwt>
<totfact> 0.26243475E+04</totfact>
</mgrwt>
</event>
<event>
 4    1  0.6086918E-004  0.2643429E+03  0.7818608E-02  0.1104562E+00
         -2   -1    0    0    0  501 -0.00000000000E+00  0.00000000000E+00  0.74199827307E+02  0.74199827351E+02  0.25500000000E-02 0. -1.
          2   -1    0    0  501    0  0.00000000000E+00 -0.00000000000E+00 -0.23543583876E+03  0.23543583878E+03  0.25500000000E-02 0.  1.
    5000001    1    1    2    0    0 -0.83206245760E+02  0.67432447536E+02 -0.70825970301E+02  0.14971884445E+03  0.77000000000E+02 0.  0.
   -5000001    1    1    2    0    0  0.83206245760E+02 -0.67432447536E+02 -0.90410041155E+02  0.15991682168E+03  0.77000000000E+02 0.  0.
<mgrwt>
<rscale>  0 0.26434295E+03</rscale>
<asrwt>0</asrwt>
<pdfrwt beam="1">  1        2 0.36220898E-01 0.26434295E+03</pdfrwt>
<pdfrwt beam="2">  1       -2 0.11415358E-01 0.26434295E+03</pdfrwt>
<totfact> 0.75589362E+03</totfact>
</mgrwt>
</event>
<event>
 4    1  0.6086918E-004  0.1872191E+03  0.7818608E-02  0.1160994E+00
         -2   -1    0    0    0  501 -0.00000000000E+00  0.00000000000E+00  0.27902263021E+02  0.27902263137E+02  0.25500000000E-02 0. -1.
          2   -1    0    0  501    0  0.00000000000E+00 -0.00000000000E+00 -0.31405141908E+03  0.31405141909E+03  0.25500000000E-02 0.  1.
    5000001    1    1    2    0    0  0.48212325865E+02 -0.16326202607E+02 -0.11461578038E+03  0.14716232660E+03  0.77000000000E+02 0.  0.
   -5000001    1    1    2    0    0 -0.48212325865E+02  0.16326202607E+02 -0.17153337567E+03  0.19479135563E+03  0.77000000000E+02 0.  0.
<mgrwt>
<rscale>  0 0.18721907E+03</rscale>
<asrwt>0</asrwt>
<pdfrwt beam="1">  1        2 0.48315600E-01 0.18721907E+03</pdfrwt>
<pdfrwt beam="2">  1       -2 0.42926561E-02 0.18721907E+03</pdfrwt>
<totfact> 0.24662454E+04</totfact>
</mgrwt>
</event>
<event>
 4    1  0.6086918E-004  0.2066736E+03  0.7818608E-02  0.1144228E+00
         -2   -1    0    0    0  501 -0.00000000000E+00  0.00000000000E+00  0.35848762626E+02  0.35848762717E+02  0.25500000000E-02 0. -1.
          2   -1    0    0  501    0  0.00000000000E+00 -0.00000000000E+00 -0.29787628959E+03  0.29787628960E+03  0.25500000000E-02 0.  1.
    5000001    1    1    2    0    0 -0.57919771157E+02 -0.35243818537E+02 -0.11106204543E+03  0.15119723731E+03  0.77000000000E+02 0.  0.
   -5000001    1    1    2    0    0  0.57919771157E+02  0.35243818537E+02 -0.15096548154E+03  0.18252781501E+03  0.77000000000E+02 0.  0.
<mgrwt>
<rscale>  0 0.20667362E+03</rscale>
<asrwt>0</asrwt>
<pdfrwt beam="1">  1        2 0.45827120E-01 0.20667362E+03</pdfrwt>
<pdfrwt beam="2">  1       -2 0.55151945E-02 0.20667362E+03</pdfrwt>
<totfact> 0.18009429E+04</totfact>
</mgrwt>
</event>
<event>
 4    1  0.6086918E-004  0.2574770E+03  0.7818608E-02  0.1108669E+00
         -2   -1    0    0    0  501 -0.00000000000E+00  0.00000000000E+00  0.39183210034E+02  0.39183210117E+02  0.25500000000E-02 0. -1.
          2   -1    0    0  501    0  0.00000000000E+00 -0.00000000000E+00 -0.42297716676E+03  0.42297716677E+03  0.25500000000E-02 0.  1.
    5000001    1    1    2    0    0 -0.75273421034E+02 -0.54800219265E+02 -0.27167576045E+03  0.29733124754E+03  0.77000000000E+02 0.  0.
   -5000001    1    1    2    0    0  0.75273421034E+02  0.54800219265E+02 -0.11211819628E+03  0.16482912935E+03  0.77000000000E+02 0.  0.
<mgrwt>
<rscale>  0 0.25747701E+03</rscale>
<asrwt>0</asrwt>
<pdfrwt beam="1">  1        2 0.65073407E-01 0.25747701E+03</pdfrwt>
<pdfrwt beam="2">  1       -2 0.60281865E-02 0.25747701E+03</pdfrwt>
<totfact> 0.10913094E+04</totfact>
</mgrwt>
</event>
<event>
 4    1  0.6086918E-004  0.2152266E+03  0.7818608E-02  0.1137493E+00
         -2   -1    0    0    0  501 -0.00000000000E+00  0.00000000000E+00  0.40383829251E+03  0.40383829252E+03  0.25500000000E-02 0. -1.
          2   -1    0    0  501    0  0.00000000000E+00 -0.00000000000E+00 -0.28676390251E+02  0.28676390364E+02  0.25500000000E-02 0.  1.
    5000001    1    1    2    0    0  0.60071663772E+02 -0.45183797714E+02  0.18999590561E+03  0.21835206551E+03  0.77000000000E+02 0.  0.
   -5000001    1    1    2    0    0 -0.60071663772E+02  0.45183797714E+02  0.18516599665E+03  0.21416261737E+03  0.77000000000E+02 0.  0.
<mgrwt>
<rscale>  0 0.21522662E+03</rscale>
<asrwt>0</asrwt>
<pdfrwt beam="1">  1        2 0.44117523E-02 0.21522662E+03</pdfrwt>
<pdfrwt beam="2">  1       -2 0.62128968E-01 0.21522662E+03</pdfrwt>
<totfact> 0.44841621E+03</totfact>
</mgrwt>
</event>
<event>
 4    1  0.6086918E-004  0.4171679E+03  0.7818608E-02  0.1037992E+00
         -2   -1    0    0    0  501 -0.00000000000E+00  0.00000000000E+00  0.96762410406E+03  0.96762410406E+03  0.25500000000E-02 0. -1.
          2   -1    0    0  501    0  0.00000000000E+00 -0.00000000000E+00 -0.44962983006E+02  0.44962983078E+02  0.25500000000E-02 0.  1.
    5000001    1    1    2    0    0 -0.17596627607E+03 -0.68134733962E+02  0.56911405276E+03  0.60450498537E+03  0.77000000000E+02 0.  0.
   -5000001    1    1    2    0    0  0.17596627607E+03  0.68134733962E+02  0.35354706830E+03  0.40808210178E+03  0.77000000000E+02 0.  0.
<mgrwt>
<rscale>  0 0.41716791E+03</rscale>
<asrwt>0</asrwt>
<pdfrwt beam="1">  1        2 0.69173825E-02 0.41716791E+03</pdfrwt>
<pdfrwt beam="2">  1       -2 0.14886524E+00 0.41716791E+03</pdfrwt>
<totfact> 0.33267668E+02</totfact>
</mgrwt>
</event>
<event>
 4    1  0.6086918E-004  0.5213999E+03  0.7818608E-02  0.1008339E+00
          2   -1    0    0  501    0  0.00000000000E+00  0.00000000000E+00  0.32475055779E+03  0.32475055780E+03  0.25500000000E-02 0.  1.
         -2   -1    0    0    0  501 -0.00000000000E+00 -0.00000000000E+00 -0.20928205994E+03  0.20928205995E+03  0.25500000000E-02 0. -1.
    5000001    1    1    2    0    0 -0.10500016418E+03  0.22583204609E+03  0.61024268510E+02  0.26772767670E+03  0.77000000000E+02 0.  0.
   -5000001    1    1    2    0    0  0.10500016418E+03 -0.22583204609E+03  0.54444229345E+02  0.26630494106E+03  0.77000000000E+02 0.  0.
<mgrwt>
<rscale>  0 0.52139991E+03</rscale>
<asrwt>0</asrwt>
<pdfrwt beam="1">  1        2 0.49961624E-01 0.52139991E+03</pdfrwt>
<pdfrwt beam="2">  1       -2 0.32197240E-01 0.52139991E+03</pdfrwt>
<totfact> 0.90483834E+02</totfact>
</mgrwt>
</event>
<event>
 4    1  0.6086918E-004  0.1833512E+03  0.7818608E-02  0.1164599E+00
         -2   -1    0    0    0  501 -0.00000000000E+00  0.00000000000E+00  0.93208966793E+02  0.93208966828E+02  0.25500000000E-02 0. -1.
          2   -1    0    0  501    0  0.00000000000E+00 -0.00000000000E+00 -0.90167442518E+02  0.90167442554E+02  0.25500000000E-02 0.  1.
    5000001    1    1    2    0    0  0.11927619348E+02  0.36302383416E+02 -0.30347127681E+02  0.91159636372E+02  0.77000000000E+02 0.  0.
   -5000001    1    1    2    0    0 -0.11927619348E+02 -0.36302383416E+02  0.33388651956E+02  0.92216773010E+02  0.77000000000E+02 0.  0.
<mgrwt>
<rscale>  0 0.18335118E+03</rscale>
<asrwt>0</asrwt>
<pdfrwt beam="1">  1        2 0.13871914E-01 0.18335118E+03</pdfrwt>
<pdfrwt beam="2">  1       -2 0.14339841E-01 0.18335118E+03</pdfrwt>
<totfact> 0.15114476E+04</totfact>
</mgrwt>
</event>
<event>
 4    1  0.6086918E-004  0.2240188E+03  0.7818608E-02  0.1130922E+00
          2   -1    0    0  501    0  0.00000000000E+00  0.00000000000E+00  0.85290072293E+02  0.85290072331E+02  0.25500000000E-02 0.  1.
         -2   -1    0    0    0  501 -0.00000000000E+00 -0.00000000000E+00 -0.14709921356E+03  0.14709921358E+03  0.25500000000E-02 0. -1.
    5000001    1    1    2    0    0  0.74113912536E+02  0.30422925375E+02 -0.16282645622E+02  0.11230561414E+03  0.77000000000E+02 0.  0.
   -5000001    1    1    2    0    0 -0.74113912536E+02 -0.30422925375E+02 -0.45526495645E+02  0.12008367177E+03  0.77000000000E+02 0.  0.
<mgrwt>
<rscale>  0 0.22401877E+03</rscale>
<asrwt>0</asrwt>
<pdfrwt beam="1">  1        2 0.13121550E-01 0.22401877E+03</pdfrwt>
<pdfrwt beam="2">  1       -2 0.22630648E-01 0.22401877E+03</pdfrwt>
<totfact> 0.75993201E+03</totfact>
</mgrwt>
</event>
<event>
 4    1  0.6086918E-004  0.1799641E+03  0.7818608E-02  0.1167838E+00
          2   -1    0    0  501    0  0.00000000000E+00  0.00000000000E+00  0.56685721612E+02  0.56685721670E+02  0.25500000000E-02 0.  1.
         -2   -1    0    0    0  501 -0.00000000000E+00 -0.00000000000E+00 -0.14283613294E+03  0.14283613297E+03  0.25500000000E-02 0. -1.
    5000001    1    1    2    0    0  0.41877405548E+02 -0.10953669625E+02 -0.24063134061E+02  0.91551812623E+02  0.77000000000E+02 0.  0.
   -5000001    1    1    2    0    0 -0.41877405548E+02  0.10953669625E+02 -0.62087277271E+02  0.10797004201E+03  0.77000000000E+02 0.  0.
<mgrwt>
<rscale>  0 0.17996410E+03</rscale>
<asrwt>0</asrwt>
<pdfrwt beam="1">  1        2 0.87208803E-02 0.17996410E+03</pdfrwt>
<pdfrwt beam="2">  1       -2 0.21974789E-01 0.17996410E+03</pdfrwt>
<totfact> 0.13008073E+04</totfact>
</mgrwt>
</event>
<event>
 4    1  0.6086918E-004  0.2190042E+03  0.7818608E-02  0.1134628E+00
          2   -1    0    0  501    0  0.00000000000E+00  0.00000000000E+00  0.11198640296E+04  0.11198640296E+04  0.25500000000E-02 0.  1.
         -2   -1    0    0    0  501 -0.00000000000E+00 -0.00000000000E+00 -0.10707290751E+02  0.10707291054E+02  0.25500000000E-02 0. -1.
    5000001    1    1    2    0    0 -0.21970938783E+02  0.72600558898E+01  0.93834034255E+03  0.94177865182E+03  0.77000000000E+02 0.  0.
   -5000001    1    1    2    0    0  0.21970938783E+02 -0.72600558898E+01  0.17081639629E+03  0.18879266883E+03  0.77000000000E+02 0.  0.
<mgrwt>
<rscale>  0 0.21900420E+03</rscale>
<asrwt>0</asrwt>
<pdfrwt beam="1">  1        2 0.17228668E+00 0.21900420E+03</pdfrwt>
<pdfrwt beam="2">  1       -2 0.16472764E-02 0.21900420E+03</pdfrwt>
<totfact> 0.22545762E+04</totfact>
</mgrwt>
</event>
<event>
 4    1  0.6086918E-004  0.2153863E+03  0.7818608E-02  0.1137370E+00
         -2   -1    0    0    0  501 -0.00000000000E+00  0.00000000000E+00  0.19279097509E+03  0.19279097511E+03  0.25500000000E-02 0. -1.
          2   -1    0    0  501    0  0.00000000000E+00 -0.00000000000E+00 -0.60157467436E+02  0.60157467490E+02  0.25500000000E-02 0.  1.
    5000001    1    1    2    0    0  0.46700490827E+02 -0.83681667384E+01 -0.23411742437E+01  0.90473438947E+02  0.77000000000E+02 0.  0.
   -5000001    1    1    2    0    0 -0.46700490827E+02  0.83681667384E+01  0.13497468190E+03  0.16247500366E+03  0.77000000000E+02 0.  0.
<mgrwt>
<rscale>  0 0.21538632E+03</rscale>
<asrwt>0</asrwt>
<pdfrwt beam="1">  1        2 0.92549950E-02 0.21538632E+03</pdfrwt>
<pdfrwt beam="2">  1       -2 0.29660150E-01 0.21538632E+03</pdfrwt>
<totfact> 0.72050593E+03</totfact>
</mgrwt>
</event>
<event>
 4    1  0.6086918E-004  0.1762998E+03  0.7818608E-02  0.1171433E+00
         -2   -1    0    0    0  501 -0.00000000000E+00  0.00000000000E+00  0.96830249244E+01  0.96830252601E+01  0.25500000000E-02 0. -1.
          2   -1    0    0  501    0  0.00000000000E+00 -0.00000000000E+00 -0.80247721278E+03  0.80247721278E+03  0.25500000000E-02 0.  1.
    5000001    1    1    2    0    0  0.20374492992E+02  0.20311951363E+02 -0.24972514427E+03  0.26290557813E+03  0.77000000000E+02 0.  0.
   -5000001    1    1    2    0    0 -0.20374492992E+02 -0.20311951363E+02 -0.54306904359E+03  0.54925465991E+03  0.77000000000E+02 0.  0.
<mgrwt>
<rscale>  0 0.17629982E+03</rscale>
<asrwt>0</asrwt>
<pdfrwt beam="1">  1        2 0.12345798E+00 0.17629982E+03</pdfrwt>
<pdfrwt beam="2">  1       -2 0.14896968E-02 0.17629982E+03</pdfrwt>
<totfact> 0.40489520E+04</totfact>
</mgrwt>
</event>
<event>
 4    1  0.6086918E-004  0.2212633E+03  0.7818608E-02  0.1132945E+00
          2   -1    0    0  501    0  0.00000000000E+00  0.00000000000E+00  0.46708320652E+02  0.46708320721E+02  0.25500000000E-02 0.  1.
         -2   -1    0    0    0  501 -0.00000000000E+00 -0.00000000000E+00 -0.26203804384E+03  0.26203804386E+03  0.25500000000E-02 0. -1.
    5000001    1    1    2    0    0  0.64892723833E+02 -0.59641100561E+01 -0.44275259798E+02  0.11016321911E+03  0.77000000000E+02 0.  0.
   -5000001    1    1    2    0    0 -0.64892723833E+02  0.59641100561E+01 -0.17105446339E+03  0.19858314546E+03  0.77000000000E+02 0.  0.
<mgrwt>
<rscale>  0 0.22126325E+03</rscale>
<asrwt>0</asrwt>
<pdfrwt beam="1">  1        2 0.71858957E-02 0.22126325E+03</pdfrwt>
<pdfrwt beam="2">  1       -2 0.40313544E-01 0.22126325E+03</pdfrwt>
<totfact> 0.56219739E+03</totfact>
</mgrwt>
</event>
<event>
 4    1  0.6086918E-004  0.3205909E+03  0.7818608E-02  0.1075378E+00
         -2   -1    0    0    0  501 -0.00000000000E+00  0.00000000000E+00  0.20599724076E+02  0.20599724234E+02  0.25500000000E-02 0. -1.
          2   -1    0    0  501    0  0.00000000000E+00 -0.00000000000E+00 -0.12473285271E+04  0.12473285272E+04  0.25500000000E-02 0.  1.
    5000001    1    1    2    0    0 -0.66764322771E+02 -0.65294698332E+02 -0.19772039643E+03  0.23182585617E+03  0.77000000000E+02 0.  0.
   -5000001    1    1    2    0    0  0.66764322771E+02  0.65294698332E+02 -0.10290084066E+04  0.10361023952E+04  0.77000000000E+02 0.  0.
<mgrwt>
<rscale>  0 0.32059085E+03</rscale>
<asrwt>0</asrwt>
<pdfrwt beam="1">  1        2 0.19189664E+00 0.32059085E+03</pdfrwt>
<pdfrwt beam="2">  1       -2 0.31691893E-02 0.32059085E+03</pdfrwt>
<totfact> 0.73484397E+03</totfact>
</mgrwt>
</event>
<event>
 4    1  0.6086918E-004  0.3847091E+03  0.7818608E-02  0.1049207E+00
          2   -1    0    0  501    0  0.00000000000E+00  0.00000000000E+00  0.36651850326E+03  0.36651850326E+03  0.25500000000E-02 0. -1.
         -2   -1    0    0    0  501 -0.00000000000E+00 -0.00000000000E+00 -0.10095060733E+03  0.10095060736E+03  0.25500000000E-02 0.  1.
    5000001    1    1    2    0    0 -0.75122250301E+02  0.15770216882E+03  0.16148605975E+03  0.25004014484E+03  0.77000000000E+02 0.  0.
   -5000001    1    1    2    0    0  0.75122250301E+02 -0.15770216882E+03  0.10408183618E+03  0.21742896579E+03  0.77000000000E+02 0.  0.
<mgrwt>
<rscale>  0 0.38470906E+03</rscale>
<asrwt>0</asrwt>
<pdfrwt beam="1">  1        2 0.56387462E-01 0.38470906E+03</pdfrwt>
<pdfrwt beam="2">  1       -2 0.15530863E-01 0.38470906E+03</pdfrwt>
<totfact> 0.28542386E+03</totfact>
</mgrwt>
</event>
<event>
 4    1  0.6086918E-004  0.2761339E+03  0.7818608E-02  0.1097819E+00
         -2   -1    0    0    0  501 -0.00000000000E+00  0.00000000000E+00  0.27187020557E+02  0.27187020677E+02  0.25500000000E-02 0. -1.
          2   -1    0    0  501    0  0.00000000000E+00 -0.00000000000E+00 -0.70116129712E+03  0.70116129712E+03  0.25500000000E-02 0.  1.
    5000001    1    1    2    0    0  0.39593223693E+02  0.10100544803E+03 -0.23958045372E+03  0.27403926306E+03  0.77000000000E+02 0.  0.
   -5000001    1    1    2    0    0 -0.39593223693E+02 -0.10100544803E+03 -0.43439382284E+03  0.45430905474E+03  0.77000000000E+02 0.  0.
<mgrwt>
<rscale>  0 0.27613393E+03</rscale>
<asrwt>0</asrwt>
<pdfrwt beam="1">  1        2 0.10787096E+00 0.27613393E+03</pdfrwt>
<pdfrwt beam="2">  1       -2 0.41826191E-02 0.27613393E+03</pdfrwt>
<totfact> 0.10711691E+04</totfact>
</mgrwt>
</event>
<event>
 4    1  0.6086918E-004  0.2549710E+03  0.7818608E-02  0.1110203E+00
         -2   -1    0    0    0  501 -0.00000000000E+00  0.00000000000E+00  0.42721617017E+02  0.42721617093E+02  0.25500000000E-02 0. -1.
          2   -1    0    0  501    0  0.00000000000E+00 -0.00000000000E+00 -0.38042912494E+03  0.38042912495E+03  0.25500000000E-02 0.  1.
    5000001    1    1    2    0    0  0.50550135008E+01 -0.10146286457E+03 -0.16584746666E+03  0.20917611777E+03  0.77000000000E+02 0.  0.
   -5000001    1    1    2    0    0 -0.50550135008E+01  0.10146286457E+03 -0.17186004126E+03  0.21397462427E+03  0.77000000000E+02 0.  0.
<mgrwt>
<rscale>  0 0.25497096E+03</rscale>
<asrwt>0</asrwt>
<pdfrwt beam="1">  1        2 0.58527555E-01 0.25497096E+03</pdfrwt>
<pdfrwt beam="2">  1       -2 0.65725567E-02 0.25497096E+03</pdfrwt>
<totfact> 0.10716175E+04</totfact>
</mgrwt>
</event>
<event>
 4    1  0.6086918E-004  0.2112039E+03  0.7818608E-02  0.1140616E+00
         -2   -1    0    0    0  501 -0.00000000000E+00  0.00000000000E+00  0.74530135039E+02  0.74530135082E+02  0.25500000000E-02 0. -1.
          2   -1    0    0  501    0  0.00000000000E+00 -0.00000000000E+00 -0.14962770642E+03  0.14962770644E+03  0.25500000000E-02 0.  1.
    5000001    1    1    2    0    0  0.70079025971E+02  0.15251996455E+02 -0.46986895346E+02  0.11524088515E+03  0.77000000000E+02 0.  0.
   -5000001    1    1    2    0    0 -0.70079025971E+02 -0.15251996455E+02 -0.28110676031E+02  0.10891695636E+03  0.77000000000E+02 0.  0.
<mgrwt>
<rscale>  0 0.21120391E+03</rscale>
<asrwt>0</asrwt>
<pdfrwt beam="1">  1        2 0.23019647E-01 0.21120391E+03</pdfrwt>
<pdfrwt beam="2">  1       -2 0.11466175E-01 0.21120391E+03</pdfrwt>
<totfact> 0.12213541E+04</totfact>
</mgrwt>
</event>
<event>
 4    1  0.6086918E-004  0.2377550E+03  0.7818608E-02  0.1121297E+00
         -2   -1    0    0    0  501 -0.00000000000E+00  0.00000000000E+00  0.60656739802E+01  0.60656745163E+01  0.25500000000E-02 0. -1.
          2   -1    0    0  501    0  0.00000000000E+00 -0.00000000000E+00 -0.23298079482E+04  0.23298079482E+04  0.25500000000E-02 0.  1.
    5000001    1    1    2    0    0 -0.33787916072E+02 -0.75769376647E+02 -0.15188522679E+04  0.15230639624E+04  0.77000000000E+02 0.  0.
   -5000001    1    1    2    0    0  0.33787916072E+02  0.75769376647E+02 -0.80489000628E+03  0.81280966032E+03  0.77000000000E+02 0.  0.
<mgrwt>
<rscale>  0 0.23775497E+03</rscale>
<asrwt>0</asrwt>
<pdfrwt beam="1">  1        2 0.35843128E+00 0.23775497E+03</pdfrwt>
<pdfrwt beam="2">  1       -2 0.93318251E-03 0.23775497E+03</pdfrwt>
<totfact> 0.11671492E+04</totfact>
</mgrwt>
</event>
<event>
 4    1  0.6086918E-004  0.2060027E+03  0.7818608E-02  0.1144771E+00
         -2   -1    0    0    0  501 -0.00000000000E+00  0.00000000000E+00  0.19760088106E+02  0.19760088271E+02  0.25500000000E-02 0. -1.
          2   -1    0    0  501    0  0.00000000000E+00 -0.00000000000E+00 -0.53690427946E+03  0.53690427947E+03  0.25500000000E-02 0.  1.
    5000001    1    1    2    0    0 -0.50721270855E+02 -0.45880074792E+02 -0.25417541484E+03  0.27424764373E+03  0.77000000000E+02 0.  0.
   -5000001    1    1    2    0    0  0.50721270855E+02  0.45880074792E+02 -0.26296877651E+03  0.28241672401E+03  0.77000000000E+02 0.  0.
<mgrwt>
<rscale>  0 0.20600268E+03</rscale>
<asrwt>0</asrwt>
<pdfrwt beam="1">  1        2 0.82600647E-01 0.20600268E+03</pdfrwt>
<pdfrwt beam="2">  1       -2 0.30400140E-02 0.20600268E+03</pdfrwt>
<totfact> 0.23191325E+04</totfact>
</mgrwt>
</event>
<event>
 4    1  0.6086918E-004  0.3182336E+03  0.7818608E-02  0.1076465E+00
          2   -1    0    0  501    0  0.00000000000E+00  0.00000000000E+00  0.84841055851E+03  0.84841055851E+03  0.25500000000E-02 0.  1.
         -2   -1    0    0    0  501 -0.00000000000E+00 -0.00000000000E+00 -0.29841867348E+02  0.29841867457E+02  0.25500000000E-02 0. -1.
    5000001    1    1    2    0    0 -0.29701519666E+02 -0.13405772634E+03  0.34542072610E+03  0.37960259783E+03  0.77000000000E+02 0.  0.
   -5000001    1    1    2    0    0  0.29701519666E+02  0.13405772634E+03  0.47314796506E+03  0.49864982813E+03  0.77000000000E+02 0.  0.
<mgrwt>
<rscale>  0 0.31823360E+03</rscale>
<asrwt>0</asrwt>
<pdfrwt beam="1">  1        2 0.13052471E+00 0.31823360E+03</pdfrwt>
<pdfrwt beam="2">  1       -2 0.45910561E-02 0.31823360E+03</pdfrwt>
<totfact> 0.73461347E+03</totfact>
</mgrwt>
</event>
<event>
 4    1  0.6086918E-004  0.3357985E+03  0.7818608E-02  0.1068600E+00
         -2   -1    0    0    0  501 -0.00000000000E+00  0.00000000000E+00  0.40730919403E+02  0.40730919483E+02  0.25500000000E-02 0.  1.
          2   -1    0    0  501    0  0.00000000000E+00 -0.00000000000E+00 -0.69210700196E+03  0.69210700197E+03  0.25500000000E-02 0. -1.
    5000001    1    1    2    0    0  0.96858256874E+02 -0.10788694484E+03 -0.24883748520E+03  0.29811106795E+03  0.77000000000E+02 0.  0.
   -5000001    1    1    2    0    0 -0.96858256874E+02  0.10788694484E+03 -0.40253859736E+03  0.43472685350E+03  0.77000000000E+02 0.  0.
<mgrwt>
<rscale>  0 0.33579848E+03</rscale>
<asrwt>0</asrwt>
<pdfrwt beam="1">  1        2 0.10647799E+00 0.33579848E+03</pdfrwt>
<pdfrwt beam="2">  1       -2 0.62662958E-02 0.33579848E+03</pdfrwt>
<totfact> 0.59051630E+03</totfact>
</mgrwt>
</event>
<event>
 4    1  0.6086918E-004  0.2954233E+03  0.7818608E-02  0.1087551E+00
          2   -1    0    0  501    0  0.00000000000E+00  0.00000000000E+00  0.12643328380E+04  0.12643328380E+04  0.25500000000E-02 0.  1.
         -2   -1    0    0    0  501 -0.00000000000E+00 -0.00000000000E+00 -0.17257113348E+02  0.17257113536E+02  0.25500000000E-02 0. -1.
    5000001    1    1    2    0    0 -0.95265354201E+02  0.55384431406E+02  0.88908111983E+03  0.89918694418E+03  0.77000000000E+02 0.  0.
   -5000001    1    1    2    0    0  0.95265354201E+02 -0.55384431406E+02  0.35799460484E+03  0.38240300738E+03  0.77000000000E+02 0.  0.
<mgrwt>
<rscale>  0 0.29542332E+03</rscale>
<asrwt>0</asrwt>
<pdfrwt beam="1">  1        2 0.19451280E+00 0.29542332E+03</pdfrwt>
<pdfrwt beam="2">  1       -2 0.26549398E-02 0.29542332E+03</pdfrwt>
<totfact> 0.93472641E+03</totfact>
</mgrwt>
</event>
<event>
 4    1  0.6086918E-004  0.2621540E+03  0.7818608E-02  0.1105856E+00
         -2   -1    0    0    0  501 -0.00000000000E+00  0.00000000000E+00  0.12170857439E+03  0.12170857442E+03  0.25500000000E-02 0. -1.
          2   -1    0    0  501    0  0.00000000000E+00 -0.00000000000E+00 -0.14116658317E+03  0.14116658319E+03  0.25500000000E-02 0.  1.
    5000001    1    1    2    0    0 -0.65752784322E+01  0.10432149762E+03 -0.27833431531E+02  0.13277766779E+03  0.77000000000E+02 0.  0.
   -5000001    1    1    2    0    0  0.65752784322E+01 -0.10432149762E+03  0.83754227540E+01  0.13009748982E+03  0.77000000000E+02 0.  0.
<mgrwt>
<rscale>  0 0.26215403E+03</rscale>
<asrwt>0</asrwt>
<pdfrwt beam="1">  1        2 0.21717936E-01 0.26215403E+03</pdfrwt>
<pdfrwt beam="2">  1       -2 0.18724396E-01 0.26215403E+03</pdfrwt>
<totfact> 0.58843079E+03</totfact>
</mgrwt>
</event>
<event>
 4    1  0.6086918E-004  0.1954551E+03  0.7818608E-02  0.1153631E+00
          2   -1    0    0  501    0  0.00000000000E+00  0.00000000000E+00  0.58024311203E+02  0.58024311259E+02  0.25500000000E-02 0.  1.
         -2   -1    0    0    0  501 -0.00000000000E+00 -0.00000000000E+00 -0.16459783848E+03  0.16459783849E+03  0.25500000000E-02 0. -1.
    5000001    1    1    2    0    0  0.28120452580E+02 -0.30970901720E+02 -0.40100529342E+01  0.87721360746E+02  0.77000000000E+02 0.  0.
   -5000001    1    1    2    0    0 -0.28120452580E+02  0.30970901720E+02 -0.10256347434E+03  0.13490078901E+03  0.77000000000E+02 0.  0.
<mgrwt>
<rscale>  0 0.19545512E+03</rscale>
<asrwt>0</asrwt>
<pdfrwt beam="1">  1        2 0.89268171E-02 0.19545512E+03</pdfrwt>
<pdfrwt beam="2">  1       -2 0.25322744E-01 0.19545512E+03</pdfrwt>
<totfact> 0.99315550E+03</totfact>
</mgrwt>
</event>
<event>
 4    1  0.6086918E-004  0.1825653E+03  0.7818608E-02  0.1165343E+00
         -2   -1    0    0    0  501 -0.00000000000E+00  0.00000000000E+00  0.27015129742E+03  0.27015129743E+03  0.25500000000E-02 0. -1.
          2   -1    0    0  501    0  0.00000000000E+00 -0.00000000000E+00 -0.30843900127E+02  0.30843900232E+02  0.25500000000E-02 0.  1.
    5000001    1    1    2    0    0 -0.48531820718E+02 -0.31894724800E+01  0.10948919165E+03  0.14241626819E+03  0.77000000000E+02 0.  0.
   -5000001    1    1    2    0    0  0.48531820718E+02  0.31894724800E+01  0.12981820564E+03  0.15857892947E+03  0.77000000000E+02 0.  0.
<mgrwt>
<rscale>  0 0.18256527E+03</rscale>
<asrwt>0</asrwt>
<pdfrwt beam="1">  1        2 0.47452155E-02 0.18256527E+03</pdfrwt>
<pdfrwt beam="2">  1       -2 0.41561737E-01 0.18256527E+03</pdfrwt>
<totfact> 0.89842923E+03</totfact>
</mgrwt>
</event>
<event>
 4    1  0.6086918E-004  0.3234996E+03  0.7818608E-02  0.1074050E+00
          2   -1    0    0  501    0  0.00000000000E+00  0.00000000000E+00  0.94039497625E+02  0.94039497660E+02  0.25500000000E-02 0.  1.
         -2   -1    0    0    0  501 -0.00000000000E+00 -0.00000000000E+00 -0.27821282926E+03  0.27821282928E+03  0.25500000000E-02 0. -1.
    5000001    1    1    2    0    0  0.10949721965E+03 -0.67264064466E+02 -0.21904092786E+02  0.15140305400E+03  0.77000000000E+02 0.  0.
   -5000001    1    1    2    0    0 -0.10949721965E+03  0.67264064466E+02 -0.16226923885E+03  0.22084927294E+03  0.77000000000E+02 0.  0.
<mgrwt>
<rscale>  0 0.32349958E+03</rscale>
<asrwt>0</asrwt>
<pdfrwt beam="1">  1        2 0.14467615E-01 0.32349958E+03</pdfrwt>
<pdfrwt beam="2">  1       -2 0.42801973E-01 0.32349958E+03</pdfrwt>
<totfact> 0.21325129E+03</totfact>
</mgrwt>
</event>
<event>
 4    1  0.6086918E-004  0.3934127E+03  0.7818608E-02  0.1046085E+00
         -2   -1    0    0    0  501 -0.00000000000E+00  0.00000000000E+00  0.18083412728E+02  0.18083412908E+02  0.25500000000E-02 0. -1.
          2   -1    0    0  501    0  0.00000000000E+00 -0.00000000000E+00 -0.21397166924E+04  0.21397166924E+04  0.25500000000E-02 0.  1.
    5000001    1    1    2    0    0  0.17432119193E+03 -0.25078356848E+02 -0.83152870450E+03  0.85345520582E+03  0.77000000000E+02 0.  0.
   -5000001    1    1    2    0    0 -0.17432119193E+03  0.25078356848E+02 -0.12901045752E+04  0.13043448995E+04  0.77000000000E+02 0.  0.
<mgrwt>
<rscale>  0 0.39341266E+03</rscale>
<asrwt>0</asrwt>
<pdfrwt beam="1">  1        2 0.32918698E+00 0.39341266E+03</pdfrwt>
<pdfrwt beam="2">  1       -2 0.27820652E-02 0.39341266E+03</pdfrwt>
<totfact> 0.29541434E+03</totfact>
</mgrwt>
</event>
<event>
 4    1  0.6086918E-004  0.2202239E+03  0.7818608E-02  0.1133716E+00
          2   -1    0    0  501    0  0.00000000000E+00  0.00000000000E+00  0.16125598713E+04  0.16125598713E+04  0.25500000000E-02 0.  1.
         -2   -1    0    0    0  501 -0.00000000000E+00 -0.00000000000E+00 -0.75188811423E+01  0.75188815748E+01  0.25500000000E-02 0. -1.
    5000001    1    1    2    0    0  0.35257791658E+02 -0.52609807355E+02  0.11463726375E+04  0.11506998425E+04  0.77000000000E+02 0.  0.
   -5000001    1    1    2    0    0 -0.35257791658E+02  0.52609807355E+02  0.45866835266E+03  0.46937891030E+03  0.77000000000E+02 0.  0.
<mgrwt>
<rscale>  0 0.22022394E+03</rscale>
<asrwt>0</asrwt>
<pdfrwt beam="1">  1        2 0.24808656E+00 0.22022394E+03</pdfrwt>
<pdfrwt beam="2">  1       -2 0.11567490E-02 0.22022394E+03</pdfrwt>
<totfact> 0.20305859E+04</totfact>
</mgrwt>
</event>
<event>
 4    1  0.6086918E-004  0.2112851E+03  0.7818608E-02  0.1140552E+00
         -2   -1    0    0    0  501 -0.00000000000E+00  0.00000000000E+00  0.13059740862E+02  0.13059741111E+02  0.25500000000E-02 0. -1.
          2   -1    0    0  501    0  0.00000000000E+00 -0.00000000000E+00 -0.85456091777E+03  0.85456091777E+03  0.25500000000E-02 0.  1.
    5000001    1    1    2    0    0  0.48840454529E+02  0.53233447825E+02 -0.43506672151E+03  0.44769547924E+03  0.77000000000E+02 0.  0.
   -5000001    1    1    2    0    0 -0.48840454529E+02 -0.53233447825E+02 -0.40643445539E+03  0.41992517964E+03  0.77000000000E+02 0.  0.
<mgrwt>
<rscale>  0 0.21128506E+03</rscale>
<asrwt>0</asrwt>
<pdfrwt beam="1">  1        2 0.13147087E+00 0.21128506E+03</pdfrwt>
<pdfrwt beam="2">  1       -2 0.20091916E-02 0.21128506E+03</pdfrwt>
<totfact> 0.24491750E+04</totfact>
</mgrwt>
</event>
<event>
 4    1  0.6086918E-004  0.1798580E+03  0.7818608E-02  0.1167941E+00
          2   -1    0    0  501    0  0.00000000000E+00  0.00000000000E+00  0.81398703518E+03  0.81398703519E+03  0.25500000000E-02 0.  1.
         -2   -1    0    0    0  501 -0.00000000000E+00 -0.00000000000E+00 -0.99353193963E+01  0.99353197236E+01  0.25500000000E-02 0. -1.
    5000001    1    1    2    0    0 -0.45324660142E+02  0.95055766441E+01  0.41888261993E+03  0.42841140284E+03  0.77000000000E+02 0.  0.
   -5000001    1    1    2    0    0  0.45324660142E+02 -0.95055766441E+01  0.38516909586E+03  0.39551095207E+03  0.77000000000E+02 0.  0.
<mgrwt>
<rscale>  0 0.17985796E+03</rscale>
<asrwt>0</asrwt>
<pdfrwt beam="1">  1        2 0.12522874E+00 0.17985796E+03</pdfrwt>
<pdfrwt beam="2">  1       -2 0.15285111E-02 0.17985796E+03</pdfrwt>
<totfact> 0.38376916E+04</totfact>
</mgrwt>
</event>
<event>
 4    1  0.6086918E-004  0.2012886E+03  0.7818608E-02  0.1148656E+00
          2   -1    0    0  501    0  0.00000000000E+00  0.00000000000E+00  0.21717121708E+02  0.21717121857E+02  0.25500000000E-02 0.  1.
         -2   -1    0    0    0  501 -0.00000000000E+00 -0.00000000000E+00 -0.46641903835E+03  0.46641903836E+03  0.25500000000E-02 0. -1.
    5000001    1    1    2    0    0  0.10312357080E+02  0.62422029437E+02 -0.18827701923E+03  0.21302603230E+03  0.77000000000E+02 0.  0.
   -5000001    1    1    2    0    0 -0.10312357080E+02 -0.62422029437E+02 -0.25642489741E+03  0.27511012791E+03  0.77000000000E+02 0.  0.
<mgrwt>
<rscale>  0 0.20128864E+03</rscale>
<asrwt>0</asrwt>
<pdfrwt beam="1">  1        2 0.33410960E-02 0.20128864E+03</pdfrwt>
<pdfrwt beam="2">  1       -2 0.71756768E-01 0.20128864E+03</pdfrwt>
<totfact> 0.47785298E+03</totfact>
</mgrwt>
</event>
<event>
 4    1  0.6086918E-004  0.3220751E+03  0.7818608E-02  0.1074698E+00
          2   -1    0    0  501    0  0.00000000000E+00  0.00000000000E+00  0.16245647449E+03  0.16245647451E+03  0.25500000000E-02 0.  1.
         -2   -1    0    0    0  501 -0.00000000000E+00 -0.00000000000E+00 -0.15963100896E+03  0.15963100898E+03  0.25500000000E-02 0. -1.
    5000001    1    1    2    0    0 -0.13327700058E+03 -0.46093495624E+02  0.12216931048E+02  0.16113852000E+03  0.77000000000E+02 0.  0.
   -5000001    1    1    2    0    0  0.13327700058E+03  0.46093495624E+02 -0.93914655184E+01  0.16094896349E+03  0.77000000000E+02 0.  0.
<mgrwt>
<rscale>  0 0.32207509E+03</rscale>
<asrwt>0</asrwt>
<pdfrwt beam="1">  1        2 0.24993304E-01 0.32207509E+03</pdfrwt>
<pdfrwt beam="2">  1       -2 0.24558617E-01 0.32207509E+03</pdfrwt>
<totfact> 0.31614039E+03</totfact>
</mgrwt>
</event>
<event>
 4    1  0.6086918E-004  0.2205665E+03  0.7818608E-02  0.1133461E+00
         -2   -1    0    0    0  501 -0.00000000000E+00  0.00000000000E+00  0.55663735141E+02  0.55663735199E+02  0.25500000000E-02 0. -1.
          2   -1    0    0  501    0  0.00000000000E+00 -0.00000000000E+00 -0.21849766587E+03  0.21849766589E+03  0.25500000000E-02 0.  1.
    5000001    1    1    2    0    0  0.41315134373E+02 -0.18148652732E+01 -0.16501341245E+03  0.18673151944E+03  0.77000000000E+02 0.  0.
   -5000001    1    1    2    0    0 -0.41315134373E+02  0.18148652732E+01  0.21794817172E+01  0.87429881647E+02  0.77000000000E+02 0.  0.
<mgrwt>
<rscale>  0 0.22056651E+03</rscale>
<asrwt>0</asrwt>
<pdfrwt beam="1">  1        2 0.33615025E-01 0.22056651E+03</pdfrwt>
<pdfrwt beam="2">  1       -2 0.85636517E-02 0.22056651E+03</pdfrwt>
<totfact> 0.12808573E+04</totfact>
</mgrwt>
</event>
<event>
 4    1  0.6086918E-004  0.1845566E+03  0.7818608E-02  0.1163465E+00
         -2   -1    0    0    0  501 -0.00000000000E+00  0.00000000000E+00  0.14168782740E+02  0.14168782970E+02  0.25500000000E-02 0. -1.
          2   -1    0    0  501    0  0.00000000000E+00 -0.00000000000E+00 -0.60098914023E+03  0.60098914023E+03  0.25500000000E-02 0.  1.
    5000001    1    1    2    0    0 -0.40273749788E+02  0.18281764403E+02 -0.20974259410E+03  0.22776556722E+03  0.77000000000E+02 0.  0.
   -5000001    1    1    2    0    0  0.40273749788E+02 -0.18281764403E+02 -0.37707776339E+03  0.38739235598E+03  0.77000000000E+02 0.  0.
<mgrwt>
<rscale>  0 0.18455660E+03</rscale>
<asrwt>0</asrwt>
<pdfrwt beam="1">  1        2 0.92459848E-01 0.18455660E+03</pdfrwt>
<pdfrwt beam="2">  1       -2 0.21798132E-02 0.18455660E+03</pdfrwt>
<totfact> 0.33016718E+04</totfact>
</mgrwt>
</event>
<event>
 4    1  0.6086918E-004  0.2854129E+03  0.7818608E-02  0.1092769E+00
         -2   -1    0    0    0  501 -0.00000000000E+00  0.00000000000E+00  0.53744406341E+02  0.53744406401E+02  0.25500000000E-02 0. -1.
          2   -1    0    0  501    0  0.00000000000E+00 -0.00000000000E+00 -0.37892557449E+03  0.37892557450E+03  0.25500000000E-02 0.  1.
    5000001    1    1    2    0    0 -0.11813458629E+03  0.17422349487E+02 -0.14243301244E+03  0.20118519273E+03  0.77000000000E+02 0.  0.
   -5000001    1    1    2    0    0  0.11813458629E+03 -0.17422349487E+02 -0.18274815571E+03  0.23148478818E+03  0.77000000000E+02 0.  0.
<mgrwt>
<rscale>  0 0.28541289E+03</rscale>
<asrwt>0</asrwt>
<pdfrwt beam="1">  1        2 0.58296241E-01 0.28541289E+03</pdfrwt>
<pdfrwt beam="2">  1       -2 0.82683704E-02 0.28541289E+03</pdfrwt>
<totfact> 0.75685145E+03</totfact>
</mgrwt>
</event>
<event>
 4    1  0.6086918E-004  0.2145819E+03  0.7818608E-02  0.1137988E+00
         -2   -1    0    0    0  501 -0.00000000000E+00  0.00000000000E+00  0.56129777637E+01  0.56129783430E+01  0.25500000000E-02 0. -1.
          2   -1    0    0  501    0  0.00000000000E+00 -0.00000000000E+00 -0.20508445967E+04  0.20508445967E+04  0.25500000000E-02 0.  1.
    5000001    1    1    2    0    0  0.16369994230E+02 -0.65392788531E+02 -0.71383007583E+03  0.72112867829E+03  0.77000000000E+02 0.  0.
   -5000001    1    1    2    0    0 -0.16369994230E+02  0.65392788531E+02 -0.13314015431E+04  0.13353288967E+04  0.77000000000E+02 0.  0.
<mgrwt>
<rscale>  0 0.21458188E+03</rscale>
<asrwt>0</asrwt>
<pdfrwt beam="1">  1        2 0.31551396E+00 0.21458188E+03</pdfrwt>
<pdfrwt beam="2">  1       -2 0.86353672E-03 0.21458188E+03</pdfrwt>
<totfact> 0.18284376E+04</totfact>
</mgrwt>
</event>
<event>
 4    1  0.6086918E-004  0.2344434E+03  0.7818608E-02  0.1123551E+00
         -2   -1    0    0    0  501 -0.00000000000E+00  0.00000000000E+00  0.12922264731E+02  0.12922264982E+02  0.25500000000E-02 0.  1.
          2   -1    0    0  501    0  0.00000000000E+00 -0.00000000000E+00 -0.10633524541E+04  0.10633524541E+04  0.25500000000E-02 0. -1.
    5000001    1    1    2    0    0  0.25977978996E+02 -0.83469440236E+02 -0.58505714141E+03  0.59654242226E+03  0.77000000000E+02 0.  0.
   -5000001    1    1    2    0    0 -0.25977978996E+02  0.83469440236E+02 -0.46537304794E+03  0.47973229680E+03  0.77000000000E+02 0.  0.
<mgrwt>
<rscale>  0 0.23444336E+03</rscale>
<asrwt>0</asrwt>
<pdfrwt beam="1">  1        2 0.16359262E+00 0.23444336E+03</pdfrwt>
<pdfrwt beam="2">  1       -2 0.19880416E-02 0.23444336E+03</pdfrwt>
<totfact> 0.18545771E+04</totfact>
</mgrwt>
</event>
<event>
 4    1  0.6086918E-004  0.2674732E+03  0.7818608E-02  0.1102735E+00
         -2   -1    0    0    0  501 -0.00000000000E+00  0.00000000000E+00  0.76697612486E+02  0.76697612528E+02  0.25500000000E-02 0. -1.
          2   -1    0    0  501    0  0.00000000000E+00 -0.00000000000E+00 -0.23319473470E+03  0.23319473472E+03  0.25500000000E-02 0.  1.
    5000001    1    1    2    0    0 -0.22057704860E+02 -0.10117889996E+03 -0.11892763993E+03  0.17548930361E+03  0.77000000000E+02 0.  0.
   -5000001    1    1    2    0    0  0.22057704860E+02  0.10117889996E+03 -0.37569482287E+02  0.13440304364E+03  0.77000000000E+02 0.  0.
<mgrwt>
<rscale>  0 0.26747321E+03</rscale>
<asrwt>0</asrwt>
<pdfrwt beam="1">  1        2 0.35876113E-01 0.26747321E+03</pdfrwt>
<pdfrwt beam="2">  1       -2 0.11799633E-01 0.26747321E+03</pdfrwt>
<totfact> 0.72448911E+03</totfact>
</mgrwt>
</event>
<event>
 4    1  0.6086918E-004  0.2017060E+03  0.7818608E-02  0.1148308E+00
          2   -1    0    0  501    0  0.00000000000E+00  0.00000000000E+00  0.34795582540E+03  0.34795582541E+03  0.25500000000E-02 0.  1.
         -2   -1    0    0    0  501 -0.00000000000E+00 -0.00000000000E+00 -0.29231655278E+02  0.29231655389E+02  0.25500000000E-02 0. -1.
    5000001    1    1    2    0    0 -0.34137869985E-01 -0.34420066808E+02  0.55960400905E+02  0.10121911200E+03  0.77000000000E+02 0.  0.
   -5000001    1    1    2    0    0  0.34137869985E-01  0.34420066808E+02  0.26276376922E+03  0.27596836880E+03  0.77000000000E+02 0.  0.
<mgrwt>
<rscale>  0 0.20170597E+03</rscale>
<asrwt>0</asrwt>
<pdfrwt beam="1">  1        2 0.53531664E-01 0.20170597E+03</pdfrwt>
<pdfrwt beam="2">  1       -2 0.44971779E-02 0.20170597E+03</pdfrwt>
<totfact> 0.20726916E+04</totfact>
</mgrwt>
</event>
<event>
 4    1  0.6086918E-004  0.3355790E+03  0.7818608E-02  0.1068695E+00
         -2   -1    0    0    0  501 -0.00000000000E+00  0.00000000000E+00  0.14412029867E+03  0.14412029869E+03  0.25500000000E-02 0. -1.
          2   -1    0    0  501    0  0.00000000000E+00 -0.00000000000E+00 -0.19534589633E+03  0.19534589635E+03  0.25500000000E-02 0.  1.
    5000001    1    1    2    0    0 -0.12904539655E+02 -0.11168912987E+03  0.73415612115E+02  0.15478966689E+03  0.77000000000E+02 0.  0.
   -5000001    1    1    2    0    0  0.12904539655E+02  0.11168912987E+03 -0.12464120977E+03  0.18467652815E+03  0.77000000000E+02 0.  0.
<mgrwt>
<rscale>  0 0.33557896E+03</rscale>
<asrwt>0</asrwt>
<pdfrwt beam="1">  1        2 0.30053215E-01 0.33557896E+03</pdfrwt>
<pdfrwt beam="2">  1       -2 0.22172354E-01 0.33557896E+03</pdfrwt>
<totfact> 0.30833522E+03</totfact>
</mgrwt>
</event>
<event>
 4    1  0.6086918E-004  0.2257007E+03  0.7818608E-02  0.1129703E+00
          2   -1    0    0  501    0  0.00000000000E+00  0.00000000000E+00  0.69373158328E+02  0.69373158375E+02  0.25500000000E-02 0.  1.
         -2   -1    0    0    0  501 -0.00000000000E+00 -0.00000000000E+00 -0.18357530923E+03  0.18357530924E+03  0.25500000000E-02 0. -1.
    5000001    1    1    2    0    0 -0.71597095647E+02  0.23543208244E+02 -0.94704245360E+02  0.14345145816E+03  0.77000000000E+02 0.  0.
   -5000001    1    1    2    0    0  0.71597095647E+02 -0.23543208244E+02 -0.19497905538E+02  0.10949700946E+03  0.77000000000E+02 0.  0.
<mgrwt>
<rscale>  0 0.22570068E+03</rscale>
<asrwt>0</asrwt>
<pdfrwt beam="1">  1        2 0.10672794E-01 0.22570068E+03</pdfrwt>
<pdfrwt beam="2">  1       -2 0.28242355E-01 0.22570068E+03</pdfrwt>
<totfact> 0.66126031E+03</totfact>
</mgrwt>
</event>
<event>
 4    1  0.6086918E-004  0.3454102E+03  0.7818608E-02  0.1064515E+00
         -2   -1    0    0    0  501 -0.00000000000E+00  0.00000000000E+00  0.49987594605E+02  0.49987594670E+02  0.25500000000E-02 0. -1.
          2   -1    0    0  501    0  0.00000000000E+00 -0.00000000000E+00 -0.59668902245E+03  0.59668902245E+03  0.25500000000E-02 0.  1.
    5000001    1    1    2    0    0 -0.14609780552E+03 -0.49944967062E+02 -0.28772896725E+03  0.33549370651E+03  0.77000000000E+02 0.  0.
   -5000001    1    1    2    0    0  0.14609780552E+03  0.49944967062E+02 -0.25897246060E+03  0.31118291062E+03  0.77000000000E+02 0.  0.
<mgrwt>
<rscale>  0 0.34541019E+03</rscale>
<asrwt>0</asrwt>
<pdfrwt beam="1">  1        2 0.91798306E-01 0.34541019E+03</pdfrwt>
<pdfrwt beam="2">  1       -2 0.76903996E-02 0.34541019E+03</pdfrwt>
<totfact> 0.51279103E+03</totfact>
</mgrwt>
</event>
<event>
 4    1  0.6086918E-004  0.2678499E+03  0.7818608E-02  0.1102516E+00
          2   -1    0    0  501    0  0.00000000000E+00  0.00000000000E+00  0.57894682822E+03  0.57894682822E+03  0.25500000000E-02 0.  1.
         -2   -1    0    0    0  501 -0.00000000000E+00 -0.00000000000E+00 -0.30980213951E+02  0.30980214056E+02  0.25500000000E-02 0. -1.
    5000001    1    1    2    0    0  0.33046658876E+02 -0.65695733033E+02  0.89004639043E+02  0.13877621112E+03  0.77000000000E+02 0.  0.
   -5000001    1    1    2    0    0 -0.33046658876E+02  0.65695733033E+02  0.45896197522E+03  0.47115083116E+03  0.77000000000E+02 0.  0.
<mgrwt>
<rscale>  0 0.26784993E+03</rscale>
<asrwt>0</asrwt>
<pdfrwt beam="1">  1        2 0.89068738E-01 0.26784993E+03</pdfrwt>
<pdfrwt beam="2">  1       -2 0.47661870E-02 0.26784993E+03</pdfrwt>
<totfact> 0.11010922E+04</totfact>
</mgrwt>
</event>
<event>
 4    1  0.6086918E-004  0.3682857E+03  0.7818608E-02  0.1055350E+00
          2   -1    0    0  501    0  0.00000000000E+00  0.00000000000E+00  0.54512788914E+03  0.54512788915E+03  0.25500000000E-02 0.  1.
         -2   -1    0    0    0  501 -0.00000000000E+00 -0.00000000000E+00 -0.62203004244E+02  0.62203004297E+02  0.25500000000E-02 0. -1.
    5000001    1    1    2    0    0  0.62799801283E+01  0.15511099179E+03  0.13873240132E+03  0.22197868614E+03  0.77000000000E+02 0.  0.
   -5000001    1    1    2    0    0 -0.62799801283E+01 -0.15511099179E+03  0.34419248358E+03  0.38535220731E+03  0.77000000000E+02 0.  0.
<mgrwt>
<rscale>  0 0.36828572E+03</rscale>
<asrwt>0</asrwt>
<pdfrwt beam="1">  1        2 0.83865826E-01 0.36828572E+03</pdfrwt>
<pdfrwt beam="2">  1       -2 0.95696933E-02 0.36828572E+03</pdfrwt>
<totfact> 0.40350229E+03</totfact>
</mgrwt>
</event>
<event>
 4    1  0.6086918E-004  0.1789890E+03  0.7818608E-02  0.1168785E+00
         -2   -1    0    0    0  501 -0.00000000000E+00  0.00000000000E+00  0.45892380477E+01  0.45892387562E+01  0.25500000000E-02 0. -1.
          2   -1    0    0  501    0  0.00000000000E+00 -0.00000000000E+00 -0.17452281873E+04  0.17452281873E+04  0.25500000000E-02 0.  1.
    5000001    1    1    2    0    0 -0.12888030169E+02 -0.38676957369E+02 -0.10702547478E+04  0.10737952475E+04  0.77000000000E+02 0.  0.
   -5000001    1    1    2    0    0  0.12888030169E+02  0.38676957369E+02 -0.67038420144E+03  0.67602217855E+03  0.77000000000E+02 0.  0.
<mgrwt>
<rscale>  0 0.17898903E+03</rscale>
<asrwt>0</asrwt>
<pdfrwt beam="1">  1        2 0.26849612E+00 0.17898903E+03</pdfrwt>
<pdfrwt beam="2">  1       -2 0.70603807E-03 0.17898903E+03</pdfrwt>
<totfact> 0.34888874E+04</totfact>
</mgrwt>
</event>
<event>
 4    1  0.6086918E-004  0.2546205E+03  0.7818608E-02  0.1110419E+00
         -2   -1    0    0    0  501 -0.00000000000E+00  0.00000000000E+00  0.68241442615E+01  0.68241447379E+01  0.25500000000E-02 0. -1.
          2   -1    0    0  501    0  0.00000000000E+00 -0.00000000000E+00 -0.23750807550E+04  0.23750807550E+04  0.25500000000E-02 0.  1.
    5000001    1    1    2    0    0  0.41154264482E+02  0.77523144863E+02 -0.70939246524E+03  0.71893684091E+03  0.77000000000E+02 0.  0.
   -5000001    1    1    2    0    0 -0.41154264482E+02 -0.77523144863E+02 -0.16588641455E+04  0.16629680588E+04  0.77000000000E+02 0.  0.
<mgrwt>
<rscale>  0 0.25462046E+03</rscale>
<asrwt>0</asrwt>
<pdfrwt beam="1">  1        2 0.36539638E+00 0.25462046E+03</pdfrwt>
<pdfrwt beam="2">  1       -2 0.10498703E-02 0.25462046E+03</pdfrwt>
<totfact> 0.93111605E+03</totfact>
</mgrwt>
</event>
<event>
 4    1  0.6086918E-004  0.3491727E+03  0.7818608E-02  0.1062955E+00
          2   -1    0    0  501    0  0.00000000000E+00  0.00000000000E+00  0.17538596001E+04  0.17538596001E+04  0.25500000000E-02 0.  1.
         -2   -1    0    0    0  501 -0.00000000000E+00 -0.00000000000E+00 -0.17379034241E+02  0.17379034428E+02  0.25500000000E-02 0. -1.
    5000001    1    1    2    0    0  0.41520453718E+02  0.15078066419E+03  0.91706181121E+03  0.93348279168E+03  0.77000000000E+02 0.  0.
   -5000001    1    1    2    0    0 -0.41520453718E+02 -0.15078066419E+03  0.81941875469E+03  0.83775584290E+03  0.77000000000E+02 0.  0.
<mgrwt>
<rscale>  0 0.34917266E+03</rscale>
<asrwt>0</asrwt>
<pdfrwt beam="1">  1        2 0.26982470E+00 0.34917266E+03</pdfrwt>
<pdfrwt beam="2">  1       -2 0.26736961E-02 0.34917266E+03</pdfrwt>
<totfact> 0.50368941E+03</totfact>
</mgrwt>
</event>
<event>
 4    1  0.6086918E-004  0.2766559E+03  0.7818608E-02  0.1097530E+00
         -2   -1    0    0    0  501 -0.00000000000E+00  0.00000000000E+00  0.23145345547E+02  0.23145345688E+02  0.25500000000E-02 0. -1.
          2   -1    0    0  501    0  0.00000000000E+00 -0.00000000000E+00 -0.82671577345E+03  0.82671577346E+03  0.25500000000E-02 0.  1.
    5000001    1    1    2    0    0  0.43391698398E+01  0.99177032299E+02 -0.57960351252E+03  0.59306335569E+03  0.77000000000E+02 0.  0.
   -5000001    1    1    2    0    0 -0.43391698398E+01 -0.99177032299E+02 -0.22396691538E+03  0.25679776346E+03  0.77000000000E+02 0.  0.
<mgrwt>
<rscale>  0 0.27665590E+03</rscale>
<asrwt>0</asrwt>
<pdfrwt beam="1">  1        2 0.12718702E+00 0.27665590E+03</pdfrwt>
<pdfrwt beam="2">  1       -2 0.35608230E-02 0.27665590E+03</pdfrwt>
<totfact> 0.11103120E+04</totfact>
</mgrwt>
</event>
<event>
 4    1  0.6086918E-004  0.2434067E+03  0.7818608E-02  0.1117544E+00
          2   -1    0    0  501    0  0.00000000000E+00  0.00000000000E+00  0.14988696350E+03  0.14988696353E+03  0.25500000000E-02 0.  1.
         -2   -1    0    0    0  501 -0.00000000000E+00 -0.00000000000E+00 -0.98819160518E+02  0.98819160551E+02  0.25500000000E-02 0. -1.
    5000001    1    1    2    0    0 -0.26122867469E+02 -0.90258400268E+02  0.18044871514E+02  0.12281531017E+03  0.77000000000E+02 0.  0.
   -5000001    1    1    2    0    0  0.26122867469E+02  0.90258400268E+02  0.33022931471E+02  0.12589081391E+03  0.77000000000E+02 0.  0.
<mgrwt>
<rscale>  0 0.24340669E+03</rscale>
<asrwt>0</asrwt>
<pdfrwt beam="1">  1        2 0.23059533E-01 0.24340669E+03</pdfrwt>
<pdfrwt beam="2">  1       -2 0.15202948E-01 0.24340669E+03</pdfrwt>
<totfact> 0.77667072E+03</totfact>
</mgrwt>
</event>
<event>
 4    1  0.6086918E-004  0.1999457E+03  0.7818608E-02  0.1149785E+00
          2   -1    0    0  501    0  0.00000000000E+00  0.00000000000E+00  0.72344168289E+03  0.72344168290E+03  0.25500000000E-02 0.  1.
         -2   -1    0    0    0  501 -0.00000000000E+00 -0.00000000000E+00 -0.13815312042E+02  0.13815312278E+02  0.25500000000E-02 0. -1.
    5000001    1    1    2    0    0 -0.50016648560E+02  0.15918851316E+00  0.50063040412E+03  0.50898083658E+03  0.77000000000E+02 0.  0.
   -5000001    1    1    2    0    0  0.50016648560E+02 -0.15918851316E+00  0.20899596673E+03  0.22827615860E+03  0.77000000000E+02 0.  0.
<mgrwt>
<rscale>  0 0.19994572E+03</rscale>
<asrwt>0</asrwt>
<pdfrwt beam="1">  1        2 0.11129873E+00 0.19994572E+03</pdfrwt>
<pdfrwt beam="2">  1       -2 0.21254325E-02 0.19994572E+03</pdfrwt>
<totfact> 0.27694391E+04</totfact>
</mgrwt>
</event>
<event>
 4    1  0.6086918E-004  0.2401680E+03  0.7818608E-02  0.1119681E+00
         -2   -1    0    0    0  501 -0.00000000000E+00  0.00000000000E+00  0.46199618294E+02  0.46199618364E+02  0.25500000000E-02 0. -1.
          2   -1    0    0  501    0  0.00000000000E+00 -0.00000000000E+00 -0.31212734703E+03  0.31212734704E+03  0.25500000000E-02 0.  1.
    5000001    1    1    2    0    0  0.74613800911E+02 -0.51816156030E+02 -0.15603088481E+03  0.19628237396E+03  0.77000000000E+02 0.  0.
   -5000001    1    1    2    0    0 -0.74613800911E+02  0.51816156030E+02 -0.10989684392E+03  0.16204459145E+03  0.77000000000E+02 0.  0.
<mgrwt>
<rscale>  0 0.24016798E+03</rscale>
<asrwt>0</asrwt>
<pdfrwt beam="1">  1        2 0.48019590E-01 0.24016798E+03</pdfrwt>
<pdfrwt beam="2">  1       -2 0.71076338E-02 0.24016798E+03</pdfrwt>
<totfact> 0.11717486E+04</totfact>
</mgrwt>
</event>
<event>
 4    1  0.6086918E-004  0.2728194E+03  0.7818608E-02  0.1099677E+00
         -2   -1    0    0    0  501 -0.00000000000E+00  0.00000000000E+00  0.17806845580E+02  0.17806845763E+02  0.25500000000E-02 0.  1.
          2   -1    0    0  501    0  0.00000000000E+00 -0.00000000000E+00 -0.10449691703E+04  0.10449691703E+04  0.25500000000E-02 0. -1.
    5000001    1    1    2    0    0  0.83877501861E+02 -0.89393081938E+01 -0.80413801431E+03  0.81220828155E+03  0.77000000000E+02 0.  0.
   -5000001    1    1    2    0    0 -0.83877501861E+02  0.89393081938E+01 -0.22302431040E+03  0.25056773451E+03  0.77000000000E+02 0.  0.
<mgrwt>
<rscale>  0 0.27281939E+03</rscale>
<asrwt>0</asrwt>
<pdfrwt beam="1">  1        2 0.16076444E+00 0.27281939E+03</pdfrwt>
<pdfrwt beam="2">  1       -2 0.27395155E-02 0.27281939E+03</pdfrwt>
<totfact> 0.11923352E+04</totfact>
</mgrwt>
</event>
<event>
 4    1  0.6086918E-004  0.2819307E+03  0.7818608E-02  0.1094639E+00
         -2   -1    0    0    0  501 -0.00000000000E+00  0.00000000000E+00  0.53033598110E+02  0.53033598171E+02  0.25500000000E-02 0. -1.
          2   -1    0    0  501    0  0.00000000000E+00 -0.00000000000E+00 -0.37469128642E+03  0.37469128642E+03  0.25500000000E-02 0.  1.
    5000001    1    1    2    0    0  0.36756212455E+02 -0.50950734704E+02 -0.91522432313E+01  0.99798597571E+02  0.77000000000E+02 0.  0.
   -5000001    1    1    2    0    0 -0.36756212455E+02  0.50950734704E+02 -0.31250544507E+03  0.32792628703E+03  0.77000000000E+02 0.  0.
<mgrwt>
<rscale>  0 0.28193068E+03</rscale>
<asrwt>0</asrwt>
<pdfrwt beam="1">  1        2 0.57644812E-01 0.28193068E+03</pdfrwt>
<pdfrwt beam="2">  1       -2 0.81590154E-02 0.28193068E+03</pdfrwt>
<totfact> 0.78193886E+03</totfact>
</mgrwt>
</event>
<event>
 4    1  0.6086918E-004  0.2004901E+03  0.7818608E-02  0.1149326E+00
          2   -1    0    0  501    0  0.00000000000E+00  0.00000000000E+00  0.65317374939E+02  0.65317374989E+02  0.25500000000E-02 0.  1.
         -2   -1    0    0    0  501 -0.00000000000E+00 -0.00000000000E+00 -0.15384982427E+03  0.15384982429E+03  0.25500000000E-02 0. -1.
    5000001    1    1    2    0    0  0.12608191231E+02  0.57023887326E+02 -0.15150937196E+02  0.97822497974E+02  0.77000000000E+02 0.  0.
   -5000001    1    1    2    0    0 -0.12608191231E+02 -0.57023887326E+02 -0.73381512133E+02  0.12134470131E+03  0.77000000000E+02 0.  0.
<mgrwt>
<rscale>  0 0.20049007E+03</rscale>
<asrwt>0</asrwt>
<pdfrwt beam="1">  1        2 0.10048827E-01 0.20049007E+03</pdfrwt>
<pdfrwt beam="2">  1       -2 0.23669204E-01 0.20049007E+03</pdfrwt>
<totfact> 0.96645996E+03</totfact>
</mgrwt>
</event>
<event>
 4    1  0.6086918E-004  0.2471580E+03  0.7818608E-02  0.1115114E+00
          2   -1    0    0  501    0  0.00000000000E+00  0.00000000000E+00  0.11163762052E+04  0.11163762052E+04  0.25500000000E-02 0.  1.
         -2   -1    0    0    0  501 -0.00000000000E+00 -0.00000000000E+00 -0.13679769326E+02  0.13679769563E+02  0.25500000000E-02 0. -1.
    5000001    1    1    2    0    0  0.27715022386E-01 -0.95878392334E+02  0.60736508833E+03  0.61968864554E+03  0.77000000000E+02 0.  0.
   -5000001    1    1    2    0    0 -0.27715022386E-01  0.95878392334E+02  0.49533134753E+03  0.51036732921E+03  0.77000000000E+02 0.  0.
<mgrwt>
<rscale>  0 0.24715800E+03</rscale>
<asrwt>0</asrwt>
<pdfrwt beam="1">  1        2 0.17175011E+00 0.24715800E+03</pdfrwt>
<pdfrwt beam="2">  1       -2 0.21045808E-02 0.24715800E+03</pdfrwt>
<totfact> 0.15913995E+04</totfact>
</mgrwt>
</event>
<event>
 4    1  0.6086918E-004  0.1979071E+03  0.7818608E-02  0.1151517E+00
         -2   -1    0    0    0  501 -0.00000000000E+00  0.00000000000E+00  0.52190173461E+01  0.52190179690E+01  0.25500000000E-02 0. -1.
          2   -1    0    0  501    0  0.00000000000E+00 -0.00000000000E+00 -0.18761785840E+04  0.18761785840E+04  0.25500000000E-02 0.  1.
    5000001    1    1    2    0    0  0.99958247327E+01 -0.59757083199E+02 -0.10671996404E+04  0.10716878734E+04  0.77000000000E+02 0.  0.
   -5000001    1    1    2    0    0 -0.99958247327E+01  0.59757083199E+02 -0.80375992632E+03  0.80970972864E+03  0.77000000000E+02 0.  0.
<mgrwt>
<rscale>  0 0.19790714E+03</rscale>
<asrwt>0</asrwt>
<pdfrwt beam="1">  1        2 0.28864232E+00 0.19790714E+03</pdfrwt>
<pdfrwt beam="2">  1       -2 0.80292729E-03 0.19790714E+03</pdfrwt>
<totfact> 0.24949257E+04</totfact>
</mgrwt>
</event>
<event>
 4    1  0.6086918E-004  0.2046304E+03  0.7818608E-02  0.1145890E+00
          2   -1    0    0  501    0  0.00000000000E+00  0.00000000000E+00  0.49808057394E+03  0.49808057395E+03  0.25500000000E-02 0.  1.
         -2   -1    0    0    0  501 -0.00000000000E+00 -0.00000000000E+00 -0.21017484397E+02  0.21017484552E+02  0.25500000000E-02 0. -1.
    5000001    1    1    2    0    0  0.63289869461E+02  0.19127253186E+02  0.20565712855E+03  0.22933668244E+03  0.77000000000E+02 0.  0.
   -5000001    1    1    2    0    0 -0.63289869461E+02 -0.19127253186E+02  0.27140596100E+03  0.28976137606E+03  0.77000000000E+02 0.  0.
<mgrwt>
<rscale>  0 0.20463041E+03</rscale>
<asrwt>0</asrwt>
<pdfrwt beam="1">  1        2 0.76627782E-01 0.20463041E+03</pdfrwt>
<pdfrwt beam="2">  1       -2 0.32334591E-02 0.20463041E+03</pdfrwt>
<totfact> 0.23004534E+04</totfact>
</mgrwt>
</event>
<event>
 4    1  0.6086918E-004  0.6630923E+03  0.7818608E-02  0.9782518E-01
          2   -1    0    0  501    0  0.00000000000E+00  0.00000000000E+00  0.28222962496E+04  0.28222962496E+04  0.25500000000E-02 0.  1.
         -2   -1    0    0    0  501 -0.00000000000E+00 -0.00000000000E+00 -0.38948019638E+02  0.38948019722E+02  0.25500000000E-02 0. -1.
    5000001    1    1    2    0    0 -0.20159984215E+03  0.80745309515E+02  0.24203432172E+04  0.24312862008E+04  0.77000000000E+02 0.  0.
   -5000001    1    1    2    0    0  0.20159984215E+03 -0.80745309515E+02  0.36300501279E+03  0.42995806851E+03  0.77000000000E+02 0.  0.
<mgrwt>
<rscale>  0 0.66309230E+03</rscale>
<asrwt>0</asrwt>
<pdfrwt beam="1">  1        2 0.43419958E+00 0.66309230E+03</pdfrwt>
<pdfrwt beam="2">  1       -2 0.59920008E-02 0.66309230E+03</pdfrwt>
<totfact> 0.36904044E+02</totfact>
</mgrwt>
</event>
<event>
 4    1  0.6086918E-004  0.5948440E+03  0.7818608E-02  0.9916161E-01
         -2   -1    0    0    0  501 -0.00000000000E+00  0.00000000000E+00  0.35435553623E+02  0.35435553714E+02  0.25500000000E-02 0. -1.
          2   -1    0    0  501    0  0.00000000000E+00 -0.00000000000E+00 -0.24963582234E+04  0.24963582234E+04  0.25500000000E-02 0.  1.
    5000001    1    1    2    0    0  0.13363296843E+03  0.53589235786E+02 -0.22885545523E+04  0.22943714859E+04  0.77000000000E+02 0.  0.
   -5000001    1    1    2    0    0 -0.13363296843E+03 -0.53589235786E+02 -0.17236811747E+03  0.23742229121E+03  0.77000000000E+02 0.  0.
<mgrwt>
<rscale>  0 0.59484397E+03</rscale>
<asrwt>0</asrwt>
<pdfrwt beam="1">  1        2 0.38405497E+00 0.59484397E+03</pdfrwt>
<pdfrwt beam="2">  1       -2 0.54516256E-02 0.59484397E+03</pdfrwt>
<totfact> 0.66355919E+02</totfact>
</mgrwt>
</event>
<event>
 4    1  0.6086918E-004  0.2740249E+03  0.7818608E-02  0.1098998E+00
         -2   -1    0    0    0  501 -0.00000000000E+00  0.00000000000E+00  0.25047892974E+03  0.25047892975E+03  0.25500000000E-02 0. -1.
          2   -1    0    0  501    0  0.00000000000E+00 -0.00000000000E+00 -0.74946090374E+02  0.74946090417E+02  0.25500000000E-02 0.  1.
    5000001    1    1    2    0    0 -0.93776621035E+02  0.59143268908E+02  0.11565383443E+03  0.17775486021E+03  0.77000000000E+02 0.  0.
   -5000001    1    1    2    0    0  0.93776621035E+02 -0.59143268908E+02  0.59879004932E+02  0.14767015996E+03  0.77000000000E+02 0.  0.
<mgrwt>
<rscale>  0 0.27402494E+03</rscale>
<asrwt>0</asrwt>
<pdfrwt beam="1">  1        2 0.11530168E-01 0.27402494E+03</pdfrwt>
<pdfrwt beam="2">  1       -2 0.38535220E-01 0.27402494E+03</pdfrwt>
<totfact> 0.34187398E+03</totfact>
</mgrwt>
</event>
<event>
 4    1  0.6086918E-004  0.1960041E+03  0.7818608E-02  0.1153155E+00
          2   -1    0    0  501    0  0.00000000000E+00  0.00000000000E+00  0.40224376587E+03  0.40224376588E+03  0.25500000000E-02 0.  1.
         -2   -1    0    0    0  501 -0.00000000000E+00 -0.00000000000E+00 -0.23877079887E+02  0.23877080023E+02  0.25500000000E-02 0. -1.
    5000001    1    1    2    0    0  0.27676758586E+02  0.36731716493E+02  0.10331056544E+03  0.13681116509E+03  0.77000000000E+02 0.  0.
   -5000001    1    1    2    0    0 -0.27676758586E+02 -0.36731716493E+02  0.27505612055E+03  0.28930968081E+03  0.77000000000E+02 0.  0.
<mgrwt>
<rscale>  0 0.19600415E+03</rscale>
<asrwt>0</asrwt>
<pdfrwt beam="1">  1        2 0.61883653E-01 0.19600415E+03</pdfrwt>
<pdfrwt beam="2">  1       -2 0.36733971E-02 0.19600415E+03</pdfrwt>
<totfact> 0.23960514E+04</totfact>
</mgrwt>
</event>
<event>
 4    1  0.6086918E-004  0.5245440E+03  0.7818608E-02  0.1007564E+00
         -2   -1    0    0    0  501 -0.00000000000E+00  0.00000000000E+00  0.41056393564E+02  0.41056393644E+02  0.25500000000E-02 0. -1.
          2   -1    0    0  501    0  0.00000000000E+00 -0.00000000000E+00 -0.16754175721E+04  0.16754175721E+04  0.25500000000E-02 0.  1.
    5000001    1    1    2    0    0  0.74412836459E+02  0.22496832955E+03 -0.10852227329E+04  0.11134565100E+04  0.77000000000E+02 0.  0.
   -5000001    1    1    2    0    0 -0.74412836459E+02 -0.22496832955E+03 -0.54913844565E+03  0.60301745582E+03  0.77000000000E+02 0.  0.
<mgrwt>
<rscale>  0 0.52454401E+03</rscale>
<asrwt>0</asrwt>
<pdfrwt beam="1">  1        2 0.25775650E+00 0.52454401E+03</pdfrwt>
<pdfrwt beam="2">  1       -2 0.63163696E-02 0.52454401E+03</pdfrwt>
<totfact> 0.14856126E+03</totfact>
</mgrwt>
</event>
<event>
 4    1  0.6086918E-004  0.2625584E+03  0.7818608E-02  0.1105616E+00
         -2   -1    0    0    0  501 -0.00000000000E+00  0.00000000000E+00  0.25237122989E+02  0.25237123118E+02  0.25500000000E-02 0. -1.
          2   -1    0    0  501    0  0.00000000000E+00 -0.00000000000E+00 -0.68289178447E+03  0.68289178448E+03  0.25500000000E-02 0.  1.
    5000001    1    1    2    0    0 -0.98287032881E+02 -0.18654505313E+02 -0.23170066784E+03  0.26386081725E+03  0.77000000000E+02 0.  0.
   -5000001    1    1    2    0    0  0.98287032881E+02  0.18654505313E+02 -0.42595399364E+03  0.44426809035E+03  0.77000000000E+02 0.  0.
<mgrwt>
<rscale>  0 0.26255837E+03</rscale>
<asrwt>0</asrwt>
<pdfrwt beam="1">  1        2 0.10506026E+00 0.26255837E+03</pdfrwt>
<pdfrwt beam="2">  1       -2 0.38826348E-02 0.26255837E+03</pdfrwt>
<totfact> 0.12344750E+04</totfact>
</mgrwt>
</event>
<event>
 4    1  0.6086918E-004  0.3202597E+03  0.7818608E-02  0.1075530E+00
          2   -1    0    0  501    0  0.00000000000E+00  0.00000000000E+00  0.48276027369E+03  0.48276027370E+03  0.25500000000E-02 0.  1.
         -2   -1    0    0    0  501 -0.00000000000E+00 -0.00000000000E+00 -0.53114482774E+02  0.53114482835E+02  0.25500000000E-02 0. -1.
    5000001    1    1    2    0    0  0.11125710914E+03 -0.45178543454E+02  0.93085215785E+02  0.17033232964E+03  0.77000000000E+02 0.  0.
   -5000001    1    1    2    0    0 -0.11125710914E+03  0.45178543454E+02  0.33656057513E+03  0.36554242689E+03  0.77000000000E+02 0.  0.
<mgrwt>
<rscale>  0 0.32025966E+03</rscale>
<asrwt>0</asrwt>
<pdfrwt beam="1">  1        2 0.74270811E-01 0.32025966E+03</pdfrwt>
<pdfrwt beam="2">  1       -2 0.81714589E-02 0.32025966E+03</pdfrwt>
<totfact> 0.59285648E+03</totfact>
</mgrwt>
</event>
<event>
 4    1  0.6086918E-004  0.2578681E+03  0.7818608E-02  0.1108431E+00
         -2   -1    0    0    0  501 -0.00000000000E+00  0.00000000000E+00  0.18932350845E+02  0.18932351017E+02  0.25500000000E-02 0. -1.
          2   -1    0    0  501    0  0.00000000000E+00 -0.00000000000E+00 -0.87807345685E+03  0.87807345685E+03  0.25500000000E-02 0.  1.
    5000001    1    1    2    0    0 -0.13779373657E+02 -0.42641718751E+02 -0.75378148970E+03  0.75902814278E+03  0.77000000000E+02 0.  0.
   -5000001    1    1    2    0    0  0.13779373657E+02  0.42641718751E+02 -0.10535961631E+03  0.13797766509E+03  0.77000000000E+02 0.  0.
<mgrwt>
<rscale>  0 0.25786814E+03</rscale>
<asrwt>0</asrwt>
<pdfrwt beam="1">  1        2 0.13508819E+00 0.25786814E+03</pdfrwt>
<pdfrwt beam="2">  1       -2 0.29126701E-02 0.25786814E+03</pdfrwt>
<totfact> 0.13812421E+04</totfact>
</mgrwt>
</event>
<event>
 4    1  0.6086918E-004  0.2006621E+03  0.7818608E-02  0.1149182E+00
          2   -1    0    0  501    0  0.00000000000E+00  0.00000000000E+00  0.65593639429E+03  0.65593639429E+03  0.25500000000E-02 0.  1.
         -2   -1    0    0    0  501 -0.00000000000E+00 -0.00000000000E+00 -0.15346481071E+02  0.15346481283E+02  0.25500000000E-02 0. -1.
    5000001    1    1    2    0    0  0.36713340157E+02  0.35936349074E+02  0.44977410488E+03  0.45920043114E+03  0.77000000000E+02 0.  0.
   -5000001    1    1    2    0    0 -0.36713340157E+02 -0.35936349074E+02  0.19081580833E+03  0.21208244444E+03  0.77000000000E+02 0.  0.
<mgrwt>
<rscale>  0 0.20066206E+03</rscale>
<asrwt>0</asrwt>
<pdfrwt beam="1">  1        2 0.10091329E+00 0.20066206E+03</pdfrwt>
<pdfrwt beam="2">  1       -2 0.23609971E-02 0.20066206E+03</pdfrwt>
<totfact> 0.26696279E+04</totfact>
</mgrwt>
</event>
<event>
 4    1  0.6086918E-004  0.2565941E+03  0.7818608E-02  0.1109207E+00
         -2   -1    0    0    0  501 -0.00000000000E+00  0.00000000000E+00  0.56482692642E+02  0.56482692700E+02  0.25500000000E-02 0. -1.
          2   -1    0    0  501    0  0.00000000000E+00 -0.00000000000E+00 -0.29141898790E+03  0.29141898791E+03  0.25500000000E-02 0.  1.
    5000001    1    1    2    0    0  0.40060195056E+02  0.78838295923E+02 -0.46875203603E+02  0.12627977211E+03  0.77000000000E+02 0.  0.
   -5000001    1    1    2    0    0 -0.40060195056E+02 -0.78838295923E+02 -0.18806109165E+03  0.22162190850E+03  0.77000000000E+02 0.  0.
<mgrwt>
<rscale>  0 0.25659407E+03</rscale>
<asrwt>0</asrwt>
<pdfrwt beam="1">  1        2 0.44833689E-01 0.25659407E+03</pdfrwt>
<pdfrwt beam="2">  1       -2 0.86896452E-02 0.25659407E+03</pdfrwt>
<totfact> 0.92517433E+03</totfact>
</mgrwt>
</event>
<event>
 4    1  0.6086918E-004  0.1966936E+03  0.7818608E-02  0.1152559E+00
         -2   -1    0    0    0  501 -0.00000000000E+00  0.00000000000E+00  0.32122313951E+02  0.32122314052E+02  0.25500000000E-02 0. -1.
          2   -1    0    0  501    0  0.00000000000E+00 -0.00000000000E+00 -0.30110203414E+03  0.30110203415E+03  0.25500000000E-02 0.  1.
    5000001    1    1    2    0    0  0.23958479225E+02 -0.58240644027E+01 -0.22934846221E+03  0.24318232989E+03  0.77000000000E+02 0.  0.
   -5000001    1    1    2    0    0 -0.23958479225E+02  0.58240644027E+01 -0.39631257981E+02  0.90042018314E+02  0.77000000000E+02 0.  0.
<mgrwt>
<rscale>  0 0.19669361E+03</rscale>
<asrwt>0</asrwt>
<pdfrwt beam="1">  1        2 0.46323388E-01 0.19669361E+03</pdfrwt>
<pdfrwt beam="2">  1       -2 0.49418947E-02 0.19669361E+03</pdfrwt>
<totfact> 0.20950621E+04</totfact>
</mgrwt>
</event>
<event>
 4    1  0.6086918E-004  0.2059712E+03  0.7818608E-02  0.1144797E+00
          2   -1    0    0  501    0  0.00000000000E+00  0.00000000000E+00  0.89355854047E+02  0.89355854083E+02  0.25500000000E-02 0.  1.
         -2   -1    0    0    0  501 -0.00000000000E+00 -0.00000000000E+00 -0.11869431396E+03  0.11869431399E+03  0.25500000000E-02 0. -1.
    5000001    1    1    2    0    0 -0.68193441009E+02 -0.29712171920E+01 -0.10400670458E+02  0.10342314767E+03  0.77000000000E+02 0.  0.
   -5000001    1    1    2    0    0  0.68193441009E+02  0.29712171920E+01 -0.18937789456E+02  0.10462702040E+03  0.77000000000E+02 0.  0.
<mgrwt>
<rscale>  0 0.20597118E+03</rscale>
<asrwt>0</asrwt>
<pdfrwt beam="1">  1        2 0.13747054E-01 0.20597118E+03</pdfrwt>
<pdfrwt beam="2">  1       -2 0.18260664E-01 0.20597118E+03</pdfrwt>
<totfact> 0.10318330E+04</totfact>
</mgrwt>
</event>
<event>
 4    1  0.6086918E-004  0.1939218E+03  0.7818608E-02  0.1154971E+00
          2   -1    0    0  501    0  0.00000000000E+00  0.00000000000E+00  0.11254946779E+04  0.11254946779E+04  0.25500000000E-02 0.  1.
         -2   -1    0    0    0  501 -0.00000000000E+00 -0.00000000000E+00 -0.83531431681E+01  0.83531435573E+01  0.25500000000E-02 0. -1.
    5000001    1    1    2    0    0 -0.40077897340E+02  0.30659029554E+02  0.38062751825E+03  0.39160250459E+03  0.77000000000E+02 0.  0.
   -5000001    1    1    2    0    0  0.40077897340E+02 -0.30659029554E+02  0.73651401650E+03  0.74224531689E+03  0.77000000000E+02 0.  0.
<mgrwt>
<rscale>  0 0.19392182E+03</rscale>
<asrwt>0</asrwt>
<pdfrwt beam="1">  1        2 0.17315305E+00 0.19392182E+03</pdfrwt>
<pdfrwt beam="2">  1       -2 0.12850988E-02 0.19392182E+03</pdfrwt>
<totfact> 0.31864382E+04</totfact>
</mgrwt>
</event>
<event>
 4    1  0.6086918E-004  0.4271189E+03  0.7818608E-02  0.1034774E+00
         -2   -1    0    0    0  501 -0.00000000000E+00  0.00000000000E+00  0.14948494182E+02  0.14948494400E+02  0.25500000000E-02 0. -1.
          2   -1    0    0  501    0  0.00000000000E+00 -0.00000000000E+00 -0.30509850908E+04  0.30509850908E+04  0.25500000000E-02 0.  1.
    5000001    1    1    2    0    0  0.93584921530E+02 -0.16695326912E+03 -0.19142575069E+04  0.19253421343E+04  0.77000000000E+02 0.  0.
   -5000001    1    1    2    0    0 -0.93584921530E+02  0.16695326912E+03 -0.11217790897E+04  0.11405914509E+04  0.77000000000E+02 0.  0.
<mgrwt>
<rscale>  0 0.42711887E+03</rscale>
<asrwt>0</asrwt>
<pdfrwt beam="1">  1        2 0.46938183E+00 0.42711887E+03</pdfrwt>
<pdfrwt beam="2">  1       -2 0.22997708E-02 0.42711887E+03</pdfrwt>
<totfact> 0.11951717E+03</totfact>
</mgrwt>
</event>
<event>
 4    1  0.6086918E-004  0.2465179E+03  0.7818608E-02  0.1115525E+00
          2   -1    0    0  501    0  0.00000000000E+00  0.00000000000E+00  0.15366494397E+03  0.15366494399E+03  0.25500000000E-02 0.  1.
         -2   -1    0    0    0  501 -0.00000000000E+00 -0.00000000000E+00 -0.98869453254E+02  0.98869453287E+02  0.25500000000E-02 0. -1.
    5000001    1    1    2    0    0 -0.17063374978E+02 -0.86691150950E+02  0.66503420928E+02  0.13475243751E+03  0.77000000000E+02 0.  0.
   -5000001    1    1    2    0    0  0.17063374978E+02  0.86691150950E+02 -0.11707930209E+02  0.11778195978E+03  0.77000000000E+02 0.  0.
<mgrwt>
<rscale>  0 0.24651790E+03</rscale>
<asrwt>0</asrwt>
<pdfrwt beam="1">  1        2 0.23640761E-01 0.24651790E+03</pdfrwt>
<pdfrwt beam="2">  1       -2 0.15210685E-01 0.24651790E+03</pdfrwt>
<totfact> 0.75505923E+03</totfact>
</mgrwt>
</event>
<event>
 4    1  0.6086918E-004  0.2968513E+03  0.7818608E-02  0.1086825E+00
         -2   -1    0    0    0  501 -0.00000000000E+00  0.00000000000E+00  0.15253843164E+02  0.15253843377E+02  0.25500000000E-02 0.  1.
          2   -1    0    0  501    0  0.00000000000E+00 -0.00000000000E+00 -0.14442372966E+04  0.14442372966E+04  0.25500000000E-02 0. -1.
    5000001    1    1    2    0    0 -0.10454182547E+03  0.65297720518E+02 -0.56630911736E+03  0.58466041595E+03  0.77000000000E+02 0.  0.
   -5000001    1    1    2    0    0  0.10454182547E+03 -0.65297720518E+02 -0.86267433606E+03  0.87483072401E+03  0.77000000000E+02 0.  0.
<mgrwt>
<rscale>  0 0.29685127E+03</rscale>
<asrwt>0</asrwt>
<pdfrwt beam="1">  1        2 0.22219025E+00 0.29685127E+03</pdfrwt>
<pdfrwt beam="2">  1       -2 0.23467463E-02 0.29685127E+03</pdfrwt>
<totfact> 0.89392028E+03</totfact>
</mgrwt>
</event>
<event>
 4    1  0.6086918E-004  0.1698782E+03  0.7818608E-02  0.1177975E+00
         -2   -1    0    0    0  501 -0.00000000000E+00  0.00000000000E+00  0.19057436831E+02  0.19057437002E+02  0.25500000000E-02 0. -1.
          2   -1    0    0  501    0  0.00000000000E+00 -0.00000000000E+00 -0.37857397454E+03  0.37857397455E+03  0.25500000000E-02 0.  1.
    5000001    1    1    2    0    0  0.90059931232E+01  0.33903640649E+02 -0.16238589089E+03  0.18310855339E+03  0.77000000000E+02 0.  0.
   -5000001    1    1    2    0    0 -0.90059931232E+01 -0.33903640649E+02 -0.19713064681E+03  0.21452285816E+03  0.77000000000E+02 0.  0.
<mgrwt>
<rscale>  0 0.16987819E+03</rscale>
<asrwt>0</asrwt>
<pdfrwt beam="1">  1        2 0.58242144E-01 0.16987819E+03</pdfrwt>
<pdfrwt beam="2">  1       -2 0.29319137E-02 0.16987819E+03</pdfrwt>
<totfact> 0.35294377E+04</totfact>
</mgrwt>
</event>
<event>
 4    1  0.6086918E-004  0.2812009E+03  0.7818608E-02  0.1095035E+00
         -2   -1    0    0    0  501 -0.00000000000E+00  0.00000000000E+00  0.63423345242E+01  0.63423350368E+01  0.25500000000E-02 0. -1.
          2   -1    0    0  501    0  0.00000000000E+00 -0.00000000000E+00 -0.31169089780E+04  0.31169089780E+04  0.25500000000E-02 0.  1.
    5000001    1    1    2    0    0  0.77285039107E+02  0.55237190884E+02 -0.78454938770E+03  0.79402195578E+03  0.77000000000E+02 0.  0.
   -5000001    1    1    2    0    0 -0.77285039107E+02 -0.55237190884E+02 -0.23260172558E+04  0.23292293572E+04  0.77000000000E+02 0.  0.
<mgrwt>
<rscale>  0 0.28120086E+03</rscale>
<asrwt>0</asrwt>
<pdfrwt beam="1">  1        2 0.47952324E+00 0.28120086E+03</pdfrwt>
<pdfrwt beam="2">  1       -2 0.97574630E-03 0.28120086E+03</pdfrwt>
<totfact> 0.39151994E+03</totfact>
</mgrwt>
</event>
<event>
 4    1  0.6086918E-004  0.5947905E+03  0.7818608E-02  0.9916273E-01
         -2   -1    0    0    0  501 -0.00000000000E+00  0.00000000000E+00  0.19748320996E+03  0.19748320997E+03  0.25500000000E-02 0. -1.
          2   -1    0    0  501    0  0.00000000000E+00 -0.00000000000E+00 -0.44785552862E+03  0.44785552862E+03  0.25500000000E-02 0.  1.
    5000001    1    1    2    0    0 -0.25342622988E+03 -0.13225091196E+03 -0.15587013166E+03  0.33457384184E+03  0.77000000000E+02 0.  0.
   -5000001    1    1    2    0    0  0.25342622988E+03  0.13225091196E+03 -0.94502187004E+02  0.31076489675E+03  0.77000000000E+02 0.  0.
<mgrwt>
<rscale>  0 0.59479054E+03</rscale>
<asrwt>0</asrwt>
<pdfrwt beam="1">  1        2 0.68900850E-01 0.59479054E+03</pdfrwt>
<pdfrwt beam="2">  1       -2 0.30382032E-01 0.59479054E+03</pdfrwt>
<totfact> 0.70403183E+02</totfact>
</mgrwt>
</event>
<event>
 4    1  0.6086918E-004  0.2233714E+03  0.7818608E-02  0.1131394E+00
          2   -1    0    0  501    0  0.00000000000E+00  0.00000000000E+00  0.30795913867E+04  0.30795913867E+04  0.25500000000E-02 0.  1.
         -2   -1    0    0    0  501 -0.00000000000E+00 -0.00000000000E+00 -0.40504374678E+01  0.40504382705E+01  0.25500000000E-02 0. -1.
    5000001    1    1    2    0    0 -0.70020862954E+02 -0.19936403532E+02  0.20247391951E+04  0.20275103427E+04  0.77000000000E+02 0.  0.
   -5000001    1    1    2    0    0  0.70020862954E+02  0.19936403532E+02  0.10508017542E+04  0.10561314824E+04  0.77000000000E+02 0.  0.
<mgrwt>
<rscale>  0 0.22337138E+03</rscale>
<asrwt>0</asrwt>
<pdfrwt beam="1">  1        2 0.47378294E+00 0.22337138E+03</pdfrwt>
<pdfrwt beam="2">  1       -2 0.62314475E-03 0.22337138E+03</pdfrwt>
<totfact> 0.79082210E+03</totfact>
</mgrwt>
</event>
<event>
 4    1  0.6086918E-004  0.2726343E+03  0.7818608E-02  0.1099781E+00
          2   -1    0    0  501    0  0.00000000000E+00  0.00000000000E+00  0.21582369876E+04  0.21582369876E+04  0.25500000000E-02 0.  1.
         -2   -1    0    0    0  501 -0.00000000000E+00 -0.00000000000E+00 -0.86099725414E+01  0.86099729190E+01  0.25500000000E-02 0. -1.
    5000001    1    1    2    0    0 -0.99449922829E+02  0.31974935386E+02  0.74321924602E+03  0.75446440028E+03  0.77000000000E+02 0.  0.
   -5000001    1    1    2    0    0  0.99449922829E+02 -0.31974935386E+02  0.14064077690E+04  0.14123825602E+04  0.77000000000E+02 0.  0.
<mgrwt>
<rscale>  0 0.27263427E+03</rscale>
<asrwt>0</asrwt>
<pdfrwt beam="1">  1        2 0.33203662E+00 0.27263427E+03</pdfrwt>
<pdfrwt beam="2">  1       -2 0.13246105E-02 0.27263427E+03</pdfrwt>
<totfact> 0.86719379E+03</totfact>
</mgrwt>
</event>
<event>
 4    1  0.6086918E-004  0.2100230E+03  0.7818608E-02  0.1141548E+00
          2   -1    0    0  501    0  0.00000000000E+00  0.00000000000E+00  0.27650922777E+03  0.27650922778E+03  0.25500000000E-02 0.  1.
         -2   -1    0    0    0  501 -0.00000000000E+00 -0.00000000000E+00 -0.39880830133E+02  0.39880830214E+02  0.25500000000E-02 0. -1.
    5000001    1    1    2    0    0  0.51552913975E+02 -0.40865682397E+02  0.16013589036E+03  0.18947350822E+03  0.77000000000E+02 0.  0.
   -5000001    1    1    2    0    0 -0.51552913975E+02  0.40865682397E+02  0.76492507282E+02  0.12691654978E+03  0.77000000000E+02 0.  0.
<mgrwt>
<rscale>  0 0.21002302E+03</rscale>
<asrwt>0</asrwt>
<pdfrwt beam="1">  1        2 0.42539880E-01 0.21002302E+03</pdfrwt>
<pdfrwt beam="2">  1       -2 0.61355125E-02 0.21002302E+03</pdfrwt>
<totfact> 0.16594842E+04</totfact>
</mgrwt>
</event>
<event>
 4    1  0.6086918E-004  0.3477215E+03  0.7818608E-02  0.1063554E+00
          2   -1    0    0  501    0  0.00000000000E+00  0.00000000000E+00  0.77687336653E+02  0.77687336695E+02  0.25500000000E-02 0.  1.
         -2   -1    0    0    0  501 -0.00000000000E+00 -0.00000000000E+00 -0.38909247729E+03  0.38909247730E+03  0.25500000000E-02 0. -1.
    5000001    1    1    2    0    0  0.13802155464E+03 -0.70912018655E+02 -0.17561778461E+03  0.24667604303E+03  0.77000000000E+02 0.  0.
   -5000001    1    1    2    0    0 -0.13802155464E+03  0.70912018655E+02 -0.13578735603E+03  0.22010377096E+03  0.77000000000E+02 0.  0.
<mgrwt>
<rscale>  0 0.34772149E+03</rscale>
<asrwt>0</asrwt>
<pdfrwt beam="1">  1        2 0.11951898E-01 0.34772149E+03</pdfrwt>
<pdfrwt beam="2">  1       -2 0.59860380E-01 0.34772149E+03</pdfrwt>
<totfact> 0.13716024E+03</totfact>
</mgrwt>
</event>
<event>
 4    1  0.6086918E-004  0.3565967E+03  0.7818608E-02  0.1059940E+00
          2   -1    0    0  501    0  0.00000000000E+00  0.00000000000E+00  0.17776469233E+03  0.17776469235E+03  0.25500000000E-02 0.  1.
         -2   -1    0    0    0  501 -0.00000000000E+00 -0.00000000000E+00 -0.17883364006E+03  0.17883364007E+03  0.25500000000E-02 0. -1.
    5000001    1    1    2    0    0 -0.15154257910E+03 -0.53788532211E+02  0.11823717110E+01  0.17829401975E+03  0.77000000000E+02 0.  0.
   -5000001    1    1    2    0    0  0.15154257910E+03  0.53788532211E+02 -0.22513194387E+01  0.17830431267E+03  0.77000000000E+02 0.  0.
<mgrwt>
<rscale>  0 0.35659673E+03</rscale>
<asrwt>0</asrwt>
<pdfrwt beam="1">  1        2 0.27348414E-01 0.35659673E+03</pdfrwt>
<pdfrwt beam="2">  1       -2 0.27512867E-01 0.35659673E+03</pdfrwt>
<totfact> 0.23387107E+03</totfact>
</mgrwt>
</event>
<event>
 4    1  0.6086918E-004  0.2224577E+03  0.7818608E-02  0.1132064E+00
          2   -1    0    0  501    0  0.00000000000E+00  0.00000000000E+00  0.10280818288E+04  0.10280818288E+04  0.25500000000E-02 0.  1.
         -2   -1    0    0    0  501 -0.00000000000E+00 -0.00000000000E+00 -0.12033925120E+02  0.12033925390E+02  0.25500000000E-02 0. -1.
    5000001    1    1    2    0    0  0.32280200744E+02 -0.53003167269E+02  0.74604253212E+03  0.75256880538E+03  0.77000000000E+02 0.  0.
   -5000001    1    1    2    0    0 -0.32280200744E+02  0.53003167269E+02  0.27000537158E+03  0.28754694883E+03  0.77000000000E+02 0.  0.
<mgrwt>
<rscale>  0 0.22245773E+03</rscale>
<asrwt>0</asrwt>
<pdfrwt beam="1">  1        2 0.15816648E+00 0.22245773E+03</pdfrwt>
<pdfrwt beam="2">  1       -2 0.18513726E-02 0.22245773E+03</pdfrwt>
<totfact> 0.21548970E+04</totfact>
</mgrwt>
</event>
<event>
 4    1  0.6086918E-004  0.2222981E+03  0.7818608E-02  0.1132181E+00
         -2   -1    0    0    0  501 -0.00000000000E+00  0.00000000000E+00  0.13973904967E+02  0.13973905200E+02  0.25500000000E-02 0. -1.
          2   -1    0    0  501    0  0.00000000000E+00 -0.00000000000E+00 -0.88408445690E+03  0.88408445691E+03  0.25500000000E-02 0.  1.
    5000001    1    1    2    0    0 -0.13781544162E+02  0.73996837849E+02 -0.32370908379E+03  0.34114811139E+03  0.77000000000E+02 0.  0.
   -5000001    1    1    2    0    0  0.13781544162E+02 -0.73996837849E+02 -0.54640146814E+03  0.55691025072E+03  0.77000000000E+02 0.  0.
<mgrwt>
<rscale>  0 0.22229811E+03</rscale>
<asrwt>0</asrwt>
<pdfrwt beam="1">  1        2 0.13601295E+00 0.22229811E+03</pdfrwt>
<pdfrwt beam="2">  1       -2 0.21498322E-02 0.22229811E+03</pdfrwt>
<totfact> 0.21279502E+04</totfact>
</mgrwt>
</event>
<event>
 4    1  0.6086918E-004  0.2160293E+03  0.7818608E-02  0.1136878E+00
          2   -1    0    0  501    0  0.00000000000E+00  0.00000000000E+00  0.23556598969E+03  0.23556598971E+03  0.25500000000E-02 0.  1.
         -2   -1    0    0    0  501 -0.00000000000E+00 -0.00000000000E+00 -0.49528237511E+02  0.49528237577E+02  0.25500000000E-02 0. -1.
    5000001    1    1    2    0    0 -0.74076404264E+02  0.10514216401E+02  0.10865084339E+03  0.15274772727E+03  0.77000000000E+02 0.  0.
   -5000001    1    1    2    0    0  0.74076404264E+02 -0.10514216401E+02  0.77386908790E+02  0.13234650002E+03  0.77000000000E+02 0.  0.
<mgrwt>
<rscale>  0 0.21602933E+03</rscale>
<asrwt>0</asrwt>
<pdfrwt beam="1">  1        2 0.36240922E-01 0.21602933E+03</pdfrwt>
<pdfrwt beam="2">  1       -2 0.76197288E-02 0.21602933E+03</pdfrwt>
<totfact> 0.14145491E+04</totfact>
</mgrwt>
</event>
<event>
 4    1  0.6086918E-004  0.2599685E+03  0.7818608E-02  0.1107162E+00
          2   -1    0    0  501    0  0.00000000000E+00  0.00000000000E+00  0.19426069309E+03  0.19426069311E+03  0.25500000000E-02 0.  1.
         -2   -1    0    0    0  501 -0.00000000000E+00 -0.00000000000E+00 -0.86975409593E+02  0.86975409631E+02  0.25500000000E-02 0. -1.
    5000001    1    1    2    0    0  0.65884974192E+02 -0.46851554972E+02  0.12565408302E+03  0.16808880572E+03  0.77000000000E+02 0.  0.
   -5000001    1    1    2    0    0 -0.65884974192E+02  0.46851554972E+02 -0.18368799522E+02  0.11314729702E+03  0.77000000000E+02 0.  0.
<mgrwt>
<rscale>  0 0.25996849E+03</rscale>
<asrwt>0</asrwt>
<pdfrwt beam="1">  1        2 0.29886260E-01 0.25996849E+03</pdfrwt>
<pdfrwt beam="2">  1       -2 0.13380832E-01 0.25996849E+03</pdfrwt>
<totfact> 0.72020423E+03</totfact>
</mgrwt>
</event>
<event>
 4    1  0.6086918E-004  0.2725553E+03  0.7818608E-02  0.1099826E+00
          2   -1    0    0  501    0  0.00000000000E+00  0.00000000000E+00  0.13321927811E+04  0.13321927811E+04  0.25500000000E-02 0.  1.
         -2   -1    0    0    0  501 -0.00000000000E+00 -0.00000000000E+00 -0.13940624464E+02  0.13940624697E+02  0.25500000000E-02 0. -1.
    5000001    1    1    2    0    0 -0.82989790539E+02  0.60102475940E+02  0.88776131753E+03  0.89696642626E+03  0.77000000000E+02 0.  0.
   -5000001    1    1    2    0    0  0.82989790539E+02 -0.60102475940E+02  0.43049083910E+03  0.44916697953E+03  0.77000000000E+02 0.  0.
<mgrwt>
<rscale>  0 0.27255531E+03</rscale>
<asrwt>0</asrwt>
<pdfrwt beam="1">  1        2 0.20495279E+00 0.27255531E+03</pdfrwt>
<pdfrwt beam="2">  1       -2 0.21447109E-02 0.27255531E+03</pdfrwt>
<totfact> 0.11731551E+04</totfact>
</mgrwt>
</event>
<event>
 4    1  0.6086918E-004  0.2762187E+03  0.7818608E-02  0.1097772E+00
          2   -1    0    0  501    0  0.00000000000E+00  0.00000000000E+00  0.25390737628E+03  0.25390737629E+03  0.25500000000E-02 0.  1.
         -2   -1    0    0    0  501 -0.00000000000E+00 -0.00000000000E+00 -0.75122643374E+02  0.75122643417E+02  0.25500000000E-02 0. -1.
    5000001    1    1    2    0    0 -0.83667798903E+02  0.76914583312E+02  0.71364774681E+02  0.15471937424E+03  0.77000000000E+02 0.  0.
   -5000001    1    1    2    0    0  0.83667798903E+02 -0.76914583312E+02  0.10741995822E+03  0.17431064547E+03  0.77000000000E+02 0.  0.
<mgrwt>
<rscale>  0 0.27621871E+03</rscale>
<asrwt>0</asrwt>
<pdfrwt beam="1">  1        2 0.39062674E-01 0.27621871E+03</pdfrwt>
<pdfrwt beam="2">  1       -2 0.11557330E-01 0.27621871E+03</pdfrwt>
<totfact> 0.68406187E+03</totfact>
</mgrwt>
</event>
<event>
 4    1  0.6086918E-004  0.2579082E+03  0.7818608E-02  0.1108407E+00
         -2   -1    0    0    0  501 -0.00000000000E+00  0.00000000000E+00  0.70393353202E+02  0.70393353248E+02  0.25500000000E-02 0. -1.
          2   -1    0    0  501    0  0.00000000000E+00 -0.00000000000E+00 -0.23623198230E+03  0.23623198232E+03  0.25500000000E-02 0.  1.
    5000001    1    1    2    0    0 -0.84764965446E+02 -0.51541271286E+02 -0.48083334630E+02  0.13447159210E+03  0.77000000000E+02 0.  0.
   -5000001    1    1    2    0    0  0.84764965446E+02  0.51541271286E+02 -0.11775529447E+03  0.17215374346E+03  0.77000000000E+02 0.  0.
<mgrwt>
<rscale>  0 0.25790821E+03</rscale>
<asrwt>0</asrwt>
<pdfrwt beam="1">  1        2 0.36343382E-01 0.25790821E+03</pdfrwt>
<pdfrwt beam="2">  1       -2 0.10829747E-01 0.25790821E+03</pdfrwt>
<totfact> 0.81860121E+03</totfact>
</mgrwt>
</event>
<event>
 4    1  0.6086918E-004  0.2559186E+03  0.7818608E-02  0.1109620E+00
          2   -1    0    0  501    0  0.00000000000E+00  0.00000000000E+00  0.13407453988E+02  0.13407454231E+02  0.25500000000E-02 0.  1.
         -2   -1    0    0    0  501 -0.00000000000E+00 -0.00000000000E+00 -0.12212299123E+04  0.12212299123E+04  0.25500000000E-02 0. -1.
    5000001    1    1    2    0    0 -0.27303196137E+02 -0.64364717073E+02 -0.96352018010E+03  0.96911734005E+03  0.77000000000E+02 0.  0.
   -5000001    1    1    2    0    0  0.27303196137E+02  0.64364717073E+02 -0.24430227816E+03  0.26552002644E+03  0.77000000000E+02 0.  0.
<mgrwt>
<rscale>  0 0.25591861E+03</rscale>
<asrwt>0</asrwt>
<pdfrwt beam="1">  1        2 0.20626862E-02 0.25591861E+03</pdfrwt>
<pdfrwt beam="2">  1       -2 0.18788144E+00 0.25591861E+03</pdfrwt>
<totfact> 0.90370478E+02</totfact>
</mgrwt>
</event>
<event>
 4    1  0.6086918E-004  0.2960104E+03  0.7818608E-02  0.1087252E+00
          2   -1    0    0  501    0  0.00000000000E+00  0.00000000000E+00  0.39045484476E+03  0.39045484476E+03  0.25500000000E-02 0.  1.
         -2   -1    0    0    0  501 -0.00000000000E+00 -0.00000000000E+00 -0.56102631856E+02  0.56102631914E+02  0.25500000000E-02 0. -1.
    5000001    1    1    2    0    0  0.11635605799E+03 -0.11674073543E+02  0.23954942623E+03  0.27746701395E+03  0.77000000000E+02 0.  0.
   -5000001    1    1    2    0    0 -0.11635605799E+03  0.11674073543E+02  0.94802786673E+02  0.16909046273E+03  0.77000000000E+02 0.  0.
<mgrwt>
<rscale>  0 0.29601044E+03</rscale>
<asrwt>0</asrwt>
<pdfrwt beam="1">  1        2 0.60069978E-01 0.29601044E+03</pdfrwt>
<pdfrwt beam="2">  1       -2 0.86311739E-02 0.29601044E+03</pdfrwt>
<totfact> 0.68565196E+03</totfact>
</mgrwt>
</event>
<event>
 4    1  0.6086918E-004  0.2202191E+03  0.7818608E-02  0.1133720E+00
         -2   -1    0    0    0  501 -0.00000000000E+00  0.00000000000E+00  0.90012284015E+01  0.90012287627E+01  0.25500000000E-02 0. -1.
          2   -1    0    0  501    0  0.00000000000E+00 -0.00000000000E+00 -0.13469398602E+04  0.13469398602E+04  0.25500000000E-02 0.  1.
    5000001    1    1    2    0    0 -0.44180032853E+02 -0.12410966046E+02 -0.10627055040E+04  0.10664792055E+04  0.77000000000E+02 0.  0.
   -5000001    1    1    2    0    0  0.44180032853E+02  0.12410966046E+02 -0.27523312775E+03  0.28946188349E+03  0.77000000000E+02 0.  0.
<mgrwt>
<rscale>  0 0.22021911E+03</rscale>
<asrwt>0</asrwt>
<pdfrwt beam="1">  1        2 0.20722136E+00 0.22021911E+03</pdfrwt>
<pdfrwt beam="2">  1       -2 0.13848055E-02 0.22021911E+03</pdfrwt>
<totfact> 0.21670116E+04</totfact>
</mgrwt>
</event>
<event>
 4    1  0.6086918E-004  0.3339208E+03  0.7818608E-02  0.1069415E+00
         -2   -1    0    0    0  501 -0.00000000000E+00  0.00000000000E+00  0.33502729255E+02  0.33502729352E+02  0.25500000000E-02 0. -1.
          2   -1    0    0  501    0  0.00000000000E+00 -0.00000000000E+00 -0.83204505290E+03  0.83204505290E+03  0.25500000000E-02 0.  1.
    5000001    1    1    2    0    0 -0.11238964598E+03 -0.71779661243E+02 -0.23202652615E+03  0.27847632059E+03  0.77000000000E+02 0.  0.
   -5000001    1    1    2    0    0  0.11238964598E+03  0.71779661243E+02 -0.56651579749E+03  0.58707146166E+03  0.77000000000E+02 0.  0.
<mgrwt>
<rscale>  0 0.33392083E+03</rscale>
<asrwt>0</asrwt>
<pdfrwt beam="1">  1        2 0.12800692E+00 0.33392083E+03</pdfrwt>
<pdfrwt beam="2">  1       -2 0.51542667E-02 0.33392083E+03</pdfrwt>
<totfact> 0.63235607E+03</totfact>
</mgrwt>
</event>
<event>
 4    1  0.6086918E-004  0.3386714E+03  0.7818608E-02  0.1067363E+00
          2   -1    0    0  501    0  0.00000000000E+00  0.00000000000E+00  0.44505038279E+02  0.44505038352E+02  0.25500000000E-02 0.  1.
         -2   -1    0    0    0  501 -0.00000000000E+00 -0.00000000000E+00 -0.64429948205E+03  0.64429948205E+03  0.25500000000E-02 0. -1.
    5000001    1    1    2    0    0 -0.10931366905E+02  0.14624794815E+03 -0.37144735947E+03  0.40670640268E+03  0.77000000000E+02 0.  0.
   -5000001    1    1    2    0    0  0.10931366905E+02 -0.14624794815E+03 -0.22834708429E+03  0.28209811773E+03  0.77000000000E+02 0.  0.
<mgrwt>
<rscale>  0 0.33867136E+03</rscale>
<asrwt>0</asrwt>
<pdfrwt beam="1">  1        2 0.68469294E-02 0.33867136E+03</pdfrwt>
<pdfrwt beam="2">  1       -2 0.99122990E-01 0.33867136E+03</pdfrwt>
<totfact> 0.91462504E+02</totfact>
</mgrwt>
</event>
<event>
 4    1  0.6086918E-004  0.1715001E+03  0.7818608E-02  0.1176292E+00
          2   -1    0    0  501    0  0.00000000000E+00  0.00000000000E+00  0.10479674025E+04  0.10479674025E+04  0.25500000000E-02 0.  1.
         -2   -1    0    0    0  501 -0.00000000000E+00 -0.00000000000E+00 -0.70165080147E+01  0.70165084781E+01  0.25500000000E-02 0. -1.
    5000001    1    1    2    0    0 -0.37326366771E+02 -0.54357825591E+01  0.51355251150E+03  0.52066110615E+03  0.77000000000E+02 0.  0.
   -5000001    1    1    2    0    0  0.37326366771E+02  0.54357825591E+01  0.52739838300E+03  0.53432280484E+03  0.77000000000E+02 0.  0.
<mgrwt>
<rscale>  0 0.17150011E+03</rscale>
<asrwt>0</asrwt>
<pdfrwt beam="1">  1        2 0.16122565E+00 0.17150011E+03</pdfrwt>
<pdfrwt beam="2">  1       -2 0.10794635E-02 0.17150011E+03</pdfrwt>
<totfact> 0.45057077E+04</totfact>
</mgrwt>
</event>
<event>
 4    1  0.6086918E-004  0.4073856E+03  0.7818608E-02  0.1041252E+00
         -2   -1    0    0    0  501 -0.00000000000E+00  0.00000000000E+00  0.50677087671E+03  0.50677087672E+03  0.25500000000E-02 0. -1.
          2   -1    0    0  501    0  0.00000000000E+00 -0.00000000000E+00 -0.81872816337E+02  0.81872816377E+02  0.25500000000E-02 0.  1.
    5000001    1    1    2    0    0 -0.28757629897E+02  0.15957407394E+03  0.35157465127E+03  0.39474627518E+03  0.77000000000E+02 0.  0.
   -5000001    1    1    2    0    0  0.28757629897E+02 -0.15957407394E+03  0.73323409103E+02  0.19389741791E+03  0.77000000000E+02 0.  0.
<mgrwt>
<rscale>  0 0.40738561E+03</rscale>
<asrwt>0</asrwt>
<pdfrwt beam="1">  1        2 0.12595818E-01 0.40738561E+03</pdfrwt>
<pdfrwt beam="2">  1       -2 0.77964752E-01 0.40738561E+03</pdfrwt>
<totfact> 0.73085884E+02</totfact>
</mgrwt>
</event>
<event>
 4    1  0.6086918E-004  0.3448097E+03  0.7818608E-02  0.1064766E+00
         -2   -1    0    0    0  501 -0.00000000000E+00  0.00000000000E+00  0.43087650320E+02  0.43087650395E+02  0.25500000000E-02 0. -1.
          2   -1    0    0  501    0  0.00000000000E+00 -0.00000000000E+00 -0.68983663245E+03  0.68983663245E+03  0.25500000000E-02 0.  1.
    5000001    1    1    2    0    0  0.30911702467E+02 -0.14988739973E+03 -0.36440849948E+03  0.40267147954E+03  0.77000000000E+02 0.  0.
   -5000001    1    1    2    0    0 -0.30911702467E+02  0.14988739973E+03 -0.28234048265E+03  0.33025280331E+03  0.77000000000E+02 0.  0.
<mgrwt>
<rscale>  0 0.34480974E+03</rscale>
<asrwt>0</asrwt>
<pdfrwt beam="1">  1        2 0.10612870E+00 0.34480974E+03</pdfrwt>
<pdfrwt beam="2">  1       -2 0.66288698E-02 0.34480974E+03</pdfrwt>
<totfact> 0.54369121E+03</totfact>
</mgrwt>
</event>
<event>
 4    1  0.6086918E-004  0.2698636E+03  0.7818608E-02  0.1101358E+00
         -2   -1    0    0    0  501 -0.00000000000E+00  0.00000000000E+00  0.65444961820E+02  0.65444961869E+02  0.25500000000E-02 0.  1.
          2   -1    0    0  501    0  0.00000000000E+00 -0.00000000000E+00 -0.27819689828E+03  0.27819689829E+03  0.25500000000E-02 0. -1.
    5000001    1    1    2    0    0 -0.77835240142E+02  0.38539146616E+02 -0.19399041242E+03  0.22606386386E+03  0.77000000000E+02 0.  0.
   -5000001    1    1    2    0    0  0.77835240142E+02 -0.38539146616E+02 -0.18761524033E+02  0.11757799630E+03  0.77000000000E+02 0.  0.
<mgrwt>
<rscale>  0 0.26986356E+03</rscale>
<asrwt>0</asrwt>
<pdfrwt beam="1">  1        2 0.42799522E-01 0.26986356E+03</pdfrwt>
<pdfrwt beam="2">  1       -2 0.10068456E-01 0.26986356E+03</pdfrwt>
<totfact> 0.77226899E+03</totfact>
</mgrwt>
</event>
<event>
 4    1  0.6086918E-004  0.3650852E+03  0.7818608E-02  0.1056588E+00
         -2   -1    0    0    0  501 -0.00000000000E+00  0.00000000000E+00  0.14697835148E+02  0.14697835369E+02  0.25500000000E-02 0. -1.
          2   -1    0    0  501    0  0.00000000000E+00 -0.00000000000E+00 -0.22671235128E+04  0.22671235128E+04  0.25500000000E-02 0.  1.
    5000001    1    1    2    0    0 -0.16345953067E+03 -0.13378024510E+02 -0.98718230298E+03  0.10036712056E+04  0.77000000000E+02 0.  0.
   -5000001    1    1    2    0    0  0.16345953067E+03  0.13378024510E+02 -0.12652433747E+04  0.12781501426E+04  0.77000000000E+02 0.  0.
<mgrwt>
<rscale>  0 0.36508524E+03</rscale>
<asrwt>0</asrwt>
<pdfrwt beam="1">  1        2 0.34878795E+00 0.36508524E+03</pdfrwt>
<pdfrwt beam="2">  1       -2 0.22612072E-02 0.36508524E+03</pdfrwt>
<totfact> 0.34429992E+03</totfact>
</mgrwt>
</event>
<event>
 4    1  0.6086918E-004  0.2334709E+03  0.7818608E-02  0.1124220E+00
          2   -1    0    0  501    0  0.00000000000E+00  0.00000000000E+00  0.17843609734E+04  0.17843609734E+04  0.25500000000E-02 0.  1.
         -2   -1    0    0    0  501 -0.00000000000E+00 -0.00000000000E+00 -0.76369987610E+01  0.76369991868E+01  0.25500000000E-02 0. -1.
    5000001    1    1    2    0    0 -0.22158258717E+02 -0.41025801637E+02  0.14588334352E+04  0.14616080516E+04  0.77000000000E+02 0.  0.
   -5000001    1    1    2    0    0  0.22158258717E+02  0.41025801637E+02  0.31789053943E+03  0.33038992098E+03  0.77000000000E+02 0.  0.
<mgrwt>
<rscale>  0 0.23347088E+03</rscale>
<asrwt>0</asrwt>
<pdfrwt beam="1">  1        2 0.27451723E+00 0.23347088E+03</pdfrwt>
<pdfrwt beam="2">  1       -2 0.11749223E-02 0.23347088E+03</pdfrwt>
<totfact> 0.16174356E+04</totfact>
</mgrwt>
</event>
<event>
 4    1  0.6086918E-004  0.2088784E+03  0.7818608E-02  0.1142457E+00
          2   -1    0    0  501    0  0.00000000000E+00  0.00000000000E+00  0.11290758298E+03  0.11290758301E+03  0.25500000000E-02 0.  1.
         -2   -1    0    0    0  501 -0.00000000000E+00 -0.00000000000E+00 -0.96605959019E+02  0.96605959052E+02  0.25500000000E-02 0. -1.
    5000001    1    1    2    0    0 -0.23558179788E+02  0.64067457333E+02  0.26063402161E+02  0.10615049626E+03  0.77000000000E+02 0.  0.
   -5000001    1    1    2    0    0  0.23558179788E+02 -0.64067457333E+02 -0.97617781972E+01  0.10336304580E+03  0.77000000000E+02 0.  0.
<mgrwt>
<rscale>  0 0.20887839E+03</rscale>
<asrwt>0</asrwt>
<pdfrwt beam="1">  1        2 0.17370397E-01 0.20887839E+03</pdfrwt>
<pdfrwt beam="2">  1       -2 0.14862455E-01 0.20887839E+03</pdfrwt>
<totfact> 0.11046504E+04</totfact>
</mgrwt>
</event>
<event>
 4    1  0.6086918E-004  0.3515503E+03  0.7818608E-02  0.1061981E+00
         -2   -1    0    0    0  501 -0.00000000000E+00  0.00000000000E+00  0.31617168408E+03  0.31617168410E+03  0.25500000000E-02 0. -1.
          2   -1    0    0  501    0  0.00000000000E+00 -0.00000000000E+00 -0.97721898636E+02  0.97721898670E+02  0.25500000000E-02 0.  1.
    5000001    1    1    2    0    0 -0.99523249229E+02  0.12247048972E+03  0.11864354628E+03  0.21191788283E+03  0.77000000000E+02 0.  0.
   -5000001    1    1    2    0    0  0.99523249229E+02 -0.12247048972E+03  0.99806239173E+02  0.20197569994E+03  0.77000000000E+02 0.  0.
<mgrwt>
<rscale>  0 0.35155027E+03</rscale>
<asrwt>0</asrwt>
<pdfrwt beam="1">  1        2 0.15034138E-01 0.35155027E+03</pdfrwt>
<pdfrwt beam="2">  1       -2 0.48641798E-01 0.35155027E+03</pdfrwt>
<totfact> 0.15858728E+03</totfact>
</mgrwt>
</event>
<event>
 4    1  0.6086918E-004  0.3020543E+03  0.7818608E-02  0.1084218E+00
         -2   -1    0    0    0  501 -0.00000000000E+00  0.00000000000E+00  0.31026237099E+02  0.31026237204E+02  0.25500000000E-02 0. -1.
          2   -1    0    0  501    0  0.00000000000E+00 -0.00000000000E+00 -0.73515849665E+03  0.73515849665E+03  0.25500000000E-02 0.  1.
    5000001    1    1    2    0    0 -0.91089572072E+02  0.28647870658E+02 -0.57554713870E+03  0.58847389025E+03  0.77000000000E+02 0.  0.
   -5000001    1    1    2    0    0  0.91089572072E+02 -0.28647870658E+02 -0.12858512085E+03  0.17771084361E+03  0.77000000000E+02 0.  0.
<mgrwt>
<rscale>  0 0.30205431E+03</rscale>
<asrwt>0</asrwt>
<pdfrwt beam="1">  1        2 0.11310129E+00 0.30205431E+03</pdfrwt>
<pdfrwt beam="2">  1       -2 0.47732678E-02 0.30205431E+03</pdfrwt>
<totfact> 0.82992073E+03</totfact>
</mgrwt>
</event>
<event>
 4    1  0.6086918E-004  0.3814144E+03  0.7818608E-02  0.1050412E+00
          2   -1    0    0  501    0  0.00000000000E+00  0.00000000000E+00  0.23308802155E+03  0.23308802156E+03  0.25500000000E-02 0.  1.
         -2   -1    0    0    0  501 -0.00000000000E+00 -0.00000000000E+00 -0.15603216827E+03  0.15603216829E+03  0.25500000000E-02 0. -1.
    5000001    1    1    2    0    0 -0.14615271365E+03  0.81592747385E+02 -0.11682632914E+02  0.18461710659E+03  0.77000000000E+02 0.  0.
   -5000001    1    1    2    0    0  0.14615271365E+03 -0.81592747385E+02  0.88738486190E+02  0.20450308326E+03  0.77000000000E+02 0.  0.
<mgrwt>
<rscale>  0 0.38141436E+03</rscale>
<asrwt>0</asrwt>
<pdfrwt beam="1">  1        2 0.35859696E-01 0.38141436E+03</pdfrwt>
<pdfrwt beam="2">  1       -2 0.24004949E-01 0.38141436E+03</pdfrwt>
<totfact> 0.22134496E+03</totfact>
</mgrwt>
</event>
<event>
 4    1  0.6086918E-004  0.2325140E+03  0.7818608E-02  0.1124883E+00
         -2   -1    0    0    0  501 -0.00000000000E+00  0.00000000000E+00  0.17263670413E+03  0.17263670415E+03  0.25500000000E-02 0. -1.
          2   -1    0    0  501    0  0.00000000000E+00 -0.00000000000E+00 -0.78289778343E+02  0.78289778385E+02  0.25500000000E-02 0.  1.
    5000001    1    1    2    0    0  0.38482308287E+02 -0.36769751680E+02  0.12158105405E+03  0.15344007101E+03  0.77000000000E+02 0.  0.
   -5000001    1    1    2    0    0 -0.38482308287E+02  0.36769751680E+02 -0.27234128257E+02  0.97486411523E+02  0.77000000000E+02 0.  0.
<mgrwt>
<rscale>  0 0.23251399E+03</rscale>
<asrwt>0</asrwt>
<pdfrwt beam="1">  1        2 0.12044581E-01 0.23251399E+03</pdfrwt>
<pdfrwt beam="2">  1       -2 0.26559493E-01 0.23251399E+03</pdfrwt>
<totfact> 0.63755503E+03</totfact>
</mgrwt>
</event>
<event>
 4    1  0.6086918E-004  0.2570480E+03  0.7818608E-02  0.1108930E+00
          2   -1    0    0  501    0  0.00000000000E+00  0.00000000000E+00  0.21559622620E+04  0.21559622620E+04  0.25500000000E-02 0.  1.
         -2   -1    0    0    0  501 -0.00000000000E+00 -0.00000000000E+00 -0.76617381900E+01  0.76617386143E+01  0.25500000000E-02 0. -1.
    5000001    1    1    2    0    0 -0.15284535722E+02  0.92425602813E+02  0.71572091701E+03  0.72592116661E+03  0.77000000000E+02 0.  0.
   -5000001    1    1    2    0    0  0.15284535722E+02 -0.92425602813E+02  0.14325796068E+04  0.14377028340E+04  0.77000000000E+02 0.  0.
<mgrwt>
<rscale>  0 0.25704800E+03</rscale>
<asrwt>0</asrwt>
<pdfrwt beam="1">  1        2 0.33168665E+00 0.25704800E+03</pdfrwt>
<pdfrwt beam="2">  1       -2 0.11787285E-02 0.25704800E+03</pdfrwt>
<totfact> 0.10301748E+04</totfact>
</mgrwt>
</event>
<event>
 4    1  0.6086918E-004  0.3655845E+03  0.7818608E-02  0.1056394E+00
          2   -1    0    0  501    0  0.00000000000E+00  0.00000000000E+00  0.10168935339E+04  0.10168935339E+04  0.25500000000E-02 0.  1.
         -2   -1    0    0    0  501 -0.00000000000E+00 -0.00000000000E+00 -0.32857920999E+02  0.32857921098E+02  0.25500000000E-02 0. -1.
    5000001    1    1    2    0    0 -0.14612844009E+03  0.78065574885E+02  0.50930671143E+03  0.54108232396E+03  0.77000000000E+02 0.  0.
   -5000001    1    1    2    0    0  0.14612844009E+03 -0.78065574885E+02  0.47472890144E+03  0.50866913101E+03  0.77000000000E+02 0.  0.
<mgrwt>
<rscale>  0 0.36558450E+03</rscale>
<asrwt>0</asrwt>
<pdfrwt beam="1">  1        2 0.15644516E+00 0.36558450E+03</pdfrwt>
<pdfrwt beam="2">  1       -2 0.50550647E-02 0.36558450E+03</pdfrwt>
<totfact> 0.49575264E+03</totfact>
</mgrwt>
</event>
<event>
 4    1  0.6086918E-004  0.4132771E+03  0.7818608E-02  0.1039277E+00
         -2   -1    0    0    0  501 -0.00000000000E+00  0.00000000000E+00  0.31852006219E+03  0.31852006220E+03  0.25500000000E-02 0. -1.
          2   -1    0    0  501    0  0.00000000000E+00 -0.00000000000E+00 -0.13405585853E+03  0.13405585856E+03  0.25500000000E-02 0.  1.
    5000001    1    1    2    0    0  0.19907809801E+02 -0.14544938904E+03  0.22732670492E+03  0.28135080671E+03  0.77000000000E+02 0.  0.
   -5000001    1    1    2    0    0 -0.19907809801E+02  0.14544938904E+03 -0.42862501273E+02  0.17122511404E+03  0.77000000000E+02 0.  0.
<mgrwt>
<rscale>  0 0.41327705E+03</rscale>
<asrwt>0</asrwt>
<pdfrwt beam="1">  1        2 0.20623978E-01 0.41327705E+03</pdfrwt>
<pdfrwt beam="2">  1       -2 0.49003086E-01 0.41327705E+03</pdfrwt>
<totfact> 0.10796553E+03</totfact>
</mgrwt>
</event>
<event>
 4    1  0.6086918E-004  0.2611879E+03  0.7818608E-02  0.1106432E+00
         -2   -1    0    0    0  501 -0.00000000000E+00  0.00000000000E+00  0.35989574579E+03  0.35989574580E+03  0.25500000000E-02 0. -1.
          2   -1    0    0  501    0  0.00000000000E+00 -0.00000000000E+00 -0.47388108345E+02  0.47388108414E+02  0.25500000000E-02 0.  1.
    5000001    1    1    2    0    0  0.48139532134E+02 -0.75134990142E+02  0.24395398802E+03  0.27093399485E+03  0.77000000000E+02 0.  0.
   -5000001    1    1    2    0    0 -0.48139532134E+02  0.75134990142E+02  0.68553649429E+02  0.13634985936E+03  0.77000000000E+02 0.  0.
<mgrwt>
<rscale>  0 0.26118789E+03</rscale>
<asrwt>0</asrwt>
<pdfrwt beam="1">  1        2 0.72904783E-02 0.26118789E+03</pdfrwt>
<pdfrwt beam="2">  1       -2 0.55368576E-01 0.26118789E+03</pdfrwt>
<totfact> 0.29747420E+03</totfact>
</mgrwt>
</event>
<event>
 4    1  0.6086918E-004  0.2923232E+03  0.7818608E-02  0.1089142E+00
          2   -1    0    0  501    0  0.00000000000E+00  0.00000000000E+00  0.21089176375E+04  0.21089176375E+04  0.25500000000E-02 0.  1.
         -2   -1    0    0    0  501 -0.00000000000E+00 -0.00000000000E+00 -0.10129945223E+02  0.10129945544E+02  0.25500000000E-02 0. -1.
    5000001    1    1    2    0    0  0.62154970638E+02 -0.19619744869E+02  0.28271117562E+03  0.30017125710E+03  0.77000000000E+02 0.  0.
   -5000001    1    1    2    0    0 -0.62154970638E+02  0.19619744869E+02  0.18160765167E+04  0.18188763260E+04  0.77000000000E+02 0.  0.
<mgrwt>
<rscale>  0 0.29232325E+03</rscale>
<asrwt>0</asrwt>
<pdfrwt beam="1">  1        2 0.32444893E+00 0.29232325E+03</pdfrwt>
<pdfrwt beam="2">  1       -2 0.15584528E-02 0.29232325E+03</pdfrwt>
<totfact> 0.72628520E+03</totfact>
</mgrwt>
</event>
<event>
 4    1  0.6086918E-004  0.1941388E+03  0.7818608E-02  0.1154781E+00
         -2   -1    0    0    0  501 -0.00000000000E+00  0.00000000000E+00  0.33901148256E+02  0.33901148352E+02  0.25500000000E-02 0. -1.
          2   -1    0    0  501    0  0.00000000000E+00 -0.00000000000E+00 -0.27793943209E+03  0.27793943210E+03  0.25500000000E-02 0.  1.
    5000001    1    1    2    0    0  0.13032406194E+02 -0.51491741802E+02 -0.16366549477E+03  0.18851163695E+03  0.77000000000E+02 0.  0.
   -5000001    1    1    2    0    0 -0.13032406194E+02  0.51491741802E+02 -0.80372789058E+02  0.12332894350E+03  0.77000000000E+02 0.  0.
<mgrwt>
<rscale>  0 0.19413877E+03</rscale>
<asrwt>0</asrwt>
<pdfrwt beam="1">  1        2 0.42759911E-01 0.19413877E+03</pdfrwt>
<pdfrwt beam="2">  1       -2 0.52155615E-02 0.19413877E+03</pdfrwt>
<totfact> 0.21014201E+04</totfact>
</mgrwt>
</event>
<event>
 4    1  0.6086918E-004  0.4035894E+03  0.7818608E-02  0.1042544E+00
         -2   -1    0    0    0  501 -0.00000000000E+00  0.00000000000E+00  0.74881872013E+02  0.74881872057E+02  0.25500000000E-02 0. -1.
          2   -1    0    0  501    0  0.00000000000E+00 -0.00000000000E+00 -0.54380456540E+03  0.54380456541E+03  0.25500000000E-02 0.  1.
    5000001    1    1    2    0    0  0.32231008058E+01  0.16048152183E+03 -0.88810809261E+02  0.19894991096E+03  0.77000000000E+02 0.  0.
   -5000001    1    1    2    0    0 -0.32231008058E+01 -0.16048152183E+03 -0.38011188413E+03  0.41973652651E+03  0.77000000000E+02 0.  0.
<mgrwt>
<rscale>  0 0.40358941E+03</rscale>
<asrwt>0</asrwt>
<pdfrwt beam="1">  1        2 0.83662238E-01 0.40358941E+03</pdfrwt>
<pdfrwt beam="2">  1       -2 0.11520288E-01 0.40358941E+03</pdfrwt>
<totfact> 0.30056787E+03</totfact>
</mgrwt>
</event>
<event>
 4    1  0.6086918E-004  0.2465721E+03  0.7818608E-02  0.1115491E+00
          2   -1    0    0  501    0  0.00000000000E+00  0.00000000000E+00  0.15006601973E+04  0.15006601973E+04  0.25500000000E-02 0.  1.
         -2   -1    0    0    0  501 -0.00000000000E+00 -0.00000000000E+00 -0.10128510228E+02  0.10128510549E+02  0.25500000000E-02 0. -1.
    5000001    1    1    2    0    0 -0.92549705348E+02 -0.24805982432E+02  0.80328584344E+03  0.81263640763E+03  0.77000000000E+02 0.  0.
   -5000001    1    1    2    0    0  0.92549705348E+02  0.24805982432E+02  0.68724584367E+03  0.69815230026E+03  0.77000000000E+02 0.  0.
<mgrwt>
<rscale>  0 0.24657212E+03</rscale>
<asrwt>0</asrwt>
<pdfrwt beam="1">  1        2 0.23087068E+00 0.24657212E+03</pdfrwt>
<pdfrwt beam="2">  1       -2 0.15582332E-02 0.24657212E+03</pdfrwt>
<totfact> 0.15151540E+04</totfact>
</mgrwt>
</event>
<event>
 4    1  0.6086918E-004  0.1901949E+03  0.7818608E-02  0.1158286E+00
          2   -1    0    0  501    0  0.00000000000E+00  0.00000000000E+00  0.20769809682E+04  0.20769809682E+04  0.25500000000E-02 0.  1.
         -2   -1    0    0    0  501 -0.00000000000E+00 -0.00000000000E+00 -0.43541696871E+01  0.43541704337E+01  0.25500000000E-02 0. -1.
    5000001    1    1    2    0    0  0.54484138755E+02 -0.10900664491E+02  0.97925919162E+03  0.98385207742E+03  0.77000000000E+02 0.  0.
   -5000001    1    1    2    0    0 -0.54484138755E+02  0.10900664491E+02  0.10933676069E+04  0.10974830613E+04  0.77000000000E+02 0.  0.
<mgrwt>
<rscale>  0 0.19019494E+03</rscale>
<asrwt>0</asrwt>
<pdfrwt beam="1">  1        2 0.31953544E+00 0.19019494E+03</pdfrwt>
<pdfrwt beam="2">  1       -2 0.66987251E-03 0.19019494E+03</pdfrwt>
<totfact> 0.25405187E+04</totfact>
</mgrwt>
</event>
<event>
 4    1  0.6086918E-004  0.2832210E+03  0.7818608E-02  0.1093943E+00
         -2   -1    0    0    0  501 -0.00000000000E+00  0.00000000000E+00  0.79193511627E+02  0.79193511668E+02  0.25500000000E-02 0. -1.
          2   -1    0    0  501    0  0.00000000000E+00 -0.00000000000E+00 -0.25322201361E+03  0.25322201362E+03  0.25500000000E-02 0.  1.
    5000001    1    1    2    0    0  0.31947650375E+02 -0.10404709755E+03 -0.30994499757E+02  0.13687991046E+03  0.77000000000E+02 0.  0.
   -5000001    1    1    2    0    0 -0.31947650375E+02  0.10404709755E+03 -0.14303400223E+03  0.19553561483E+03  0.77000000000E+02 0.  0.
<mgrwt>
<rscale>  0 0.28322105E+03</rscale>
<asrwt>0</asrwt>
<pdfrwt beam="1">  1        2 0.38957232E-01 0.28322105E+03</pdfrwt>
<pdfrwt beam="2">  1       -2 0.12183617E-01 0.28322105E+03</pdfrwt>
<totfact> 0.63061919E+03</totfact>
</mgrwt>
</event>
<event>
 4    1  0.6086918E-004  0.4189688E+03  0.7818608E-02  0.1037402E+00
         -2   -1    0    0    0  501 -0.00000000000E+00  0.00000000000E+00  0.30749755390E+02  0.30749755495E+02  0.25500000000E-02 0. -1.
          2   -1    0    0  501    0  0.00000000000E+00 -0.00000000000E+00 -0.14271236766E+04  0.14271236766E+04  0.25500000000E-02 0.  1.
    5000001    1    1    2    0    0 -0.13500615046E+02  0.19237119923E+03 -0.79447764737E+03  0.82116543830E+03  0.77000000000E+02 0.  0.
   -5000001    1    1    2    0    0  0.13500615046E+02 -0.19237119923E+03 -0.60189627389E+03  0.63670799384E+03  0.77000000000E+02 0.  0.
<mgrwt>
<rscale>  0 0.41896875E+03</rscale>
<asrwt>0</asrwt>
<pdfrwt beam="1">  1        2 0.21955744E+00 0.41896875E+03</pdfrwt>
<pdfrwt beam="2">  1       -2 0.47307327E-02 0.41896875E+03</pdfrwt>
<totfact> 0.31848792E+03</totfact>
</mgrwt>
</event>
<event>
 4    1  0.6086918E-004  0.1944486E+03  0.7818608E-02  0.1154509E+00
         -2   -1    0    0    0  501 -0.00000000000E+00  0.00000000000E+00  0.14122936076E+02  0.14122936306E+02  0.25500000000E-02 0. -1.
          2   -1    0    0  501    0  0.00000000000E+00 -0.00000000000E+00 -0.66930574791E+03  0.66930574791E+03  0.25500000000E-02 0.  1.
    5000001    1    1    2    0    0 -0.38252352917E+02 -0.28420255250E+02 -0.45198447648E+03  0.46096628987E+03  0.77000000000E+02 0.  0.
   -5000001    1    1    2    0    0  0.38252352917E+02  0.28420255250E+02 -0.20319833535E+03  0.22246239435E+03  0.77000000000E+02 0.  0.
<mgrwt>
<rscale>  0 0.19444858E+03</rscale>
<asrwt>0</asrwt>
<pdfrwt beam="1">  1        2 0.10297009E+00 0.19444858E+03</pdfrwt>
<pdfrwt beam="2">  1       -2 0.21727599E-02 0.19444858E+03</pdfrwt>
<totfact> 0.29379124E+04</totfact>
</mgrwt>
</event>
<event>
 4    1  0.6086918E-004  0.1769217E+03  0.7818608E-02  0.1170816E+00
          2   -1    0    0  501    0  0.00000000000E+00  0.00000000000E+00  0.69847131831E+03  0.69847131831E+03  0.25500000000E-02 0.  1.
         -2   -1    0    0    0  501 -0.00000000000E+00 -0.00000000000E+00 -0.11203496513E+02  0.11203496803E+02  0.25500000000E-02 0. -1.
    5000001    1    1    2    0    0  0.18432941868E+02 -0.31799281401E+02  0.24996028244E+03  0.26412139338E+03  0.77000000000E+02 0.  0.
   -5000001    1    1    2    0    0 -0.18432941868E+02  0.31799281401E+02  0.43730753935E+03  0.44555342173E+03  0.77000000000E+02 0.  0.
<mgrwt>
<rscale>  0 0.17692169E+03</rscale>
<asrwt>0</asrwt>
<pdfrwt beam="1">  1        2 0.10745711E+00 0.17692169E+03</pdfrwt>
<pdfrwt beam="2">  1       -2 0.17236151E-02 0.17692169E+03</pdfrwt>
<totfact> 0.38852682E+04</totfact>
</mgrwt>
</event>
<event>
 4    1  0.6086918E-004  0.3444391E+03  0.7818608E-02  0.1064921E+00
          2   -1    0    0  501    0  0.00000000000E+00  0.00000000000E+00  0.28379862201E+03  0.28379862202E+03  0.25500000000E-02 0.  1.
         -2   -1    0    0    0  501 -0.00000000000E+00 -0.00000000000E+00 -0.10450923605E+03  0.10450923608E+03  0.25500000000E-02 0. -1.
    5000001    1    1    2    0    0 -0.15376211288E+03  0.91948622354E+01  0.91675304064E+02  0.19509150218E+03  0.77000000000E+02 0.  0.
   -5000001    1    1    2    0    0  0.15376211288E+03 -0.91948622354E+01  0.87614081891E+02  0.19321635592E+03  0.77000000000E+02 0.  0.
<mgrwt>
<rscale>  0 0.34443912E+03</rscale>
<asrwt>0</asrwt>
<pdfrwt beam="1">  1        2 0.43661326E-01 0.34443912E+03</pdfrwt>
<pdfrwt beam="2">  1       -2 0.16078344E-01 0.34443912E+03</pdfrwt>
<totfact> 0.35508078E+03</totfact>
</mgrwt>
</event>
<event>
 4    1  0.6086918E-004  0.1762531E+03  0.7818608E-02  0.1171479E+00
         -2   -1    0    0    0  501 -0.00000000000E+00  0.00000000000E+00  0.11630137987E+02  0.11630138266E+02  0.25500000000E-02 0. -1.
          2   -1    0    0  501    0  0.00000000000E+00 -0.00000000000E+00 -0.66777250712E+03  0.66777250713E+03  0.25500000000E-02 0.  1.
    5000001    1    1    2    0    0 -0.19901371517E+02 -0.35122516645E+02 -0.38361508250E+03  0.39334359952E+03  0.77000000000E+02 0.  0.
   -5000001    1    1    2    0    0  0.19901371517E+02  0.35122516645E+02 -0.27252728664E+03  0.28605904587E+03  0.77000000000E+02 0.  0.
<mgrwt>
<rscale>  0 0.17625307E+03</rscale>
<asrwt>0</asrwt>
<pdfrwt beam="1">  1        2 0.10273420E+00 0.17625307E+03</pdfrwt>
<pdfrwt beam="2">  1       -2 0.17892525E-02 0.17625307E+03</pdfrwt>
<totfact> 0.38804116E+04</totfact>
</mgrwt>
</event>
<event>
 4    1  0.6086918E-004  0.2473135E+03  0.7818608E-02  0.1115014E+00
         -2   -1    0    0    0  501 -0.00000000000E+00  0.00000000000E+00  0.24202216781E+02  0.24202216915E+02  0.25500000000E-02 0. -1.
          2   -1    0    0  501    0  0.00000000000E+00 -0.00000000000E+00 -0.63180124335E+03  0.63180124335E+03  0.25500000000E-02 0.  1.
    5000001    1    1    2    0    0  0.64977823305E+02 -0.67695781372E+02 -0.24118916926E+03  0.27001120663E+03  0.77000000000E+02 0.  0.
   -5000001    1    1    2    0    0 -0.64977823305E+02  0.67695781372E+02 -0.36640985731E+03  0.38599225364E+03  0.77000000000E+02 0.  0.
<mgrwt>
<rscale>  0 0.24731349E+03</rscale>
<asrwt>0</asrwt>
<pdfrwt beam="1">  1        2 0.97200179E-01 0.24731349E+03</pdfrwt>
<pdfrwt beam="2">  1       -2 0.37234185E-02 0.24731349E+03</pdfrwt>
<totfact> 0.14378283E+04</totfact>
</mgrwt>
</event>
<event>
 4    1  0.6086918E-004  0.3023255E+03  0.7818608E-02  0.1084084E+00
          2   -1    0    0  501    0  0.00000000000E+00  0.00000000000E+00  0.46212075417E+04  0.46212075417E+04  0.25500000000E-02 0.  1.
         -2   -1    0    0    0  501 -0.00000000000E+00 -0.00000000000E+00 -0.49446325030E+01  0.49446331606E+01  0.25500000000E-02 0. -1.
    5000001    1    1    2    0    0 -0.79777283509E+02 -0.82102229508E+02  0.13628777217E+04  0.13698430112E+04  0.77000000000E+02 0.  0.
   -5000001    1    1    2    0    0  0.79777283509E+02  0.82102229508E+02  0.32533851875E+04  0.32563091637E+04  0.77000000000E+02 0.  0.
<mgrwt>
<rscale>  0 0.30232548E+03</rscale>
<asrwt>0</asrwt>
<pdfrwt beam="1">  1        2 0.71095954E+00 0.30232548E+03</pdfrwt>
<pdfrwt beam="2">  1       -2 0.76070790E-03 0.30232548E+03</pdfrwt>
<totfact> 0.40889074E+02</totfact>
</mgrwt>
</event>
<event>
 4    1  0.6086918E-004  0.2358645E+03  0.7818608E-02  0.1122579E+00
         -2   -1    0    0    0  501 -0.00000000000E+00  0.00000000000E+00  0.12253774092E+03  0.12253774094E+03  0.25500000000E-02 0. -1.
          2   -1    0    0  501    0  0.00000000000E+00 -0.00000000000E+00 -0.11349981468E+03  0.11349981471E+03  0.25500000000E-02 0.  1.
    5000001    1    1    2    0    0  0.68344196654E+02  0.54424665309E+02 -0.14096771228E+02  0.11730597755E+03  0.77000000000E+02 0.  0.
   -5000001    1    1    2    0    0 -0.68344196654E+02 -0.54424665309E+02  0.23134697467E+02  0.11873157810E+03  0.77000000000E+02 0.  0.
<mgrwt>
<rscale>  0 0.23586446E+03</rscale>
<asrwt>0</asrwt>
<pdfrwt beam="1">  1        2 0.17461510E-01 0.23586446E+03</pdfrwt>
<pdfrwt beam="2">  1       -2 0.18851960E-01 0.23586446E+03</pdfrwt>
<totfact> 0.74365168E+03</totfact>
</mgrwt>
</event>
<event>
 4    1  0.6086918E-004  0.3858223E+03  0.7818608E-02  0.1048803E+00
         -2   -1    0    0    0  501 -0.00000000000E+00  0.00000000000E+00  0.20757439221E+02  0.20757439378E+02  0.25500000000E-02 0. -1.
          2   -1    0    0  501    0  0.00000000000E+00 -0.00000000000E+00 -0.17928374134E+04  0.17928374134E+04  0.25500000000E-02 0.  1.
    5000001    1    1    2    0    0  0.86388128568E+02  0.15333167925E+03 -0.80298414275E+03  0.82564280784E+03  0.77000000000E+02 0.  0.
   -5000001    1    1    2    0    0 -0.86388128568E+02 -0.15333167925E+03 -0.96909583140E+03  0.98795204492E+03  0.77000000000E+02 0.  0.
<mgrwt>
<rscale>  0 0.38582231E+03</rscale>
<asrwt>0</asrwt>
<pdfrwt beam="1">  1        2 0.27582102E+00 0.38582231E+03</pdfrwt>
<pdfrwt beam="2">  1       -2 0.31934536E-02 0.38582231E+03</pdfrwt>
<totfact> 0.36772271E+03</totfact>
</mgrwt>
</event>
<event>
 4    1  0.6086918E-004  0.5880228E+03  0.7818608E-02  0.9930571E-01
          2   -1    0    0  501    0  0.00000000000E+00  0.00000000000E+00  0.59065375272E+03  0.59065375273E+03  0.25500000000E-02 0.  1.
         -2   -1    0    0    0  501 -0.00000000000E+00 -0.00000000000E+00 -0.14635088842E+03  0.14635088844E+03  0.25500000000E-02 0. -1.
    5000001    1    1    2    0    0 -0.19248466734E+03 -0.20841819012E+03  0.21585807184E+03  0.36470837160E+03  0.77000000000E+02 0.  0.
   -5000001    1    1    2    0    0  0.19248466734E+03  0.20841819012E+03  0.22844479246E+03  0.37229626957E+03  0.77000000000E+02 0.  0.
<mgrwt>
<rscale>  0 0.58802279E+03</rscale>
<asrwt>0</asrwt>
<pdfrwt beam="1">  1        2 0.90869807E-01 0.58802279E+03</pdfrwt>
<pdfrwt beam="2">  1       -2 0.22515521E-01 0.58802279E+03</pdfrwt>
<totfact> 0.87834481E+02</totfact>
</mgrwt>
</event>
<event>
 4    1  0.6086918E-004  0.2194510E+03  0.7818608E-02  0.1134293E+00
         -2   -1    0    0    0  501 -0.00000000000E+00  0.00000000000E+00  0.29162689632E+02  0.29162689743E+02  0.25500000000E-02 0. -1.
          2   -1    0    0  501    0  0.00000000000E+00 -0.00000000000E+00 -0.41284543834E+03  0.41284543835E+03  0.25500000000E-02 0.  1.
    5000001    1    1    2    0    0  0.28571561860E+02 -0.72553945417E+02 -0.18075908335E+03  0.21138414169E+03  0.77000000000E+02 0.  0.
   -5000001    1    1    2    0    0 -0.28571561860E+02  0.72553945417E+02 -0.20292366536E+03  0.23062398640E+03  0.77000000000E+02 0.  0.
<mgrwt>
<rscale>  0 0.21945098E+03</rscale>
<asrwt>0</asrwt>
<pdfrwt beam="1">  1        2 0.63514679E-01 0.21945098E+03</pdfrwt>
<pdfrwt beam="2">  1       -2 0.44865679E-02 0.21945098E+03</pdfrwt>
<totfact> 0.17399760E+04</totfact>
</mgrwt>
</event>
<event>
 4    1  0.6086918E-004  0.3809993E+03  0.7818608E-02  0.1050565E+00
         -2   -1    0    0    0  501 -0.00000000000E+00  0.00000000000E+00  0.51509145350E+03  0.51509145351E+03  0.25500000000E-02 0. -1.
          2   -1    0    0  501    0  0.00000000000E+00 -0.00000000000E+00 -0.70453752942E+02  0.70453752988E+02  0.25500000000E-02 0.  1.
    5000001    1    1    2    0    0  0.15153290427E+03 -0.35697702061E+02  0.10204414063E+03  0.20144119153E+03  0.77000000000E+02 0.  0.
   -5000001    1    1    2    0    0 -0.15153290427E+03  0.35697702061E+02  0.34259355992E+03  0.38410401496E+03  0.77000000000E+02 0.  0.
<mgrwt>
<rscale>  0 0.38099935E+03</rscale>
<asrwt>0</asrwt>
<pdfrwt beam="1">  1        2 0.10839039E-01 0.38099935E+03</pdfrwt>
<pdfrwt beam="2">  1       -2 0.79244839E-01 0.38099935E+03</pdfrwt>
<totfact> 0.84826909E+02</totfact>
</mgrwt>
</event>
<event>
 4    1  0.6086918E-004  0.2486948E+03  0.7818608E-02  0.1114132E+00
          2   -1    0    0  501    0  0.00000000000E+00  0.00000000000E+00  0.86544352154E+03  0.86544352155E+03  0.25500000000E-02 0.  1.
         -2   -1    0    0    0  501 -0.00000000000E+00 -0.00000000000E+00 -0.17866309037E+02  0.17866309219E+02  0.25500000000E-02 0. -1.
    5000001    1    1    2    0    0 -0.14752492399E+02  0.96409022275E+02  0.40753328226E+03  0.42605716959E+03  0.77000000000E+02 0.  0.
   -5000001    1    1    2    0    0  0.14752492399E+02 -0.96409022275E+02  0.44004393025E+03  0.45725266118E+03  0.77000000000E+02 0.  0.
<mgrwt>
<rscale>  0 0.24869485E+03</rscale>
<asrwt>0</asrwt>
<pdfrwt beam="1">  1        2 0.13314517E+00 0.24869485E+03</pdfrwt>
<pdfrwt beam="2">  1       -2 0.27486627E-02 0.24869485E+03</pdfrwt>
<totfact> 0.15318640E+04</totfact>
</mgrwt>
</event>
<event>
 4    1  0.6086918E-004  0.2014519E+03  0.7818608E-02  0.1148520E+00
         -2   -1    0    0    0  501 -0.00000000000E+00  0.00000000000E+00  0.12652204967E+02  0.12652205224E+02  0.25500000000E-02 0. -1.
          2   -1    0    0  501    0  0.00000000000E+00 -0.00000000000E+00 -0.80189332265E+03  0.80189332265E+03  0.25500000000E-02 0.  1.
    5000001    1    1    2    0    0 -0.24901052970E+02 -0.50545490749E+02 -0.52512886661E+03  0.53372674246E+03  0.77000000000E+02 0.  0.
   -5000001    1    1    2    0    0  0.24901052970E+02  0.50545490749E+02 -0.26411225107E+03  0.28081878541E+03  0.77000000000E+02 0.  0.
<mgrwt>
<rscale>  0 0.20145192E+03</rscale>
<asrwt>0</asrwt>
<pdfrwt beam="1">  1        2 0.12336816E+00 0.20145192E+03</pdfrwt>
<pdfrwt beam="2">  1       -2 0.19464937E-02 0.20145192E+03</pdfrwt>
<totfact> 0.27742814E+04</totfact>
</mgrwt>
</event>
<event>
 4    1  0.6086918E-004  0.2605234E+03  0.7818608E-02  0.1106829E+00
          2   -1    0    0  501    0  0.00000000000E+00  0.00000000000E+00  0.46686319850E+02  0.46686319920E+02  0.25500000000E-02 0.  1.
         -2   -1    0    0    0  501 -0.00000000000E+00 -0.00000000000E+00 -0.36344926532E+03  0.36344926533E+03  0.25500000000E-02 0. -1.
    5000001    1    1    2    0    0  0.67792581483E+02 -0.75461258668E+02 -0.20146237846E+03  0.23834077620E+03  0.77000000000E+02 0.  0.
   -5000001    1    1    2    0    0 -0.67792581483E+02  0.75461258668E+02 -0.11530056701E+03  0.17179480905E+03  0.77000000000E+02 0.  0.
<mgrwt>
<rscale>  0 0.26052339E+03</rscale>
<asrwt>0</asrwt>
<pdfrwt beam="1">  1        2 0.71825110E-02 0.26052339E+03</pdfrwt>
<pdfrwt beam="2">  1       -2 0.55915270E-01 0.26052339E+03</pdfrwt>
<totfact> 0.29718209E+03</totfact>
</mgrwt>
</event>
<event>
 4    1  0.6086918E-004  0.4151774E+03  0.7818608E-02  0.1038647E+00
          2   -1    0    0  501    0  0.00000000000E+00  0.00000000000E+00  0.34694730457E+03  0.34694730458E+03  0.25500000000E-02 0.  1.
         -2   -1    0    0    0  501 -0.00000000000E+00 -0.00000000000E+00 -0.12420639868E+03  0.12420639871E+03  0.25500000000E-02 0. -1.
    5000001    1    1    2    0    0 -0.13579397783E+03 -0.66426536999E+02  0.24713074138E+03  0.29975839032E+03  0.77000000000E+02 0.  0.
   -5000001    1    1    2    0    0  0.13579397783E+03  0.66426536999E+02 -0.24389835492E+02  0.17139531297E+03  0.77000000000E+02 0.  0.
<mgrwt>
<rscale>  0 0.41517743E+03</rscale>
<asrwt>0</asrwt>
<pdfrwt beam="1">  1        2 0.53376508E-01 0.41517743E+03</pdfrwt>
<pdfrwt beam="2">  1       -2 0.19108677E-01 0.41517743E+03</pdfrwt>
<totfact> 0.21355254E+03</totfact>
</mgrwt>
</event>
<event>
 4    1  0.6086918E-004  0.2316079E+03  0.7818608E-02  0.1125513E+00
         -2   -1    0    0    0  501 -0.00000000000E+00  0.00000000000E+00  0.68082611893E+02  0.68082611941E+02  0.25500000000E-02 0. -1.
          2   -1    0    0  501    0  0.00000000000E+00 -0.00000000000E+00 -0.19697472303E+03  0.19697472304E+03  0.25500000000E-02 0.  1.
    5000001    1    1    2    0    0 -0.89817026014E+01  0.84137840001E+02 -0.84972626971E+02  0.14251033098E+03  0.77000000000E+02 0.  0.
   -5000001    1    1    2    0    0  0.89817026014E+01 -0.84137840001E+02 -0.43919484163E+02  0.12254700401E+03  0.77000000000E+02 0.  0.
<mgrwt>
<rscale>  0 0.23160789E+03</rscale>
<asrwt>0</asrwt>
<pdfrwt beam="1">  1        2 0.30303803E-01 0.23160789E+03</pdfrwt>
<pdfrwt beam="2">  1       -2 0.10474248E-01 0.23160789E+03</pdfrwt>
<totfact> 0.10465821E+04</totfact>
</mgrwt>
</event>
<event>
 4    1  0.6086918E-004  0.3644323E+03  0.7818608E-02  0.1056843E+00
         -2   -1    0    0    0  501 -0.00000000000E+00  0.00000000000E+00  0.12891125569E+03  0.12891125572E+03  0.25500000000E-02 0. -1.
          2   -1    0    0  501    0  0.00000000000E+00 -0.00000000000E+00 -0.25756259527E+03  0.25756259528E+03  0.25500000000E-02 0.  1.
    5000001    1    1    2    0    0  0.16219751759E+03  0.14231670368E+02 -0.35029819751E+02  0.18348477709E+03  0.77000000000E+02 0.  0.
   -5000001    1    1    2    0    0 -0.16219751759E+03 -0.14231670368E+02 -0.93621519823E+02  0.20298907391E+03  0.77000000000E+02 0.  0.
<mgrwt>
<rscale>  0 0.36443226E+03</rscale>
<asrwt>0</asrwt>
<pdfrwt beam="1">  1        2 0.39625015E-01 0.36443226E+03</pdfrwt>
<pdfrwt beam="2">  1       -2 0.19832501E-01 0.36443226E+03</pdfrwt>
<totfact> 0.27665080E+03</totfact>
</mgrwt>
</event>
<event>
 4    1  0.6086918E-004  0.2474193E+03  0.7818608E-02  0.1114947E+00
         -2   -1    0    0    0  501 -0.00000000000E+00  0.00000000000E+00  0.48357354210E+02  0.48357354277E+02  0.25500000000E-02 0. -1.
          2   -1    0    0  501    0  0.00000000000E+00 -0.00000000000E+00 -0.31647885493E+03  0.31647885494E+03  0.25500000000E-02 0.  1.
    5000001    1    1    2    0    0 -0.61328555319E+01  0.41133061769E+02 -0.51264732587E+01  0.87663113198E+02  0.77000000000E+02 0.  0.
   -5000001    1    1    2    0    0  0.61328555319E+01 -0.41133061769E+02 -0.26299502746E+03  0.27717309602E+03  0.77000000000E+02 0.  0.
<mgrwt>
<rscale>  0 0.24741932E+03</rscale>
<asrwt>0</asrwt>
<pdfrwt beam="1">  1        2 0.48689053E-01 0.24741932E+03</pdfrwt>
<pdfrwt beam="2">  1       -2 0.74395931E-02 0.24741932E+03</pdfrwt>
<totfact> 0.10772237E+04</totfact>
</mgrwt>
</event>
<event>
 4    1  0.6086918E-004  0.2958842E+03  0.7818608E-02  0.1087316E+00
          2   -1    0    0  501    0  0.00000000000E+00  0.00000000000E+00  0.69061537736E+03  0.69061537737E+03  0.25500000000E-02 0.  1.
         -2   -1    0    0    0  501 -0.00000000000E+00 -0.00000000000E+00 -0.31691834070E+02  0.31691834173E+02  0.25500000000E-02 0. -1.
    5000001    1    1    2    0    0  0.10812686452E+03  0.64629714823E+02  0.30637367299E+03  0.34009152646E+03  0.77000000000E+02 0.  0.
   -5000001    1    1    2    0    0 -0.10812686452E+03 -0.64629714823E+02  0.35254987030E+03  0.38221568508E+03  0.77000000000E+02 0.  0.
<mgrwt>
<rscale>  0 0.29588422E+03</rscale>
<asrwt>0</asrwt>
<pdfrwt beam="1">  1        2 0.10624852E+00 0.29588422E+03</pdfrwt>
<pdfrwt beam="2">  1       -2 0.48756666E-02 0.29588422E+03</pdfrwt>
<totfact> 0.86697974E+03</totfact>
</mgrwt>
</event>
<event>
 4    1  0.6086918E-004  0.1894218E+03  0.7818608E-02  0.1158984E+00
          2   -1    0    0  501    0  0.00000000000E+00  0.00000000000E+00  0.15338477184E+03  0.15338477186E+03  0.25500000000E-02 0.  1.
         -2   -1    0    0    0  501 -0.00000000000E+00 -0.00000000000E+00 -0.58481375096E+02  0.58481375151E+02  0.25500000000E-02 0. -1.
    5000001    1    1    2    0    0 -0.21037352838E+02 -0.49604782095E+02  0.60588480401E+02  0.11181756829E+03  0.77000000000E+02 0.  0.
   -5000001    1    1    2    0    0  0.21037352838E+02  0.49604782095E+02  0.34314916347E+02  0.10004857873E+03  0.77000000000E+02 0.  0.
<mgrwt>
<rscale>  0 0.18942178E+03</rscale>
<asrwt>0</asrwt>
<pdfrwt beam="1">  1        2 0.23597657E-01 0.18942178E+03</pdfrwt>
<pdfrwt beam="2">  1       -2 0.89971348E-02 0.18942178E+03</pdfrwt>
<totfact> 0.17310430E+04</totfact>
</mgrwt>
</event>
<event>
 4    1  0.6086918E-004  0.2321076E+03  0.7818608E-02  0.1125165E+00
         -2   -1    0    0    0  501 -0.00000000000E+00  0.00000000000E+00  0.32068350013E+03  0.32068350014E+03  0.25500000000E-02 0. -1.
          2   -1    0    0  501    0  0.00000000000E+00 -0.00000000000E+00 -0.41999314220E+02  0.41999314297E+02  0.25500000000E-02 0.  1.
    5000001    1    1    2    0    0  0.34376123796E+02 -0.56798013021E+02  0.51897802277E+02  0.11414952497E+03  0.77000000000E+02 0.  0.
   -5000001    1    1    2    0    0 -0.34376123796E+02  0.56798013021E+02  0.22678638363E+03  0.24853328946E+03  0.77000000000E+02 0.  0.
<mgrwt>
<rscale>  0 0.23210762E+03</rscale>
<asrwt>0</asrwt>
<pdfrwt beam="1">  1        2 0.64614331E-02 0.23210762E+03</pdfrwt>
<pdfrwt beam="2">  1       -2 0.49335922E-01 0.23210762E+03</pdfrwt>
<totfact> 0.43614109E+03</totfact>
</mgrwt>
</event>
<event>
 4    1  0.6086918E-004  0.2502644E+03  0.7818608E-02  0.1113138E+00
          2   -1    0    0  501    0  0.00000000000E+00  0.00000000000E+00  0.11891120662E+04  0.11891120662E+04  0.25500000000E-02 0.  1.
         -2   -1    0    0    0  501 -0.00000000000E+00 -0.00000000000E+00 -0.13167867247E+02  0.13167867494E+02  0.25500000000E-02 0. -1.
    5000001    1    1    2    0    0 -0.57891672037E+02  0.58771268524E+02  0.32821784861E+03  0.34707558808E+03  0.77000000000E+02 0.  0.
   -5000001    1    1    2    0    0  0.57891672037E+02 -0.58771268524E+02  0.84772635030E+03  0.85520434558E+03  0.77000000000E+02 0.  0.
<mgrwt>
<rscale>  0 0.25026442E+03</rscale>
<asrwt>0</asrwt>
<pdfrwt beam="1">  1        2 0.18294041E+00 0.25026442E+03</pdfrwt>
<pdfrwt beam="2">  1       -2 0.20258248E-02 0.25026442E+03</pdfrwt>
<totfact> 0.15294065E+04</totfact>
</mgrwt>
</event>
<event>
 4    1  0.6086918E-004  0.2497718E+03  0.7818608E-02  0.1113449E+00
          2   -1    0    0  501    0  0.00000000000E+00  0.00000000000E+00  0.16745432113E+04  0.16745432113E+04  0.25500000000E-02 0.  1.
         -2   -1    0    0    0  501 -0.00000000000E+00 -0.00000000000E+00 -0.93138786650E+01  0.93138790140E+01  0.25500000000E-02 0. -1.
    5000001    1    1    2    0    0 -0.60726378800E+02  0.65332616412E+02  0.11115115811E+04  0.11177401482E+04  0.77000000000E+02 0.  0.
   -5000001    1    1    2    0    0  0.60726378800E+02 -0.65332616412E+02  0.55371775146E+03  0.56611694209E+03  0.77000000000E+02 0.  0.
<mgrwt>
<rscale>  0 0.24977184E+03</rscale>
<asrwt>0</asrwt>
<pdfrwt beam="1">  1        2 0.25762230E+00 0.24977184E+03</pdfrwt>
<pdfrwt beam="2">  1       -2 0.14329029E-02 0.24977184E+03</pdfrwt>
<totfact> 0.13861246E+04</totfact>
</mgrwt>
</event>
<event>
 4    1  0.6086918E-004  0.1950486E+03  0.7818608E-02  0.1153985E+00
          2   -1    0    0  501    0  0.00000000000E+00  0.00000000000E+00  0.15728377822E+04  0.15728377822E+04  0.25500000000E-02 0.  1.
         -2   -1    0    0    0  501 -0.00000000000E+00 -0.00000000000E+00 -0.60470223919E+01  0.60470229295E+01  0.25500000000E-02 0. -1.
    5000001    1    1    2    0    0 -0.54438969372E+02 -0.19330837445E+02  0.91002268877E+03  0.91509976327E+03  0.77000000000E+02 0.  0.
   -5000001    1    1    2    0    0  0.54438969372E+02  0.19330837445E+02  0.65676807103E+03  0.66378504186E+03  0.77000000000E+02 0.  0.
<mgrwt>
<rscale>  0 0.19504857E+03</rscale>
<asrwt>0</asrwt>
<pdfrwt beam="1">  1        2 0.24197480E+00 0.19504857E+03</pdfrwt>
<pdfrwt beam="2">  1       -2 0.93031212E-03 0.19504857E+03</pdfrwt>
<totfact> 0.29011275E+04</totfact>
</mgrwt>
</event>
<event>
 4    1  0.6086918E-004  0.2825191E+03  0.7818608E-02  0.1094321E+00
          2   -1    0    0  501    0  0.00000000000E+00  0.00000000000E+00  0.53840334743E+03  0.53840334744E+03  0.25500000000E-02 0.  1.
         -2   -1    0    0    0  501 -0.00000000000E+00 -0.00000000000E+00 -0.37061915640E+02  0.37061915728E+02  0.25500000000E-02 0. -1.
    5000001    1    1    2    0    0 -0.61181030019E+02 -0.78682200766E+02  0.38095722339E+03  0.40123735270E+03  0.77000000000E+02 0.  0.
   -5000001    1    1    2    0    0  0.61181030019E+02  0.78682200766E+02  0.12038420840E+03  0.17422791046E+03  0.77000000000E+02 0.  0.
<mgrwt>
<rscale>  0 0.28251909E+03</rscale>
<asrwt>0</asrwt>
<pdfrwt beam="1">  1        2 0.82831280E-01 0.28251909E+03</pdfrwt>
<pdfrwt beam="2">  1       -2 0.57018334E-02 0.28251909E+03</pdfrwt>
<totfact> 0.91238160E+03</totfact>
</mgrwt>
</event>
<event>
 4    1  0.6086918E-004  0.3091569E+03  0.7818608E-02  0.1080751E+00
         -2   -1    0    0    0  501 -0.00000000000E+00  0.00000000000E+00  0.14473808342E+02  0.14473808566E+02  0.25500000000E-02 0. -1.
          2   -1    0    0  501    0  0.00000000000E+00 -0.00000000000E+00 -0.16508786048E+04  0.16508786048E+04  0.25500000000E-02 0.  1.
    5000001    1    1    2    0    0 -0.75464731460E+02 -0.81182292964E+02 -0.12241796858E+04  0.12315966846E+04  0.77000000000E+02 0.  0.
   -5000001    1    1    2    0    0  0.75464731460E+02  0.81182292964E+02 -0.41222511067E+03  0.43375572878E+03  0.77000000000E+02 0.  0.
<mgrwt>
<rscale>  0 0.30915692E+03</rscale>
<asrwt>0</asrwt>
<pdfrwt beam="1">  1        2 0.25398118E+00 0.30915692E+03</pdfrwt>
<pdfrwt beam="2">  1       -2 0.22267411E-02 0.30915692E+03</pdfrwt>
<totfact> 0.74941070E+03</totfact>
</mgrwt>
</event>
<event>
 4    1  0.6086918E-004  0.2079656E+03  0.7818608E-02  0.1143187E+00
          2   -1    0    0  501    0  0.00000000000E+00  0.00000000000E+00  0.82554815267E+03  0.82554815268E+03  0.25500000000E-02 0.  1.
         -2   -1    0    0    0  501 -0.00000000000E+00 -0.00000000000E+00 -0.13097270455E+02  0.13097270703E+02  0.25500000000E-02 0. -1.
    5000001    1    1    2    0    0  0.66509372402E+02  0.12566043289E+02  0.33614310536E+03  0.35142935185E+03  0.77000000000E+02 0.  0.
   -5000001    1    1    2    0    0 -0.66509372402E+02 -0.12566043289E+02  0.47630777686E+03  0.48721607153E+03  0.77000000000E+02 0.  0.
<mgrwt>
<rscale>  0 0.20796565E+03</rscale>
<asrwt>0</asrwt>
<pdfrwt beam="1">  1        2 0.12700742E+00 0.20796565E+03</pdfrwt>
<pdfrwt beam="2">  1       -2 0.20149646E-02 0.20796565E+03</pdfrwt>
<totfact> 0.25472635E+04</totfact>
</mgrwt>
</event>
<event>
 4    1  0.6086918E-004  0.3098052E+03  0.7818608E-02  0.1080439E+00
         -2   -1    0    0    0  501 -0.00000000000E+00  0.00000000000E+00  0.85718469200E+01  0.85718472993E+01  0.25500000000E-02 0. -1.
          2   -1    0    0  501    0  0.00000000000E+00 -0.00000000000E+00 -0.27992580327E+04  0.27992580327E+04  0.25500000000E-02 0.  1.
    5000001    1    1    2    0    0 -0.12021401096E+03 -0.57550514425E+02 -0.12377521793E+04  0.12472862252E+04  0.77000000000E+02 0.  0.
   -5000001    1    1    2    0    0  0.12021401096E+03  0.57550514425E+02 -0.15529340065E+04  0.15605436548E+04  0.77000000000E+02 0.  0.
<mgrwt>
<rscale>  0 0.30980518E+03</rscale>
<asrwt>0</asrwt>
<pdfrwt beam="1">  1        2 0.43065435E+00 0.30980518E+03</pdfrwt>
<pdfrwt beam="2">  1       -2 0.13187479E-02 0.30980518E+03</pdfrwt>
<totfact> 0.38762980E+03</totfact>
</mgrwt>
</event>
<event>
 4    1  0.6086918E-004  0.2649304E+03  0.7818608E-02  0.1104217E+00
          2   -1    0    0  501    0  0.00000000000E+00  0.00000000000E+00  0.14773998863E+03  0.14773998865E+03  0.25500000000E-02 0.  1.
         -2   -1    0    0    0  501 -0.00000000000E+00 -0.00000000000E+00 -0.11876964558E+03  0.11876964561E+03  0.25500000000E-02 0. -1.
    5000001    1    1    2    0    0  0.88404888029E+02 -0.20462714009E+02 -0.44032708236E+02  0.12689375984E+03  0.77000000000E+02 0.  0.
   -5000001    1    1    2    0    0 -0.88404888029E+02  0.20462714009E+02  0.73003051284E+02  0.13961587442E+03  0.77000000000E+02 0.  0.
<mgrwt>
<rscale>  0 0.26493038E+03</rscale>
<asrwt>0</asrwt>
<pdfrwt beam="1">  1        2 0.22729229E-01 0.26493038E+03</pdfrwt>
<pdfrwt beam="2">  1       -2 0.18272253E-01 0.26493038E+03</pdfrwt>
<totfact> 0.58274873E+03</totfact>
</mgrwt>
</event>
<event>
 4    1  0.6086918E-004  0.6093107E+03  0.7818608E-02  0.9886275E-01
         -2   -1    0    0    0  501 -0.00000000000E+00  0.00000000000E+00  0.87620032488E+02  0.87620032525E+02  0.25500000000E-02 0.  1.
          2   -1    0    0  501    0  0.00000000000E+00 -0.00000000000E+00 -0.10592882321E+04  0.10592882321E+04  0.25500000000E-02 0. -1.
    5000001    1    1    2    0    0 -0.17114974790E+03 -0.17675287264E+03 -0.79139455834E+03  0.83232695569E+03  0.77000000000E+02 0.  0.
   -5000001    1    1    2    0    0  0.17114974790E+03  0.17675287264E+03 -0.18027364125E+03  0.31458130892E+03  0.77000000000E+02 0.  0.
<mgrwt>
<rscale>  0 0.60931066E+03</rscale>
<asrwt>0</asrwt>
<pdfrwt beam="1">  1        2 0.16296741E+00 0.60931066E+03</pdfrwt>
<pdfrwt beam="2">  1       -2 0.13480006E-01 0.60931066E+03</pdfrwt>
<totfact> 0.97731657E+02</totfact>
</mgrwt>
</event>
<event>
 4    1  0.6086918E-004  0.2093817E+03  0.7818608E-02  0.1142057E+00
         -2   -1    0    0    0  501 -0.00000000000E+00  0.00000000000E+00  0.64892215834E+03  0.64892215835E+03  0.25500000000E-02 0. -1.
          2   -1    0    0  501    0  0.00000000000E+00 -0.00000000000E+00 -0.16889805143E+02  0.16889805335E+02  0.25500000000E-02 0.  1.
    5000001    1    1    2    0    0  0.45099327857E+02  0.54676946552E+02  0.30722043391E+03  0.32455648641E+03  0.77000000000E+02 0.  0.
   -5000001    1    1    2    0    0 -0.45099327857E+02 -0.54676946552E+02  0.32481191929E+03  0.34125547727E+03  0.77000000000E+02 0.  0.
<mgrwt>
<rscale>  0 0.20938165E+03</rscale>
<asrwt>0</asrwt>
<pdfrwt beam="1">  1        2 0.25984313E-02 0.20938165E+03</pdfrwt>
<pdfrwt beam="2">  1       -2 0.99834191E-01 0.20938165E+03</pdfrwt>
<totfact> 0.32283227E+03</totfact>
</mgrwt>
</event>
<event>
 4    1  0.6086918E-004  0.2881621E+03  0.7818608E-02  0.1091313E+00
          2   -1    0    0  501    0  0.00000000000E+00  0.00000000000E+00  0.79406574258E+03  0.79406574258E+03  0.25500000000E-02 0.  1.
         -2   -1    0    0    0  501 -0.00000000000E+00 -0.00000000000E+00 -0.26143108619E+02  0.26143108744E+02  0.25500000000E-02 0. -1.
    5000001    1    1    2    0    0  0.11261529905E+03 -0.36637788357E+02  0.30316250269E+03  0.33445632922E+03  0.77000000000E+02 0.  0.
   -5000001    1    1    2    0    0 -0.11261529905E+03  0.36637788357E+02  0.46476013127E+03  0.48575252211E+03  0.77000000000E+02 0.  0.
<mgrwt>
<rscale>  0 0.28816209E+03</rscale>
<asrwt>0</asrwt>
<pdfrwt beam="1">  1        2 0.12216397E+00 0.28816209E+03</pdfrwt>
<pdfrwt beam="2">  1       -2 0.40220163E-02 0.28816209E+03</pdfrwt>
<totfact> 0.97495320E+03</totfact>
</mgrwt>
</event>
<event>
 4    1  0.6086918E-004  0.4470251E+03  0.7818608E-02  0.1028613E+00
          2   -1    0    0  501    0  0.00000000000E+00  0.00000000000E+00  0.26579052726E+03  0.26579052728E+03  0.25500000000E-02 0.  1.
         -2   -1    0    0    0  501 -0.00000000000E+00 -0.00000000000E+00 -0.18795950623E+03  0.18795950624E+03  0.25500000000E-02 0. -1.
    5000001    1    1    2    0    0 -0.10226033040E+03  0.17840591356E+03  0.81292963825E+02  0.23414395387E+03  0.77000000000E+02 0.  0.
   -5000001    1    1    2    0    0  0.10226033040E+03 -0.17840591356E+03 -0.34619427878E+01  0.21960607964E+03  0.77000000000E+02 0.  0.
<mgrwt>
<rscale>  0 0.44702508E+03</rscale>
<asrwt>0</asrwt>
<pdfrwt beam="1">  1        2 0.40890850E-01 0.44702508E+03</pdfrwt>
<pdfrwt beam="2">  1       -2 0.28916847E-01 0.44702508E+03</pdfrwt>
<totfact> 0.13742000E+03</totfact>
</mgrwt>
</event>
<event>
 4    1  0.6086918E-004  0.5882281E+03  0.7818608E-02  0.9930135E-01
          2   -1    0    0  501    0  0.00000000000E+00  0.00000000000E+00  0.10673166458E+04  0.10673166458E+04  0.25500000000E-02 0.  1.
         -2   -1    0    0    0  501 -0.00000000000E+00 -0.00000000000E+00 -0.81047237114E+02  0.81047237155E+02  0.25500000000E-02 0. -1.
    5000001    1    1    2    0    0  0.10781852622E+03 -0.23157770752E+03  0.25149000029E+03  0.36664600020E+03  0.77000000000E+02 0.  0.
   -5000001    1    1    2    0    0 -0.10781852622E+03  0.23157770752E+03  0.73477940835E+03  0.78171788271E+03  0.77000000000E+02 0.  0.
<mgrwt>
<rscale>  0 0.58822807E+03</rscale>
<asrwt>0</asrwt>
<pdfrwt beam="1">  1        2 0.16420257E+00 0.58822807E+03</pdfrwt>
<pdfrwt beam="2">  1       -2 0.12468805E-01 0.58822807E+03</pdfrwt>
<totfact> 0.11004215E+03</totfact>
</mgrwt>
</event>
<event>
 4    1  0.6086918E-004  0.3334714E+03  0.7818608E-02  0.1069611E+00
         -2   -1    0    0    0  501 -0.00000000000E+00  0.00000000000E+00  0.14175554608E+03  0.14175554610E+03  0.25500000000E-02 0. -1.
          2   -1    0    0  501    0  0.00000000000E+00 -0.00000000000E+00 -0.19611788921E+03  0.19611788923E+03  0.25500000000E-02 0.  1.
    5000001    1    1    2    0    0 -0.10991038158E+03  0.98737548987E+02 -0.33778883444E+02  0.16999826036E+03  0.77000000000E+02 0.  0.
   -5000001    1    1    2    0    0  0.10991038158E+03 -0.98737548987E+02 -0.20583459686E+02  0.16787517497E+03  0.77000000000E+02 0.  0.
<mgrwt>
<rscale>  0 0.33347143E+03</rscale>
<asrwt>0</asrwt>
<pdfrwt beam="1">  1        2 0.30171983E-01 0.33347143E+03</pdfrwt>
<pdfrwt beam="2">  1       -2 0.21808546E-01 0.33347143E+03</pdfrwt>
<totfact> 0.31591875E+03</totfact>
</mgrwt>
</event>
<event>
 4    1  0.6086918E-004  0.5477079E+03  0.7818608E-02  0.1002026E+00
         -2   -1    0    0    0  501 -0.00000000000E+00  0.00000000000E+00  0.68928904870E+02  0.68928904917E+02  0.25500000000E-02 0. -1.
          2   -1    0    0  501    0  0.00000000000E+00 -0.00000000000E+00 -0.10880192519E+04  0.10880192519E+04  0.25500000000E-02 0.  1.
    5000001    1    1    2    0    0 -0.65820795704E+02 -0.24038209679E+03 -0.33343274627E+03  0.42334657893E+03  0.77000000000E+02 0.  0.
   -5000001    1    1    2    0    0  0.65820795704E+02  0.24038209679E+03 -0.68565760071E+03  0.73360157785E+03  0.77000000000E+02 0.  0.
<mgrwt>
<rscale>  0 0.54770786E+03</rscale>
<asrwt>0</asrwt>
<pdfrwt beam="1">  1        2 0.16738756E+00 0.54770786E+03</pdfrwt>
<pdfrwt beam="2">  1       -2 0.10604448E-01 0.54770786E+03</pdfrwt>
<totfact> 0.13952134E+03</totfact>
</mgrwt>
</event>
<event>
 4    1  0.6086918E-004  0.3409992E+03  0.7818608E-02  0.1066371E+00
         -2   -1    0    0    0  501 -0.00000000000E+00  0.00000000000E+00  0.57462091950E+02  0.57462092007E+02  0.25500000000E-02 0. -1.
          2   -1    0    0  501    0  0.00000000000E+00 -0.00000000000E+00 -0.50590075322E+03  0.50590075323E+03  0.25500000000E-02 0.  1.
    5000001    1    1    2    0    0 -0.46930905283E+02  0.14248177962E+03 -0.18250441735E+03  0.24847621566E+03  0.77000000000E+02 0.  0.
   -5000001    1    1    2    0    0  0.46930905283E+02 -0.14248177962E+03 -0.26593424392E+03  0.31488662958E+03  0.77000000000E+02 0.  0.
<mgrwt>
<rscale>  0 0.34099921E+03</rscale>
<asrwt>0</asrwt>
<pdfrwt beam="1">  1        2 0.77830882E-01 0.34099921E+03</pdfrwt>
<pdfrwt beam="2">  1       -2 0.88403222E-02 0.34099921E+03</pdfrwt>
<totfact> 0.49762116E+03</totfact>
</mgrwt>
</event>
<event>
 4    1  0.6086918E-004  0.1952951E+03  0.7818608E-02  0.1153770E+00
          2   -1    0    0  501    0  0.00000000000E+00  0.00000000000E+00  0.92628828535E+03  0.92628828536E+03  0.25500000000E-02 0.  1.
         -2   -1    0    0    0  501 -0.00000000000E+00 -0.00000000000E+00 -0.10293814764E+02  0.10293815080E+02  0.25500000000E-02 0. -1.
    5000001    1    1    2    0    0  0.59186976865E+02  0.96674319151E+01  0.44322926689E+03  0.45384770629E+03  0.77000000000E+02 0.  0.
   -5000001    1    1    2    0    0 -0.59186976865E+02 -0.96674319151E+01  0.47276520369E+03  0.48273439415E+03  0.77000000000E+02 0.  0.
<mgrwt>
<rscale>  0 0.19529506E+03</rscale>
<asrwt>0</asrwt>
<pdfrwt beam="1">  1        2 0.14250595E+00 0.19529506E+03</pdfrwt>
<pdfrwt beam="2">  1       -2 0.15836632E-02 0.19529506E+03</pdfrwt>
<totfact> 0.31000109E+04</totfact>
</mgrwt>
</event>
<event>
 4    1  0.6086918E-004  0.2049133E+03  0.7818608E-02  0.1145659E+00
          2   -1    0    0  501    0  0.00000000000E+00  0.00000000000E+00  0.76674748234E+02  0.76674748276E+02  0.25500000000E-02 0.  1.
         -2   -1    0    0    0  501 -0.00000000000E+00 -0.00000000000E+00 -0.13690773090E+03  0.13690773092E+03  0.25500000000E-02 0. -1.
    5000001    1    1    2    0    0  0.57393600336E+02 -0.34060892653E+02 -0.41254844365E+02  0.10993239719E+03  0.77000000000E+02 0.  0.
   -5000001    1    1    2    0    0 -0.57393600336E+02  0.34060892653E+02 -0.18978138302E+02  0.10365008201E+03  0.77000000000E+02 0.  0.
<mgrwt>
<rscale>  0 0.20491331E+03</rscale>
<asrwt>0</asrwt>
<pdfrwt beam="1">  1        2 0.11796115E-01 0.20491331E+03</pdfrwt>
<pdfrwt beam="2">  1       -2 0.21062728E-01 0.20491331E+03</pdfrwt>
<totfact> 0.97298725E+03</totfact>
</mgrwt>
</event>
<event>
 4    1  0.6086918E-004  0.2516209E+03  0.7818608E-02  0.1112285E+00
         -2   -1    0    0    0  501 -0.00000000000E+00  0.00000000000E+00  0.26658456335E+02  0.26658456457E+02  0.25500000000E-02 0. -1.
          2   -1    0    0  501    0  0.00000000000E+00 -0.00000000000E+00 -0.59374273457E+03  0.59374273458E+03  0.25500000000E-02 0.  1.
    5000001    1    1    2    0    0  0.57876561022E+01 -0.99020011750E+02 -0.26431582546E+03  0.29262657992E+03  0.77000000000E+02 0.  0.
   -5000001    1    1    2    0    0 -0.57876561022E+01  0.99020011750E+02 -0.30276845278E+03  0.32777461111E+03  0.77000000000E+02 0.  0.
<mgrwt>
<rscale>  0 0.25162086E+03</rscale>
<asrwt>0</asrwt>
<pdfrwt beam="1">  1        2 0.91345026E-01 0.25162086E+03</pdfrwt>
<pdfrwt beam="2">  1       -2 0.41013014E-02 0.25162086E+03</pdfrwt>
<totfact> 0.13381378E+04</totfact>
</mgrwt>
</event>
<event>
 4    1  0.6086918E-004  0.3483480E+03  0.7818608E-02  0.1063295E+00
         -2   -1    0    0    0  501 -0.00000000000E+00  0.00000000000E+00  0.99794998933E+01  0.99795002191E+01  0.25500000000E-02 0. -1.
          2   -1    0    0  501    0  0.00000000000E+00 -0.00000000000E+00 -0.30398906554E+04  0.30398906554E+04  0.25500000000E-02 0.  1.
    5000001    1    1    2    0    0 -0.15366842258E+03  0.19989531080E+02 -0.16887472865E+04  0.16975894566E+04  0.77000000000E+02 0.  0.
   -5000001    1    1    2    0    0  0.15366842258E+03 -0.19989531080E+02 -0.13411638690E+04  0.13522806990E+04  0.77000000000E+02 0.  0.
<mgrwt>
<rscale>  0 0.34834804E+03</rscale>
<asrwt>0</asrwt>
<pdfrwt beam="1">  1        2 0.46767475E+00 0.34834804E+03</pdfrwt>
<pdfrwt beam="2">  1       -2 0.15353101E-02 0.34834804E+03</pdfrwt>
<totfact> 0.22307256E+03</totfact>
</mgrwt>
</event>
<event>
 4    1  0.6086918E-004  0.2563351E+03  0.7818608E-02  0.1109365E+00
         -2   -1    0    0    0  501 -0.00000000000E+00  0.00000000000E+00  0.14517071291E+02  0.14517071514E+02  0.25500000000E-02 0. -1.
          2   -1    0    0  501    0  0.00000000000E+00 -0.00000000000E+00 -0.11315589740E+04  0.11315589740E+04  0.25500000000E-02 0.  1.
    5000001    1    1    2    0    0 -0.81990522681E+02 -0.55108879854E+02 -0.68002116768E+03  0.69146021067E+03  0.77000000000E+02 0.  0.
   -5000001    1    1    2    0    0  0.81990522681E+02  0.55108879854E+02 -0.43702073506E+03  0.45461583487E+03  0.77000000000E+02 0.  0.
<mgrwt>
<rscale>  0 0.25633511E+03</rscale>
<asrwt>0</asrwt>
<pdfrwt beam="1">  1        2 0.17408593E+00 0.25633511E+03</pdfrwt>
<pdfrwt beam="2">  1       -2 0.22333965E-02 0.25633511E+03</pdfrwt>
<totfact> 0.14308502E+04</totfact>
</mgrwt>
</event>
<event>
 4    1  0.6086918E-004  0.5029958E+03  0.7818608E-02  0.1013000E+00
         -2   -1    0    0    0  501 -0.00000000000E+00  0.00000000000E+00  0.20840064834E+02  0.20840064990E+02  0.25500000000E-02 0. -1.
          2   -1    0    0  501    0  0.00000000000E+00 -0.00000000000E+00 -0.30350769905E+04  0.30350769905E+04  0.25500000000E-02 0.  1.
    5000001    1    1    2    0    0  0.18461373042E+03  0.37314606531E+02 -0.24051239017E+04  0.24137159303E+04  0.77000000000E+02 0.  0.
   -5000001    1    1    2    0    0 -0.18461373042E+03 -0.37314606531E+02 -0.60911302397E+03  0.64220112526E+03  0.77000000000E+02 0.  0.
<mgrwt>
<rscale>  0 0.50299583E+03</rscale>
<asrwt>0</asrwt>
<pdfrwt beam="1">  1        2 0.46693457E+00 0.50299583E+03</pdfrwt>
<pdfrwt beam="2">  1       -2 0.32061662E-02 0.50299583E+03</pdfrwt>
<totfact> 0.73430030E+02</totfact>
</mgrwt>
</event>
<event>
 4    1  0.6086918E-004  0.2963461E+03  0.7818608E-02  0.1087082E+00
          2   -1    0    0  501    0  0.00000000000E+00  0.00000000000E+00  0.64853938183E+03  0.64853938184E+03  0.25500000000E-02 0.  1.
         -2   -1    0    0    0  501 -0.00000000000E+00 -0.00000000000E+00 -0.33853380843E+02  0.33853380939E+02  0.25500000000E-02 0. -1.
    5000001    1    1    2    0    0 -0.11781393092E+03  0.27674093914E+02  0.39289254489E+03  0.41825773110E+03  0.77000000000E+02 0.  0.
   -5000001    1    1    2    0    0  0.11781393092E+03 -0.27674093914E+02  0.22179345610E+03  0.26413503168E+03  0.77000000000E+02 0.  0.
<mgrwt>
<rscale>  0 0.29634609E+03</rscale>
<asrwt>0</asrwt>
<pdfrwt beam="1">  1        2 0.99775298E-01 0.29634609E+03</pdfrwt>
<pdfrwt beam="2">  1       -2 0.52082120E-02 0.29634609E+03</pdfrwt>
<totfact> 0.84558160E+03</totfact>
</mgrwt>
</event>
<event>
 4    1  0.6086918E-004  0.2750982E+03  0.7818608E-02  0.1098397E+00
         -2   -1    0    0    0  501 -0.00000000000E+00  0.00000000000E+00  0.68196888011E+02  0.68196888059E+02  0.25500000000E-02 0. -1.
          2   -1    0    0  501    0  0.00000000000E+00 -0.00000000000E+00 -0.27742852022E+03  0.27742852023E+03  0.25500000000E-02 0.  1.
    5000001    1    1    2    0    0  0.10303273107E+03 -0.48158248949E+02 -0.95230707665E+02  0.16713123076E+03  0.77000000000E+02 0.  0.
   -5000001    1    1    2    0    0 -0.10303273107E+03  0.48158248949E+02 -0.11400092455E+03  0.17849417753E+03  0.77000000000E+02 0.  0.
<mgrwt>
<rscale>  0 0.27509825E+03</rscale>
<asrwt>0</asrwt>
<pdfrwt beam="1">  1        2 0.42681310E-01 0.27509825E+03</pdfrwt>
<pdfrwt beam="2">  1       -2 0.10491829E-01 0.27509825E+03</pdfrwt>
<totfact> 0.72592746E+03</totfact>
</mgrwt>
</event>
<event>
 4    1  0.6086918E-004  0.2788628E+03  0.7818608E-02  0.1096312E+00
          2   -1    0    0  501    0  0.00000000000E+00  0.00000000000E+00  0.14675088233E+04  0.14675088233E+04  0.25500000000E-02 0.  1.
         -2   -1    0    0    0  501 -0.00000000000E+00 -0.00000000000E+00 -0.13247700823E+02  0.13247701068E+02  0.25500000000E-02 0. -1.
    5000001    1    1    2    0    0  0.23056711965E+02 -0.11393070812E+03  0.72422308174E+03  0.73752280666E+03  0.77000000000E+02 0.  0.
   -5000001    1    1    2    0    0 -0.23056711965E+02  0.11393070812E+03  0.73003804070E+03  0.74323371768E+03  0.77000000000E+02 0.  0.
<mgrwt>
<rscale>  0 0.27886282E+03</rscale>
<asrwt>0</asrwt>
<pdfrwt beam="1">  1        2 0.22577052E+00 0.27886282E+03</pdfrwt>
<pdfrwt beam="2">  1       -2 0.20381084E-02 0.27886282E+03</pdfrwt>
<totfact> 0.10682532E+04</totfact>
</mgrwt>
</event>
<event>
 4    1  0.6086918E-004  0.1764792E+03  0.7818608E-02  0.1171255E+00
         -2   -1    0    0    0  501 -0.00000000000E+00  0.00000000000E+00  0.10224643771E+03  0.10224643775E+03  0.25500000000E-02 0. -1.
          2   -1    0    0  501    0  0.00000000000E+00 -0.00000000000E+00 -0.76151534023E+02  0.76151534066E+02  0.25500000000E-02 0.  1.
    5000001    1    1    2    0    0 -0.68460780324E+01 -0.41877625078E+02  0.54410913545E+01  0.88086376595E+02  0.77000000000E+02 0.  0.
   -5000001    1    1    2    0    0  0.68460780324E+01  0.41877625078E+02  0.20653812337E+02  0.90311595217E+02  0.77000000000E+02 0.  0.
<mgrwt>
<rscale>  0 0.17647916E+03</rscale>
<asrwt>0</asrwt>
<pdfrwt beam="1">  1        2 0.11715621E-01 0.17647916E+03</pdfrwt>
<pdfrwt beam="2">  1       -2 0.15730221E-01 0.17647916E+03</pdfrwt>
<totfact> 0.15853698E+04</totfact>
</mgrwt>
</event>
<event>
 4    1  0.6086918E-004  0.4454662E+03  0.7818608E-02  0.1029083E+00
          2   -1    0    0  501    0  0.00000000000E+00  0.00000000000E+00  0.13875246176E+04  0.13875246176E+04  0.25500000000E-02 0.  1.
         -2   -1    0    0    0  501 -0.00000000000E+00 -0.00000000000E+00 -0.35754349601E+02  0.35754349692E+02  0.25500000000E-02 0. -1.
    5000001    1    1    2    0    0  0.77861220446E+02  0.18480858846E+03  0.86394355711E+03  0.89024943353E+03  0.77000000000E+02 0.  0.
   -5000001    1    1    2    0    0 -0.77861220446E+02 -0.18480858846E+03  0.48782671091E+03  0.53302953380E+03  0.77000000000E+02 0.  0.
<mgrwt>
<rscale>  0 0.44546623E+03</rscale>
<asrwt>0</asrwt>
<pdfrwt beam="1">  1        2 0.21346535E+00 0.44546623E+03</pdfrwt>
<pdfrwt beam="2">  1       -2 0.55006685E-02 0.44546623E+03</pdfrwt>
<totfact> 0.26541431E+03</totfact>
</mgrwt>
</event>
<event>
 4    1  0.6086918E-004  0.2171545E+03  0.7818608E-02  0.1136022E+00
         -2   -1    0    0    0  501 -0.00000000000E+00  0.00000000000E+00  0.92005963622E+01  0.92005967155E+01  0.25500000000E-02 0. -1.
          2   -1    0    0  501    0  0.00000000000E+00 -0.00000000000E+00 -0.12813322818E+04  0.12813322818E+04  0.25500000000E-02 0.  1.
    5000001    1    1    2    0    0 -0.75801303781E+02 -0.87280173153E+01 -0.67270310080E+03  0.68138130130E+03  0.77000000000E+02 0.  0.
   -5000001    1    1    2    0    0  0.75801303781E+02  0.87280173153E+01 -0.59942858464E+03  0.60915157722E+03  0.77000000000E+02 0.  0.
<mgrwt>
<rscale>  0 0.21715452E+03</rscale>
<asrwt>0</asrwt>
<pdfrwt beam="1">  1        2 0.19712790E+00 0.21715452E+03</pdfrwt>
<pdfrwt beam="2">  1       -2 0.14154774E-02 0.21715452E+03</pdfrwt>
<totfact> 0.22786044E+04</totfact>
</mgrwt>
</event>
<event>
 4    1  0.6086918E-004  0.2983735E+03  0.7818608E-02  0.1086057E+00
          2   -1    0    0  501    0  0.00000000000E+00  0.00000000000E+00  0.15554842427E+04  0.15554842427E+04  0.25500000000E-02 0.  1.
         -2   -1    0    0    0  501 -0.00000000000E+00 -0.00000000000E+00 -0.14308526864E+02  0.14308527092E+02  0.25500000000E-02 0. -1.
    5000001    1    1    2    0    0 -0.12357090802E+03 -0.16226068954E+01  0.59967797972E+03  0.61710216458E+03  0.77000000000E+02 0.  0.
   -5000001    1    1    2    0    0  0.12357090802E+03  0.16226068954E+01  0.94149773609E+03  0.95269060519E+03  0.77000000000E+02 0.  0.
<mgrwt>
<rscale>  0 0.29837351E+03</rscale>
<asrwt>0</asrwt>
<pdfrwt beam="1">  1        2 0.23930528E+00 0.29837351E+03</pdfrwt>
<pdfrwt beam="2">  1       -2 0.22013118E-02 0.29837351E+03</pdfrwt>
<totfact> 0.85640709E+03</totfact>
</mgrwt>
</event>
<event>
 4    1  0.6086918E-004  0.1931112E+03  0.7818608E-02  0.1155685E+00
          2   -1    0    0  501    0  0.00000000000E+00  0.00000000000E+00  0.50985667979E+02  0.50985668042E+02  0.25500000000E-02 0.  1.
         -2   -1    0    0    0  501 -0.00000000000E+00 -0.00000000000E+00 -0.18285493521E+03  0.18285493522E+03  0.25500000000E-02 0. -1.
    5000001    1    1    2    0    0 -0.42479581721E+02  0.17031858027E+02 -0.22284965532E+02  0.92305030956E+02  0.77000000000E+02 0.  0.
   -5000001    1    1    2    0    0  0.42479581721E+02 -0.17031858027E+02 -0.10958430169E+03  0.14153557231E+03  0.77000000000E+02 0.  0.
<mgrwt>
<rscale>  0 0.19311117E+03</rscale>
<asrwt>0</asrwt>
<pdfrwt beam="1">  1        2 0.78439491E-02 0.19311117E+03</pdfrwt>
<pdfrwt beam="2">  1       -2 0.28131528E-01 0.19311117E+03</pdfrwt>
<totfact> 0.96897708E+03</totfact>
</mgrwt>
</event>
<event>
 4    1  0.6086918E-004  0.2250219E+03  0.7818608E-02  0.1130193E+00
         -2   -1    0    0    0  501 -0.00000000000E+00  0.00000000000E+00  0.80626679901E+02  0.80626679941E+02  0.25500000000E-02 0. -1.
          2   -1    0    0  501    0  0.00000000000E+00 -0.00000000000E+00 -0.15700396773E+03  0.15700396775E+03  0.25500000000E-02 0.  1.
    5000001    1    1    2    0    0 -0.75621665890E+01 -0.81549640183E+02 -0.33215355645E+02  0.11721685044E+03  0.77000000000E+02 0.  0.
   -5000001    1    1    2    0    0  0.75621665890E+01  0.81549640183E+02 -0.43161932184E+02  0.12041379725E+03  0.77000000000E+02 0.  0.
<mgrwt>
<rscale>  0 0.22502185E+03</rscale>
<asrwt>0</asrwt>
<pdfrwt beam="1">  1        2 0.24154457E-01 0.22502185E+03</pdfrwt>
<pdfrwt beam="2">  1       -2 0.12404105E-01 0.22502185E+03</pdfrwt>
<totfact> 0.10237290E+04</totfact>
</mgrwt>
</event>
<event>
 4    1  0.6086918E-004  0.1950697E+03  0.7818608E-02  0.1153967E+00
          2   -1    0    0  501    0  0.00000000000E+00  0.00000000000E+00  0.22000813570E+04  0.22000813570E+04  0.25500000000E-02 0.  1.
         -2   -1    0    0    0  501 -0.00000000000E+00 -0.00000000000E+00 -0.43239511398E+01  0.43239518917E+01  0.25500000000E-02 0. -1.
    5000001    1    1    2    0    0 -0.49670678742E+02 -0.31465459303E+02  0.12251265529E+04  0.12289513098E+04  0.77000000000E+02 0.  0.
   -5000001    1    1    2    0    0  0.49670678742E+02  0.31465459303E+02  0.97063085297E+03  0.97545399901E+03  0.77000000000E+02 0.  0.
<mgrwt>
<rscale>  0 0.19506968E+03</rscale>
<asrwt>0</asrwt>
<pdfrwt beam="1">  1        2 0.33847560E+00 0.19506968E+03</pdfrwt>
<pdfrwt beam="2">  1       -2 0.66522027E-03 0.19506968E+03</pdfrwt>
<totfact> 0.22147228E+04</totfact>
</mgrwt>
</event>
<event>
 4    1  0.6086918E-004  0.2729121E+03  0.7818608E-02  0.1099624E+00
         -2   -1    0    0    0  501 -0.00000000000E+00  0.00000000000E+00  0.90089041854E+02  0.90089041890E+02  0.25500000000E-02 0. -1.
          2   -1    0    0  501    0  0.00000000000E+00 -0.00000000000E+00 -0.20668714739E+03  0.20668714741E+03  0.25500000000E-02 0.  1.
    5000001    1    1    2    0    0 -0.71044276238E+02 -0.76752171862E+02 -0.10382982094E+03  0.16627632660E+03  0.77000000000E+02 0.  0.
   -5000001    1    1    2    0    0  0.71044276238E+02  0.76752171862E+02 -0.12768284594E+02  0.13049986269E+03  0.77000000000E+02 0.  0.
<mgrwt>
<rscale>  0 0.27291205E+03</rscale>
<asrwt>0</asrwt>
<pdfrwt beam="1">  1        2 0.31798023E-01 0.27291205E+03</pdfrwt>
<pdfrwt beam="2">  1       -2 0.13859853E-01 0.27291205E+03</pdfrwt>
<totfact> 0.63656511E+03</totfact>
</mgrwt>
</event>
<event>
 4    1  0.6086918E-004  0.2025302E+03  0.7818608E-02  0.1147622E+00
         -2   -1    0    0    0  501 -0.00000000000E+00  0.00000000000E+00  0.53473444444E+01  0.53473450524E+01  0.25500000000E-02 0. -1.
          2   -1    0    0  501    0  0.00000000000E+00 -0.00000000000E+00 -0.19177039818E+04  0.19177039818E+04  0.25500000000E-02 0.  1.
    5000001    1    1    2    0    0  0.20963220873E+02  0.56320918173E+02 -0.12099172864E+04  0.12138535094E+04  0.77000000000E+02 0.  0.
   -5000001    1    1    2    0    0 -0.20963220873E+02 -0.56320918173E+02 -0.70243935102E+03  0.70919781748E+03  0.77000000000E+02 0.  0.
<mgrwt>
<rscale>  0 0.20253024E+03</rscale>
<asrwt>0</asrwt>
<pdfrwt beam="1">  1        2 0.29503083E+00 0.20253024E+03</pdfrwt>
<pdfrwt beam="2">  1       -2 0.82266996E-03 0.20253024E+03</pdfrwt>
<totfact> 0.22950118E+04</totfact>
</mgrwt>
</event>
<event>
 4    1  0.6086918E-004  0.2978530E+03  0.7818608E-02  0.1086319E+00
          2   -1    0    0  501    0  0.00000000000E+00  0.00000000000E+00  0.64723785726E+03  0.64723785726E+03  0.25500000000E-02 0.  1.
         -2   -1    0    0    0  501 -0.00000000000E+00 -0.00000000000E+00 -0.34267312939E+02  0.34267313033E+02  0.25500000000E-02 0. -1.
    5000001    1    1    2    0    0  0.11359956592E+03 -0.46892668982E+02  0.38395282187E+03  0.41042971774E+03  0.77000000000E+02 0.  0.
   -5000001    1    1    2    0    0 -0.11359956592E+03  0.46892668982E+02  0.22901772245E+03  0.27107545255E+03  0.77000000000E+02 0.  0.
<mgrwt>
<rscale>  0 0.29785300E+03</rscale>
<asrwt>0</asrwt>
<pdfrwt beam="1">  1        2 0.99575045E-01 0.29785300E+03</pdfrwt>
<pdfrwt beam="2">  1       -2 0.52718949E-02 0.29785300E+03</pdfrwt>
<totfact> 0.83215393E+03</totfact>
</mgrwt>
</event>
<event>
 4    1  0.6086918E-004  0.2466641E+03  0.7818608E-02  0.1115431E+00
         -2   -1    0    0    0  501 -0.00000000000E+00  0.00000000000E+00  0.11149606129E+03  0.11149606132E+03  0.25500000000E-02 0. -1.
          2   -1    0    0  501    0  0.00000000000E+00 -0.00000000000E+00 -0.13642453232E+03  0.13642453234E+03  0.25500000000E-02 0.  1.
    5000001    1    1    2    0    0  0.91613303423E+02 -0.80520642587E+00  0.17489454470E+02  0.12094844662E+03  0.77000000000E+02 0.  0.
   -5000001    1    1    2    0    0 -0.91613303423E+02  0.80520642587E+00 -0.42417925496E+02  0.12697214704E+03  0.77000000000E+02 0.  0.
<mgrwt>
<rscale>  0 0.24666413E+03</rscale>
<asrwt>0</asrwt>
<pdfrwt beam="1">  1        2 0.20988390E-01 0.24666413E+03</pdfrwt>
<pdfrwt beam="2">  1       -2 0.17153240E-01 0.24666413E+03</pdfrwt>
<totfact> 0.70719400E+03</totfact>
</mgrwt>
</event>
<event>
 4    1  0.6086918E-004  0.2649550E+03  0.7818608E-02  0.1104202E+00
          2   -1    0    0  501    0  0.00000000000E+00  0.00000000000E+00  0.76069956402E+03  0.76069956403E+03  0.25500000000E-02 0.  1.
         -2   -1    0    0    0  501 -0.00000000000E+00 -0.00000000000E+00 -0.23071244970E+02  0.23071245111E+02  0.25500000000E-02 0. -1.
    5000001    1    1    2    0    0  0.41835258071E+01  0.10475105016E+03  0.29450673037E+03  0.32195263414E+03  0.77000000000E+02 0.  0.
   -5000001    1    1    2    0    0 -0.41835258071E+01 -0.10475105016E+03  0.44312158868E+03  0.46181817500E+03  0.77000000000E+02 0.  0.
<mgrwt>
<rscale>  0 0.26495499E+03</rscale>
<asrwt>0</asrwt>
<pdfrwt beam="1">  1        2 0.11703068E+00 0.26495499E+03</pdfrwt>
<pdfrwt beam="2">  1       -2 0.35494229E-02 0.26495499E+03</pdfrwt>
<totfact> 0.12378817E+04</totfact>
</mgrwt>
</event>
<event>
 4    1  0.6086918E-004  0.4161113E+03  0.7818608E-02  0.1038339E+00
          2   -1    0    0  501    0  0.00000000000E+00  0.00000000000E+00  0.15428545796E+04  0.15428545796E+04  0.25500000000E-02 0.  1.
         -2   -1    0    0    0  501 -0.00000000000E+00 -0.00000000000E+00 -0.28056530068E+02  0.28056530183E+02  0.25500000000E-02 0. -1.
    5000001    1    1    2    0    0 -0.60805839459E+02  0.17625482110E+03  0.56508380365E+03  0.60000984760E+03  0.77000000000E+02 0.  0.
   -5000001    1    1    2    0    0  0.60805839459E+02 -0.17625482110E+03  0.94971424585E+03  0.97090126215E+03  0.77000000000E+02 0.  0.
<mgrwt>
<rscale>  0 0.41611126E+03</rscale>
<asrwt>0</asrwt>
<pdfrwt beam="1">  1        2 0.23736225E+00 0.41611126E+03</pdfrwt>
<pdfrwt beam="2">  1       -2 0.43163891E-02 0.41611126E+03</pdfrwt>
<totfact> 0.31685250E+03</totfact>
</mgrwt>
</event>
<event>
 4    1  0.6086918E-004  0.2624801E+03  0.7818608E-02  0.1105662E+00
         -2   -1    0    0    0  501 -0.00000000000E+00  0.00000000000E+00  0.69127249632E+01  0.69127254335E+01  0.25500000000E-02 0. -1.
          2   -1    0    0  501    0  0.00000000000E+00 -0.00000000000E+00 -0.24916290978E+04  0.24916290978E+04  0.25500000000E-02 0.  1.
    5000001    1    1    2    0    0  0.75299957370E+02 -0.68642238972E+02 -0.95471701448E+03  0.96322137553E+03  0.77000000000E+02 0.  0.
   -5000001    1    1    2    0    0 -0.75299957370E+02  0.68642238972E+02 -0.15299993583E+04  0.15353204477E+04  0.77000000000E+02 0.  0.
<mgrwt>
<rscale>  0 0.26248007E+03</rscale>
<asrwt>0</asrwt>
<pdfrwt beam="1">  1        2 0.38332684E+00 0.26248007E+03</pdfrwt>
<pdfrwt beam="2">  1       -2 0.10634982E-02 0.26248007E+03</pdfrwt>
<totfact> 0.79007871E+03</totfact>
</mgrwt>
</event>
<event>
 4    1  0.6086918E-004  0.2486314E+03  0.7818608E-02  0.1114173E+00
          2   -1    0    0  501    0  0.00000000000E+00  0.00000000000E+00  0.47283168033E+03  0.47283168034E+03  0.25500000000E-02 0.  1.
         -2   -1    0    0    0  501 -0.00000000000E+00 -0.00000000000E+00 -0.32684775725E+02  0.32684775824E+02  0.25500000000E-02 0. -1.
    5000001    1    1    2    0    0  0.49804436015E+02 -0.69078414118E+02  0.31700997080E+03  0.33715965169E+03  0.77000000000E+02 0.  0.
   -5000001    1    1    2    0    0 -0.49804436015E+02  0.69078414118E+02  0.12313693381E+03  0.16835680447E+03  0.77000000000E+02 0.  0.
<mgrwt>
<rscale>  0 0.24863143E+03</rscale>
<asrwt>0</asrwt>
<pdfrwt beam="1">  1        2 0.72743325E-01 0.24863143E+03</pdfrwt>
<pdfrwt beam="2">  1       -2 0.50284278E-02 0.24863143E+03</pdfrwt>
<totfact> 0.12711422E+04</totfact>
</mgrwt>
</event>
<event>
 4    1  0.6086918E-004  0.2695146E+03  0.7818608E-02  0.1101558E+00
          2   -1    0    0  501    0  0.00000000000E+00  0.00000000000E+00  0.63954783798E+02  0.63954783849E+02  0.25500000000E-02 0.  1.
         -2   -1    0    0    0  501 -0.00000000000E+00 -0.00000000000E+00 -0.28394327735E+03  0.28394327736E+03  0.25500000000E-02 0. -1.
    5000001    1    1    2    0    0 -0.75594944507E+02 -0.74815425169E+02 -0.14911704887E+03  0.19868778961E+03  0.77000000000E+02 0.  0.
   -5000001    1    1    2    0    0  0.75594944507E+02  0.74815425169E+02 -0.70871444679E+02  0.14921027159E+03  0.77000000000E+02 0.  0.
<mgrwt>
<rscale>  0 0.26951461E+03</rscale>
<asrwt>0</asrwt>
<pdfrwt beam="1">  1        2 0.98391977E-02 0.26951461E+03</pdfrwt>
<pdfrwt beam="2">  1       -2 0.43683580E-01 0.26951461E+03</pdfrwt>
<totfact> 0.32665398E+03</totfact>
</mgrwt>
</event>
<event>
 4    1  0.6086918E-004  0.1796944E+03  0.7818608E-02  0.1168099E+00
          2   -1    0    0  501    0  0.00000000000E+00  0.00000000000E+00  0.63313759091E+03  0.63313759092E+03  0.25500000000E-02 0.  1.
         -2   -1    0    0    0  501 -0.00000000000E+00 -0.00000000000E+00 -0.12750019140E+02  0.12750019395E+02  0.25500000000E-02 0. -1.
    5000001    1    1    2    0    0 -0.40628584970E+02  0.20263462882E+02  0.27760045361E+03  0.29163727761E+03  0.77000000000E+02 0.  0.
   -5000001    1    1    2    0    0  0.40628584970E+02 -0.20263462882E+02  0.34278711816E+03  0.35425033270E+03  0.77000000000E+02 0.  0.
<mgrwt>
<rscale>  0 0.17969437E+03</rscale>
<asrwt>0</asrwt>
<pdfrwt beam="1">  1        2 0.97405793E-01 0.17969437E+03</pdfrwt>
<pdfrwt beam="2">  1       -2 0.19615412E-02 0.17969437E+03</pdfrwt>
<totfact> 0.36186417E+04</totfact>
</mgrwt>
</event>
<event>
 4    1  0.6086918E-004  0.1761298E+03  0.7818608E-02  0.1171602E+00
         -2   -1    0    0    0  501 -0.00000000000E+00  0.00000000000E+00  0.69210861722E+01  0.69210866420E+01  0.25500000000E-02 0. -1.
          2   -1    0    0  501    0  0.00000000000E+00 -0.00000000000E+00 -0.11205505021E+04  0.11205505021E+04  0.25500000000E-02 0.  1.
    5000001    1    1    2    0    0 -0.41963517655E+02  0.80888855457E+01 -0.55838230263E+03  0.56528414340E+03  0.77000000000E+02 0.  0.
   -5000001    1    1    2    0    0  0.41963517655E+02 -0.80888855457E+01 -0.55524711328E+03  0.56218744533E+03  0.77000000000E+02 0.  0.
<mgrwt>
<rscale>  0 0.17612980E+03</rscale>
<asrwt>0</asrwt>
<pdfrwt beam="1">  1        2 0.17239224E+00 0.17612980E+03</pdfrwt>
<pdfrwt beam="2">  1       -2 0.10647834E-02 0.17612980E+03</pdfrwt>
<totfact> 0.41785708E+04</totfact>
</mgrwt>
</event>
<event>
 4    1  0.6086918E-004  0.2166159E+03  0.7818608E-02  0.1136431E+00
          2   -1    0    0  501    0  0.00000000000E+00  0.00000000000E+00  0.26712283955E+03  0.26712283956E+03  0.25500000000E-02 0.  1.
         -2   -1    0    0    0  501 -0.00000000000E+00 -0.00000000000E+00 -0.43914674204E+02  0.43914674278E+02  0.25500000000E-02 0. -1.
    5000001    1    1    2    0    0 -0.36086254179E+02  0.66878867929E+02  0.11901137186E+03  0.16083440971E+03  0.77000000000E+02 0.  0.
   -5000001    1    1    2    0    0  0.36086254179E+02 -0.66878867929E+02  0.10419679349E+03  0.15020310413E+03  0.77000000000E+02 0.  0.
<mgrwt>
<rscale>  0 0.21661590E+03</rscale>
<asrwt>0</asrwt>
<pdfrwt beam="1">  1        2 0.41095821E-01 0.21661590E+03</pdfrwt>
<pdfrwt beam="2">  1       -2 0.67561037E-02 0.21661590E+03</pdfrwt>
<totfact> 0.14883315E+04</totfact>
</mgrwt>
</event>
<event>
 4    1  0.6086918E-004  0.2214121E+03  0.7818608E-02  0.1132835E+00
          2   -1    0    0  501    0  0.00000000000E+00  0.00000000000E+00  0.65822267838E+02  0.65822267887E+02  0.25500000000E-02 0.  1.
         -2   -1    0    0    0  501 -0.00000000000E+00 -0.00000000000E+00 -0.18619585026E+03  0.18619585027E+03  0.25500000000E-02 0. -1.
    5000001    1    1    2    0    0  0.52776255231E+02 -0.57759999046E+02 -0.76495003004E+02  0.13379849061E+03  0.77000000000E+02 0.  0.
   -5000001    1    1    2    0    0 -0.52776255231E+02  0.57759999046E+02 -0.43878579415E+02  0.11821962755E+03  0.77000000000E+02 0.  0.
<mgrwt>
<rscale>  0 0.22141213E+03</rscale>
<asrwt>0</asrwt>
<pdfrwt beam="1">  1        2 0.10126503E-01 0.22141213E+03</pdfrwt>
<pdfrwt beam="2">  1       -2 0.28645515E-01 0.22141213E+03</pdfrwt>
<totfact> 0.68707817E+03</totfact>
</mgrwt>
</event>
<event>
 4    1  0.6086918E-004  0.1875158E+03  0.7818608E-02  0.1160721E+00
         -2   -1    0    0    0  501 -0.00000000000E+00  0.00000000000E+00  0.14636918857E+02  0.14636919079E+02  0.25500000000E-02 0. -1.
          2   -1    0    0  501    0  0.00000000000E+00 -0.00000000000E+00 -0.60057365640E+03  0.60057365641E+03  0.25500000000E-02 0.  1.
    5000001    1    1    2    0    0 -0.23105369897E+02 -0.27421746525E+02 -0.42320338804E+03  0.43164327627E+03  0.77000000000E+02 0.  0.
   -5000001    1    1    2    0    0  0.23105369897E+02  0.27421746525E+02 -0.16273334951E+03  0.18356729922E+03  0.77000000000E+02 0.  0.
<mgrwt>
<rscale>  0 0.18751584E+03</rscale>
<asrwt>0</asrwt>
<pdfrwt beam="1">  1        2 0.92395928E-01 0.18751584E+03</pdfrwt>
<pdfrwt beam="2">  1       -2 0.22518342E-02 0.18751584E+03</pdfrwt>
<totfact> 0.31547785E+04</totfact>
</mgrwt>
</event>
<event>
 4    1  0.6086918E-004  0.2591480E+03  0.7818608E-02  0.1107656E+00
          2   -1    0    0  501    0  0.00000000000E+00  0.00000000000E+00  0.21539152188E+03  0.21539152189E+03  0.25500000000E-02 0.  1.
         -2   -1    0    0    0  501 -0.00000000000E+00 -0.00000000000E+00 -0.77948385662E+02  0.77948385704E+02  0.25500000000E-02 0. -1.
    5000001    1    1    2    0    0  0.87726604271E+02  0.54219916259E+02  0.51755117083E+02  0.13872039706E+03  0.77000000000E+02 0.  0.
   -5000001    1    1    2    0    0 -0.87726604271E+02 -0.54219916259E+02  0.85688019134E+02  0.15461951054E+03  0.77000000000E+02 0.  0.
<mgrwt>
<rscale>  0 0.25914800E+03</rscale>
<asrwt>0</asrwt>
<pdfrwt beam="1">  1        2 0.33137156E-01 0.25914800E+03</pdfrwt>
<pdfrwt beam="2">  1       -2 0.11992060E-01 0.25914800E+03</pdfrwt>
<totfact> 0.76841730E+03</totfact>
</mgrwt>
</event>
<event>
 4    1  0.6086918E-004  0.2210372E+03  0.7818608E-02  0.1133112E+00
         -2   -1    0    0    0  501 -0.00000000000E+00  0.00000000000E+00  0.16221555062E+02  0.16221555263E+02  0.25500000000E-02 0. -1.
          2   -1    0    0  501    0  0.00000000000E+00 -0.00000000000E+00 -0.75297100450E+03  0.75297100450E+03  0.25500000000E-02 0.  1.
    5000001    1    1    2    0    0  0.29617372147E+02 -0.68322163406E+02 -0.27369432701E+03  0.29390932510E+03  0.77000000000E+02 0.  0.
   -5000001    1    1    2    0    0 -0.29617372147E+02  0.68322163406E+02 -0.46305512243E+03  0.47528323466E+03  0.77000000000E+02 0.  0.
<mgrwt>
<rscale>  0 0.22103720E+03</rscale>
<asrwt>0</asrwt>
<pdfrwt beam="1">  1        2 0.11584167E+00 0.22103720E+03</pdfrwt>
<pdfrwt beam="2">  1       -2 0.24956245E-02 0.22103720E+03</pdfrwt>
<totfact> 0.20963601E+04</totfact>
</mgrwt>
</event>
<event>
 4    1  0.6086918E-004  0.4200446E+03  0.7818608E-02  0.1037052E+00
          2   -1    0    0  501    0  0.00000000000E+00  0.00000000000E+00  0.44839111606E+03  0.44839111607E+03  0.25500000000E-02 0.  1.
         -2   -1    0    0    0  501 -0.00000000000E+00 -0.00000000000E+00 -0.98372503901E+02  0.98372503934E+02  0.25500000000E-02 0. -1.
    5000001    1    1    2    0    0  0.18974196983E+03  0.15723569948E+02  0.23221086665E+03  0.31000021348E+03  0.77000000000E+02 0.  0.
   -5000001    1    1    2    0    0 -0.18974196983E+03 -0.15723569948E+02  0.11780774551E+03  0.23676340652E+03  0.77000000000E+02 0.  0.
<mgrwt>
<rscale>  0 0.42004455E+03</rscale>
<asrwt>0</asrwt>
<pdfrwt beam="1">  1        2 0.68983249E-01 0.42004455E+03</pdfrwt>
<pdfrwt beam="2">  1       -2 0.15134231E-01 0.42004455E+03</pdfrwt>
<totfact> 0.23878983E+03</totfact>
</mgrwt>
</event>
<event>
 4    1  0.6086918E-004  0.3391386E+03  0.7818608E-02  0.1067163E+00
          2   -1    0    0  501    0  0.00000000000E+00  0.00000000000E+00  0.64835867766E+03  0.64835867766E+03  0.25500000000E-02 0.  1.
         -2   -1    0    0    0  501 -0.00000000000E+00 -0.00000000000E+00 -0.44348515745E+02  0.44348515818E+02  0.25500000000E-02 0. -1.
    5000001    1    1    2    0    0  0.30263919674E+02  0.14378049358E+03  0.37381483923E+03  0.40896854304E+03  0.77000000000E+02 0.  0.
   -5000001    1    1    2    0    0 -0.30263919674E+02 -0.14378049358E+03  0.23019532268E+03  0.28373865044E+03  0.77000000000E+02 0.  0.
<mgrwt>
<rscale>  0 0.33913859E+03</rscale>
<asrwt>0</asrwt>
<pdfrwt beam="1">  1        2 0.99747486E-01 0.33913859E+03</pdfrwt>
<pdfrwt beam="2">  1       -2 0.68228488E-02 0.33913859E+03</pdfrwt>
<totfact> 0.56009606E+03</totfact>
</mgrwt>
</event>
<event>
 4    1  0.6086918E-004  0.4424224E+03  0.7818608E-02  0.1030006E+00
         -2   -1    0    0    0  501 -0.00000000000E+00  0.00000000000E+00  0.10061425120E+03  0.10061425124E+03  0.25500000000E-02 0. -1.
          2   -1    0    0  501    0  0.00000000000E+00 -0.00000000000E+00 -0.48635647910E+03  0.48635647911E+03  0.25500000000E-02 0.  1.
    5000001    1    1    2    0    0 -0.41207645263E+02  0.17476416620E+03 -0.55219117515E+02  0.20302397582E+03  0.77000000000E+02 0.  0.
   -5000001    1    1    2    0    0  0.41207645263E+02 -0.17476416620E+03 -0.33052311038E+03  0.38394675453E+03  0.77000000000E+02 0.  0.
<mgrwt>
<rscale>  0 0.44242239E+03</rscale>
<asrwt>0</asrwt>
<pdfrwt beam="1">  1        2 0.74824072E-01 0.44242239E+03</pdfrwt>
<pdfrwt beam="2">  1       -2 0.15479116E-01 0.44242239E+03</pdfrwt>
<totfact> 0.20991841E+03</totfact>
</mgrwt>
</event>
<event>
 4    1  0.6086918E-004  0.1994295E+03  0.7818608E-02  0.1150221E+00
          2   -1    0    0  501    0  0.00000000000E+00  0.00000000000E+00  0.15516836093E+04  0.15516836093E+04  0.25500000000E-02 0.  1.
         -2   -1    0    0    0  501 -0.00000000000E+00 -0.00000000000E+00 -0.64078966354E+01  0.64078971428E+01  0.25500000000E-02 0. -1.
    5000001    1    1    2    0    0 -0.22508090165E+02 -0.40319786467E+02  0.11115461455E+04  0.11151664149E+04  0.77000000000E+02 0.  0.
   -5000001    1    1    2    0    0  0.22508090165E+02  0.40319786467E+02  0.43372956716E+03  0.44292509156E+03  0.77000000000E+02 0.  0.
<mgrwt>
<rscale>  0 0.19942947E+03</rscale>
<asrwt>0</asrwt>
<pdfrwt beam="1">  1        2 0.23872081E+00 0.19942947E+03</pdfrwt>
<pdfrwt beam="2">  1       -2 0.98582925E-03 0.19942947E+03</pdfrwt>
<totfact> 0.27411473E+04</totfact>
</mgrwt>
</event>
<event>
 4    1  0.6086918E-004  0.2628716E+03  0.7818608E-02  0.1105430E+00
          2   -1    0    0  501    0  0.00000000000E+00  0.00000000000E+00  0.12534617699E+04  0.12534617699E+04  0.25500000000E-02 0.  1.
         -2   -1    0    0    0  501 -0.00000000000E+00 -0.00000000000E+00 -0.13782128876E+02  0.13782129111E+02  0.25500000000E-02 0. -1.
    5000001    1    1    2    0    0  0.95631106404E+02  0.30224563372E+02  0.79282014942E+03  0.80283972377E+03  0.77000000000E+02 0.  0.
   -5000001    1    1    2    0    0 -0.95631106404E+02 -0.30224563372E+02  0.44685949160E+03  0.46440417524E+03  0.77000000000E+02 0.  0.
<mgrwt>
<rscale>  0 0.26287162E+03</rscale>
<asrwt>0</asrwt>
<pdfrwt beam="1">  1        2 0.19284033E+00 0.26287162E+03</pdfrwt>
<pdfrwt beam="2">  1       -2 0.21203269E-02 0.26287162E+03</pdfrwt>
<totfact> 0.13178487E+04</totfact>
</mgrwt>
</event>
<event>
 4    1  0.6086918E-004  0.1888969E+03  0.7818608E-02  0.1159460E+00
         -2   -1    0    0    0  501 -0.00000000000E+00  0.00000000000E+00  0.76685913707E+01  0.76685917946E+01  0.25500000000E-02 0. -1.
          2   -1    0    0  501    0  0.00000000000E+00 -0.00000000000E+00 -0.11632520868E+04  0.11632520868E+04  0.25500000000E-02 0.  1.
    5000001    1    1    2    0    0 -0.50282880536E+00  0.20043309120E+02 -0.26235504090E+03  0.27415534750E+03  0.77000000000E+02 0.  0.
   -5000001    1    1    2    0    0  0.50282880536E+00 -0.20043309120E+02 -0.89322845452E+03  0.89676533109E+03  0.77000000000E+02 0.  0.
<mgrwt>
<rscale>  0 0.18889685E+03</rscale>
<asrwt>0</asrwt>
<pdfrwt beam="1">  1        2 0.17896172E+00 0.18889685E+03</pdfrwt>
<pdfrwt beam="2">  1       -2 0.11797842E-02 0.18889685E+03</pdfrwt>
<totfact> 0.34250068E+04</totfact>
</mgrwt>
</event>
<event>
 4    1  0.6086918E-004  0.3544826E+03  0.7818608E-02  0.1060790E+00
         -2   -1    0    0    0  501 -0.00000000000E+00  0.00000000000E+00  0.36162787797E+02  0.36162787887E+02  0.25500000000E-02 0. -1.
          2   -1    0    0  501    0  0.00000000000E+00 -0.00000000000E+00 -0.86869636529E+03  0.86869636529E+03  0.25500000000E-02 0.  1.
    5000001    1    1    2    0    0 -0.28399895299E+02  0.13892740995E+03 -0.22906905152E+03  0.28019459248E+03  0.77000000000E+02 0.  0.
   -5000001    1    1    2    0    0  0.28399895299E+02 -0.13892740995E+03 -0.60346452597E+03  0.62466456070E+03  0.77000000000E+02 0.  0.
<mgrwt>
<rscale>  0 0.35448262E+03</rscale>
<asrwt>0</asrwt>
<pdfrwt beam="1">  1        2 0.13364558E+00 0.35448262E+03</pdfrwt>
<pdfrwt beam="2">  1       -2 0.55635065E-02 0.35448262E+03</pdfrwt>
<totfact> 0.53191590E+03</totfact>
</mgrwt>
</event>
<event>
 4    1  0.6086918E-004  0.2388259E+03  0.7818608E-02  0.1120577E+00
          2   -1    0    0  501    0  0.00000000000E+00  0.00000000000E+00  0.16123733694E+02  0.16123733896E+02  0.25500000000E-02 0.  1.
         -2   -1    0    0    0  501 -0.00000000000E+00 -0.00000000000E+00 -0.88437659900E+03  0.88437659900E+03  0.25500000000E-02 0. -1.
    5000001    1    1    2    0    0  0.85833736124E+02  0.30082193550E+02 -0.46286278141E+03  0.47795744898E+03  0.77000000000E+02 0.  0.
   -5000001    1    1    2    0    0 -0.85833736124E+02 -0.30082193550E+02 -0.40539008390E+03  0.42254288392E+03  0.77000000000E+02 0.  0.
<mgrwt>
<rscale>  0 0.23882590E+03</rscale>
<asrwt>0</asrwt>
<pdfrwt beam="1">  1        2 0.24805751E-02 0.23882590E+03</pdfrwt>
<pdfrwt beam="2">  1       -2 0.13605790E+00 0.23882590E+03</pdfrwt>
<totfact> 0.16444372E+03</totfact>
</mgrwt>
</event>
<event>
 4    1  0.6086918E-004  0.2269292E+03  0.7818608E-02  0.1128820E+00
         -2   -1    0    0    0  501 -0.00000000000E+00  0.00000000000E+00  0.61601970739E+01  0.61601976017E+01  0.25500000000E-02 0. -1.
          2   -1    0    0  501    0  0.00000000000E+00 -0.00000000000E+00 -0.20899037849E+04  0.20899037849E+04  0.25500000000E-02 0.  1.
    5000001    1    1    2    0    0 -0.66657213335E+02  0.39930424339E+02 -0.13201380679E+04  0.13246626519E+04  0.77000000000E+02 0.  0.
   -5000001    1    1    2    0    0  0.66657213335E+02 -0.39930424339E+02 -0.76360551990E+03  0.77140133063E+03  0.77000000000E+02 0.  0.
<mgrwt>
<rscale>  0 0.22692924E+03</rscale>
<asrwt>0</asrwt>
<pdfrwt beam="1">  1        2 0.32152309E+00 0.22692924E+03</pdfrwt>
<pdfrwt beam="2">  1       -2 0.94772433E-03 0.22692924E+03</pdfrwt>
<totfact> 0.15276364E+04</totfact>
</mgrwt>
</event>
<event>
 4    1  0.6086918E-004  0.3695408E+03  0.7818608E-02  0.1054869E+00
          2   -1    0    0  501    0  0.00000000000E+00  0.00000000000E+00  0.43461099486E+03  0.43461099487E+03  0.25500000000E-02 0.  1.
         -2   -1    0    0    0  501 -0.00000000000E+00 -0.00000000000E+00 -0.78553225437E+02  0.78553225478E+02  0.25500000000E-02 0. -1.
    5000001    1    1    2    0    0 -0.10165225367E+03  0.12464051265E+03  0.11081664047E+03  0.20994705493E+03  0.77000000000E+02 0.  0.
   -5000001    1    1    2    0    0  0.10165225367E+03 -0.12464051265E+03  0.24524112896E+03  0.30321716542E+03  0.77000000000E+02 0.  0.
<mgrwt>
<rscale>  0 0.36954077E+03</rscale>
<asrwt>0</asrwt>
<pdfrwt beam="1">  1        2 0.66863229E-01 0.36954077E+03</pdfrwt>
<pdfrwt beam="2">  1       -2 0.12085112E-01 0.36954077E+03</pdfrwt>
<totfact> 0.35767884E+03</totfact>
</mgrwt>
</event>
<event>
 4    1  0.6086918E-004  0.6997212E+03  0.7818608E-02  0.9717709E-01
          2   -1    0    0  501    0  0.00000000000E+00  0.00000000000E+00  0.13499637389E+04  0.13499637389E+04  0.25500000000E-02 0.  1.
         -2   -1    0    0    0  501 -0.00000000000E+00 -0.00000000000E+00 -0.90670900690E+02  0.90670900726E+02  0.25500000000E-02 0. -1.
    5000001    1    1    2    0    0  0.31327340236E+03 -0.69983167219E+02  0.39099900979E+03  0.51170997056E+03  0.77000000000E+02 0.  0.
   -5000001    1    1    2    0    0 -0.31327340236E+03  0.69983167219E+02  0.86829382838E+03  0.92892466902E+03  0.77000000000E+02 0.  0.
<mgrwt>
<rscale>  0 0.69972117E+03</rscale>
<asrwt>0</asrwt>
<pdfrwt beam="1">  1        2 0.20768672E+00 0.69972117E+03</pdfrwt>
<pdfrwt beam="2">  1       -2 0.13949370E-01 0.69972117E+03</pdfrwt>
<totfact> 0.61966244E+02</totfact>
</mgrwt>
</event>
<event>
 4    1  0.6086918E-004  0.7519977E+03  0.7818608E-02  0.9632221E-01
          2   -1    0    0  501    0  0.00000000000E+00  0.00000000000E+00  0.57583213576E+03  0.57583213576E+03  0.25500000000E-02 0.  1.
         -2   -1    0    0    0  501 -0.00000000000E+00 -0.00000000000E+00 -0.24551449916E+03  0.24551449917E+03  0.25500000000E-02 0. -1.
    5000001    1    1    2    0    0 -0.11809372308E+03 -0.28367944840E+03  0.38638649328E+03  0.49964355201E+03  0.77000000000E+02 0.  0.
   -5000001    1    1    2    0    0  0.11809372308E+03  0.28367944840E+03 -0.56068856683E+02  0.32170308293E+03  0.77000000000E+02 0.  0.
<mgrwt>
<rscale>  0 0.75199771E+03</rscale>
<asrwt>0</asrwt>
<pdfrwt beam="1">  1        2 0.88589559E-01 0.75199771E+03</pdfrwt>
<pdfrwt beam="2">  1       -2 0.37771462E-01 0.75199771E+03</pdfrwt>
<totfact> 0.34703991E+02</totfact>
</mgrwt>
</event>
<event>
 4    1  0.6086918E-004  0.3290944E+03  0.7818608E-02  0.1071538E+00
          2   -1    0    0  501    0  0.00000000000E+00  0.00000000000E+00  0.20798233842E+04  0.20798233842E+04  0.25500000000E-02 0.  1.
         -2   -1    0    0    0  501 -0.00000000000E+00 -0.00000000000E+00 -0.13018308068E+02  0.13018308318E+02  0.25500000000E-02 0. -1.
    5000001    1    1    2    0    0 -0.12495146941E+03 -0.64119254796E+02  0.12732650399E+04  0.12832992677E+04  0.77000000000E+02 0.  0.
   -5000001    1    1    2    0    0  0.12495146941E+03  0.64119254796E+02  0.79354003616E+03  0.80954242479E+03  0.77000000000E+02 0.  0.
<mgrwt>
<rscale>  0 0.32909440E+03</rscale>
<asrwt>0</asrwt>
<pdfrwt beam="1">  1        2 0.31997286E+00 0.32909440E+03</pdfrwt>
<pdfrwt beam="2">  1       -2 0.20028164E-02 0.32909440E+03</pdfrwt>
<totfact> 0.51999380E+03</totfact>
</mgrwt>
</event>
<event>
 4    1  0.6086918E-004  0.2387308E+03  0.7818608E-02  0.1120641E+00
         -2   -1    0    0    0  501 -0.00000000000E+00  0.00000000000E+00  0.57563078756E+01  0.57563084404E+01  0.25500000000E-02 0. -1.
          2   -1    0    0  501    0  0.00000000000E+00 -0.00000000000E+00 -0.24752153693E+04  0.24752153693E+04  0.25500000000E-02 0.  1.
    5000001    1    1    2    0    0  0.50100574718E+02 -0.62582373956E+02 -0.78263516348E+03  0.79048935492E+03  0.77000000000E+02 0.  0.
   -5000001    1    1    2    0    0 -0.50100574718E+02  0.62582373956E+02 -0.16868238980E+04  0.16904823229E+04  0.77000000000E+02 0.  0.
<mgrwt>
<rscale>  0 0.23873083E+03</rscale>
<asrwt>0</asrwt>
<pdfrwt beam="1">  1        2 0.38080151E+00 0.23873083E+03</pdfrwt>
<pdfrwt beam="2">  1       -2 0.88558785E-03 0.23873083E+03</pdfrwt>
<totfact> 0.10509998E+04</totfact>
</mgrwt>
</event>
<event>
 4    1  0.6086918E-004  0.1834534E+03  0.7818608E-02  0.1164502E+00
         -2   -1    0    0    0  501 -0.00000000000E+00  0.00000000000E+00  0.21102531833E+01  0.21102547240E+01  0.25500000000E-02 0. -1.
          2   -1    0    0  501    0  0.00000000000E+00 -0.00000000000E+00 -0.39870981734E+04  0.39870981734E+04  0.25500000000E-02 0.  1.
    5000001    1    1    2    0    0 -0.39264203778E+02  0.20716426820E+02 -0.14995269998E+04  0.15021588036E+04  0.77000000000E+02 0.  0.
   -5000001    1    1    2    0    0  0.39264203778E+02 -0.20716426820E+02 -0.24854609204E+04  0.24870496245E+04  0.77000000000E+02 0.  0.
<mgrwt>
<rscale>  0 0.18345342E+03</rscale>
<asrwt>0</asrwt>
<pdfrwt beam="1">  1        2 0.61339369E+00 0.18345342E+03</pdfrwt>
<pdfrwt beam="2">  1       -2 0.32465765E-03 0.18345342E+03</pdfrwt>
<totfact> 0.49956827E+03</totfact>
</mgrwt>
</event>
<event>
 4    1  0.6086918E-004  0.2562726E+03  0.7818608E-02  0.1109404E+00
          2   -1    0    0  501    0  0.00000000000E+00  0.00000000000E+00  0.22403753293E+03  0.22403753295E+03  0.25500000000E-02 0.  1.
         -2   -1    0    0    0  501 -0.00000000000E+00 -0.00000000000E+00 -0.73286421701E+02  0.73286421746E+02  0.25500000000E-02 0. -1.
    5000001    1    1    2    0    0 -0.67342033082E+02 -0.73712949539E+02  0.48884642261E+02  0.13523038341E+03  0.77000000000E+02 0.  0.
   -5000001    1    1    2    0    0  0.67342033082E+02  0.73712949539E+02  0.10186646897E+03  0.16209357128E+03  0.77000000000E+02 0.  0.
<mgrwt>
<rscale>  0 0.25627258E+03</rscale>
<asrwt>0</asrwt>
<pdfrwt beam="1">  1        2 0.34467313E-01 0.25627258E+03</pdfrwt>
<pdfrwt beam="2">  1       -2 0.11274834E-01 0.25627258E+03</pdfrwt>
<totfact> 0.81263211E+03</totfact>
</mgrwt>
</event>
<event>
 4    1  0.6086918E-004  0.2798773E+03  0.7818608E-02  0.1095756E+00
         -2   -1    0    0    0  501 -0.00000000000E+00  0.00000000000E+00  0.10460337650E+02  0.10460337961E+02  0.25500000000E-02 0. -1.
          2   -1    0    0  501    0  0.00000000000E+00 -0.00000000000E+00 -0.18721024470E+04  0.18721024470E+04  0.25500000000E-02 0.  1.
    5000001    1    1    2    0    0  0.72975222415E+02 -0.81608518929E+02 -0.65606726615E+03  0.66958090711E+03  0.77000000000E+02 0.  0.
   -5000001    1    1    2    0    0 -0.72975222415E+02  0.81608518929E+02 -0.12055748432E+04  0.12129818778E+04  0.77000000000E+02 0.  0.
<mgrwt>
<rscale>  0 0.27987729E+03</rscale>
<asrwt>0</asrwt>
<pdfrwt beam="1">  1        2 0.28801549E+00 0.27987729E+03</pdfrwt>
<pdfrwt beam="2">  1       -2 0.16092842E-02 0.27987729E+03</pdfrwt>
<totfact> 0.92331730E+03</totfact>
</mgrwt>
</event>
<event>
 4    1  0.6086918E-004  0.1643294E+03  0.7818608E-02  0.1183894E+00
         -2   -1    0    0    0  501 -0.00000000000E+00  0.00000000000E+00  0.97876345961E+01  0.97876349283E+01  0.25500000000E-02 0. -1.
          2   -1    0    0  501    0  0.00000000000E+00 -0.00000000000E+00 -0.68975169009E+03  0.68975169010E+03  0.25500000000E-02 0.  1.
    5000001    1    1    2    0    0  0.31157090325E+01  0.27514731423E+02 -0.30833450089E+03  0.31900773114E+03  0.77000000000E+02 0.  0.
   -5000001    1    1    2    0    0 -0.31157090325E+01 -0.27514731423E+02 -0.37162955460E+03  0.38053159388E+03  0.77000000000E+02 0.  0.
<mgrwt>
<rscale>  0 0.16432940E+03</rscale>
<asrwt>0</asrwt>
<pdfrwt beam="1">  1        2 0.10611561E+00 0.16432940E+03</pdfrwt>
<pdfrwt beam="2">  1       -2 0.15057905E-02 0.16432940E+03</pdfrwt>
<totfact> 0.47662459E+04</totfact>
</mgrwt>
</event>
<event>
 4    1  0.6086918E-004  0.2763244E+03  0.7818608E-02  0.1097714E+00
         -2   -1    0    0    0  501 -0.00000000000E+00  0.00000000000E+00  0.10047112355E+02  0.10047112678E+02  0.25500000000E-02 0. -1.
          2   -1    0    0  501    0  0.00000000000E+00 -0.00000000000E+00 -0.18999285135E+04  0.18999285135E+04  0.25500000000E-02 0.  1.
    5000001    1    1    2    0    0  0.75268572584E+02 -0.65105019305E+02 -0.55054180410E+03  0.56473825762E+03  0.77000000000E+02 0.  0.
   -5000001    1    1    2    0    0 -0.75268572584E+02  0.65105019305E+02 -0.13393395970E+04  0.13452373685E+04  0.77000000000E+02 0.  0.
<mgrwt>
<rscale>  0 0.27632441E+03</rscale>
<asrwt>0</asrwt>
<pdfrwt beam="1">  1        2 0.29229641E+00 0.27632441E+03</pdfrwt>
<pdfrwt beam="2">  1       -2 0.15457111E-02 0.27632441E+03</pdfrwt>
<totfact> 0.94692480E+03</totfact>
</mgrwt>
</event>
<event>
 4    1  0.6086918E-004  0.5910016E+03  0.7818608E-02  0.9924253E-01
         -2   -1    0    0    0  501 -0.00000000000E+00  0.00000000000E+00  0.93268266458E+02  0.93268266493E+02  0.25500000000E-02 0. -1.
          2   -1    0    0  501    0  0.00000000000E+00 -0.00000000000E+00 -0.93623184488E+03  0.93623184489E+03  0.25500000000E-02 0.  1.
    5000001    1    1    2    0    0  0.24459044392E+03  0.80060292759E+02 -0.20701860092E+03  0.33914574575E+03  0.77000000000E+02 0.  0.
   -5000001    1    1    2    0    0 -0.24459044392E+03 -0.80060292759E+02 -0.63594497751E+03  0.69035436563E+03  0.77000000000E+02 0.  0.
<mgrwt>
<rscale>  0 0.59100159E+03</rscale>
<asrwt>0</asrwt>
<pdfrwt beam="1">  1        2 0.14403566E+00 0.59100159E+03</pdfrwt>
<pdfrwt beam="2">  1       -2 0.14348965E-01 0.59100159E+03</pdfrwt>
<totfact> 0.10543010E+03</totfact>
</mgrwt>
</event>
<event>
 4    1  0.6086918E-004  0.2231280E+03  0.7818608E-02  0.1131572E+00
         -2   -1    0    0    0  501 -0.00000000000E+00  0.00000000000E+00  0.35509502306E+02  0.35509502398E+02  0.25500000000E-02 0. -1.
          2   -1    0    0  501    0  0.00000000000E+00 -0.00000000000E+00 -0.35051243515E+03  0.35051243516E+03  0.25500000000E-02 0.  1.
    5000001    1    1    2    0    0 -0.54523269188E+01 -0.78784489206E+02 -0.12851098672E+03  0.16935405905E+03  0.77000000000E+02 0.  0.
   -5000001    1    1    2    0    0  0.54523269188E+01  0.78784489206E+02 -0.18649194612E+03  0.21666787851E+03  0.77000000000E+02 0.  0.
<mgrwt>
<rscale>  0 0.22312796E+03</rscale>
<asrwt>0</asrwt>
<pdfrwt beam="1">  1        2 0.53924988E-01 0.22312796E+03</pdfrwt>
<pdfrwt beam="2">  1       -2 0.54630006E-02 0.22312796E+03</pdfrwt>
<totfact> 0.15425366E+04</totfact>
</mgrwt>
</event>
<event>
 4    1  0.6086918E-004  0.2867580E+03  0.7818608E-02  0.1092054E+00
         -2   -1    0    0    0  501 -0.00000000000E+00  0.00000000000E+00  0.11920018753E+03  0.11920018756E+03  0.25500000000E-02 0. -1.
          2   -1    0    0  501    0  0.00000000000E+00 -0.00000000000E+00 -0.17246228826E+03  0.17246228828E+03  0.25500000000E-02 0.  1.
    5000001    1    1    2    0    0 -0.14264425712E+02  0.10994343186E+03 -0.75805702991E+02  0.15481129370E+03  0.77000000000E+02 0.  0.
   -5000001    1    1    2    0    0  0.14264425712E+02 -0.10994343186E+03  0.22543602255E+02  0.13685118214E+03  0.77000000000E+02 0.  0.
<mgrwt>
<rscale>  0 0.28675800E+03</rscale>
<asrwt>0</asrwt>
<pdfrwt beam="1">  1        2 0.26532660E-01 0.28675800E+03</pdfrwt>
<pdfrwt beam="2">  1       -2 0.18338490E-01 0.28675800E+03</pdfrwt>
<totfact> 0.48839591E+03</totfact>
</mgrwt>
</event>
<event>
 4    1  0.6086918E-004  0.1699553E+03  0.7818608E-02  0.1177894E+00
         -2   -1    0    0    0  501 -0.00000000000E+00  0.00000000000E+00  0.52827312729E+01  0.52827318883E+01  0.25500000000E-02 0. -1.
          2   -1    0    0  501    0  0.00000000000E+00 -0.00000000000E+00 -0.13669444968E+04  0.13669444968E+04  0.25500000000E-02 0.  1.
    5000001    1    1    2    0    0 -0.27458450274E+02 -0.21947991150E+02 -0.74153143261E+03  0.74634680032E+03  0.77000000000E+02 0.  0.
   -5000001    1    1    2    0    0  0.27458450274E+02  0.21947991150E+02 -0.62013033290E+03  0.62588042835E+03  0.77000000000E+02 0.  0.
<mgrwt>
<rscale>  0 0.16995530E+03</rscale>
<asrwt>0</asrwt>
<pdfrwt beam="1">  1        2 0.21029887E+00 0.16995530E+03</pdfrwt>
<pdfrwt beam="2">  1       -2 0.81272902E-03 0.16995530E+03</pdfrwt>
<totfact> 0.44876674E+04</totfact>
</mgrwt>
</event>
<event>
 4    1  0.6086918E-004  0.3012008E+03  0.7818608E-02  0.1084642E+00
         -2   -1    0    0    0  501 -0.00000000000E+00  0.00000000000E+00  0.29858914975E+02  0.29858915084E+02  0.25500000000E-02 0. -1.
          2   -1    0    0  501    0  0.00000000000E+00 -0.00000000000E+00 -0.75958826073E+03  0.75958826073E+03  0.25500000000E-02 0.  1.
    5000001    1    1    2    0    0  0.49271131815E+02  0.11942363183E+03 -0.38547464217E+03  0.41377451350E+03  0.77000000000E+02 0.  0.
   -5000001    1    1    2    0    0 -0.49271131815E+02 -0.11942363183E+03 -0.34425470359E+03  0.37567266232E+03  0.77000000000E+02 0.  0.
<mgrwt>
<rscale>  0 0.30120081E+03</rscale>
<asrwt>0</asrwt>
<pdfrwt beam="1">  1        2 0.11685972E+00 0.30120081E+03</pdfrwt>
<pdfrwt beam="2">  1       -2 0.45936798E-02 0.30120081E+03</pdfrwt>
<totfact> 0.84453112E+03</totfact>
</mgrwt>
</event>
<event>
 4    1  0.6086918E-004  0.1037084E+04  0.7818608E-02  0.9268781E-01
         -2   -1    0    0    0  501 -0.00000000000E+00  0.00000000000E+00  0.18516179105E+03  0.18516179107E+03  0.25500000000E-02 0.  1.
          2   -1    0    0  501    0  0.00000000000E+00 -0.00000000000E+00 -0.14521678557E+04  0.14521678557E+04  0.25500000000E-02 0. -1.
    5000001    1    1    2    0    0  0.29685464756E+03 -0.32928437729E+03 -0.22666075117E+03  0.50384023165E+03  0.77000000000E+02 0.  0.
   -5000001    1    1    2    0    0 -0.29685464756E+03  0.32928437729E+03 -0.10403453135E+04  0.11334894151E+04  0.77000000000E+02 0.  0.
<mgrwt>
<rscale>  0 0.10370844E+04</rscale>
<asrwt>0</asrwt>
<pdfrwt beam="1">  1        2 0.22341043E+00 0.10370844E+04</pdfrwt>
<pdfrwt beam="2">  1       -2 0.28486430E-01 0.10370844E+04</pdfrwt>
<totfact> 0.15186692E+02</totfact>
</mgrwt>
</event>
<event>
 4    1  0.6086918E-004  0.4238146E+03  0.7818608E-02  0.1035832E+00
          2   -1    0    0  501    0  0.00000000000E+00  0.00000000000E+00  0.26584309254E+03  0.26584309255E+03  0.25500000000E-02 0.  1.
         -2   -1    0    0    0  501 -0.00000000000E+00 -0.00000000000E+00 -0.16891427689E+03  0.16891427691E+03  0.25500000000E-02 0. -1.
    5000001    1    1    2    0    0  0.43027113086E+02  0.15932599565E+03 -0.62682535217E+02  0.19259856067E+03  0.77000000000E+02 0.  0.
   -5000001    1    1    2    0    0 -0.43027113086E+02 -0.15932599565E+03  0.15961135086E+03  0.24215880879E+03  0.77000000000E+02 0.  0.
<mgrwt>
<rscale>  0 0.42381455E+03</rscale>
<asrwt>0</asrwt>
<pdfrwt beam="1">  1        2 0.40898937E-01 0.42381455E+03</pdfrwt>
<pdfrwt beam="2">  1       -2 0.25986812E-01 0.42381455E+03</pdfrwt>
<totfact> 0.16662601E+03</totfact>
</mgrwt>
</event>
<event>
 4    1  0.6086918E-004  0.2323937E+03  0.7818608E-02  0.1124966E+00
          2   -1    0    0  501    0  0.00000000000E+00  0.00000000000E+00  0.19569971221E+04  0.19569971221E+04  0.25500000000E-02 0.  1.
         -2   -1    0    0    0  501 -0.00000000000E+00 -0.00000000000E+00 -0.68991983269E+01  0.68991987981E+01  0.25500000000E-02 0. -1.
    5000001    1    1    2    0    0  0.35656724655E+02  0.71381783011E+02  0.68158218939E+03  0.69054329470E+03  0.77000000000E+02 0.  0.
   -5000001    1    1    2    0    0 -0.35656724655E+02 -0.71381783011E+02  0.12685157344E+04  0.12733530262E+04  0.77000000000E+02 0.  0.
<mgrwt>
<rscale>  0 0.23239373E+03</rscale>
<asrwt>0</asrwt>
<pdfrwt beam="1">  1        2 0.30107670E+00 0.23239373E+03</pdfrwt>
<pdfrwt beam="2">  1       -2 0.10614144E-02 0.23239373E+03</pdfrwt>
<totfact> 0.15227894E+04</totfact>
</mgrwt>
</event>
<event>
 4    1  0.6086918E-004  0.2228276E+03  0.7818608E-02  0.1131792E+00
         -2   -1    0    0    0  501 -0.00000000000E+00  0.00000000000E+00  0.71350921274E+03  0.71350921274E+03  0.25500000000E-02 0. -1.
          2   -1    0    0  501    0  0.00000000000E+00 -0.00000000000E+00 -0.17397158245E+02  0.17397158431E+02  0.25500000000E-02 0.  1.
    5000001    1    1    2    0    0 -0.59780112418E+02  0.44831959949E+02  0.24962624411E+03  0.27170908749E+03  0.77000000000E+02 0.  0.
   -5000001    1    1    2    0    0  0.59780112418E+02 -0.44831959949E+02  0.44648581039E+03  0.45919728369E+03  0.77000000000E+02 0.  0.
<mgrwt>
<rscale>  0 0.22282758E+03</rscale>
<asrwt>0</asrwt>
<pdfrwt beam="1">  1        2 0.26764861E-02 0.22282758E+03</pdfrwt>
<pdfrwt beam="2">  1       -2 0.10977064E+00 0.22282758E+03</pdfrwt>
<totfact> 0.24906542E+03</totfact>
</mgrwt>
</event>
<event>
 4    1  0.6086918E-004  0.3682604E+03  0.7818608E-02  0.1055360E+00
          2   -1    0    0  501    0  0.00000000000E+00  0.00000000000E+00  0.11120122335E+04  0.11120122335E+04  0.25500000000E-02 0.  1.
         -2   -1    0    0    0  501 -0.00000000000E+00 -0.00000000000E+00 -0.30488815156E+02  0.30488815262E+02  0.25500000000E-02 0. -1.
    5000001    1    1    2    0    0  0.15557454470E+02 -0.16431182253E+03  0.62484412235E+03  0.65084528626E+03  0.77000000000E+02 0.  0.
   -5000001    1    1    2    0    0 -0.15557454470E+02  0.16431182253E+03  0.45667929598E+03  0.49165576249E+03  0.77000000000E+02 0.  0.
<mgrwt>
<rscale>  0 0.36826043E+03</rscale>
<asrwt>0</asrwt>
<pdfrwt beam="1">  1        2 0.17107878E+00 0.36826043E+03</pdfrwt>
<pdfrwt beam="2">  1       -2 0.46905876E-02 0.36826043E+03</pdfrwt>
<totfact> 0.48712455E+03</totfact>
</mgrwt>
</event>
<event>
 4    1  0.6086918E-004  0.4098669E+03  0.7818608E-02  0.1040416E+00
          2   -1    0    0  501    0  0.00000000000E+00  0.00000000000E+00  0.37829765079E+04  0.37829765079E+04  0.25500000000E-02 0.  1.
         -2   -1    0    0    0  501 -0.00000000000E+00 -0.00000000000E+00 -0.11101767647E+02  0.11101767940E+02  0.25500000000E-02 0. -1.
    5000001    1    1    2    0    0  0.15387975160E+03 -0.80206599272E+02  0.11714995293E+04  0.11867822984E+04  0.77000000000E+02 0.  0.
   -5000001    1    1    2    0    0 -0.15387975160E+03  0.80206599272E+02  0.26003752109E+04  0.26072959774E+04  0.77000000000E+02 0.  0.
<mgrwt>
<rscale>  0 0.40986694E+03</rscale>
<asrwt>0</asrwt>
<pdfrwt beam="1">  1        2 0.58199712E+00 0.40986694E+03</pdfrwt>
<pdfrwt beam="2">  1       -2 0.17079621E-02 0.40986694E+03</pdfrwt>
<totfact> 0.61312253E+02</totfact>
</mgrwt>
</event>
<event>
 4    1  0.6086918E-004  0.3310741E+03  0.7818608E-02  0.1070663E+00
          2   -1    0    0  501    0  0.00000000000E+00  0.00000000000E+00  0.13021820924E+04  0.13021820924E+04  0.25500000000E-02 0.  1.
         -2   -1    0    0    0  501 -0.00000000000E+00 -0.00000000000E+00 -0.21043536773E+02  0.21043536927E+02  0.25500000000E-02 0. -1.
    5000001    1    1    2    0    0  0.63219507203E+02  0.12615204074E+03  0.48258459064E+03  0.50865305523E+03  0.77000000000E+02 0.  0.
   -5000001    1    1    2    0    0 -0.63219507203E+02 -0.12615204074E+03  0.79855396494E+03  0.81457257405E+03  0.77000000000E+02 0.  0.
<mgrwt>
<rscale>  0 0.33107411E+03</rscale>
<asrwt>0</asrwt>
<pdfrwt beam="1">  1        2 0.20033568E+00 0.33107411E+03</pdfrwt>
<pdfrwt beam="2">  1       -2 0.32374676E-02 0.33107411E+03</pdfrwt>
<totfact> 0.66333001E+03</totfact>
</mgrwt>
</event>
<event>
 4    1  0.6086918E-004  0.2389512E+03  0.7818608E-02  0.1120494E+00
          2   -1    0    0  501    0  0.00000000000E+00  0.00000000000E+00  0.12157201161E+04  0.12157201161E+04  0.25500000000E-02 0.  1.
         -2   -1    0    0    0  501 -0.00000000000E+00 -0.00000000000E+00 -0.11741529046E+02  0.11741529323E+02  0.25500000000E-02 0. -1.
    5000001    1    1    2    0    0  0.82836963068E+02 -0.60793042772E+01  0.79735887497E+03  0.80536271077E+03  0.77000000000E+02 0.  0.
   -5000001    1    1    2    0    0 -0.82836963068E+02  0.60793042772E+01  0.40661971211E+03  0.42209893469E+03  0.77000000000E+02 0.  0.
<mgrwt>
<rscale>  0 0.23895115E+03</rscale>
<asrwt>0</asrwt>
<pdfrwt beam="1">  1        2 0.18703383E+00 0.23895115E+03</pdfrwt>
<pdfrwt beam="2">  1       -2 0.18063894E-02 0.23895115E+03</pdfrwt>
<totfact> 0.17445631E+04</totfact>
</mgrwt>
</event>
<event>
 4    1  0.6086918E-004  0.2420292E+03  0.7818608E-02  0.1118448E+00
         -2   -1    0    0    0  501 -0.00000000000E+00  0.00000000000E+00  0.12857487650E+02  0.12857487903E+02  0.25500000000E-02 0. -1.
          2   -1    0    0  501    0  0.00000000000E+00 -0.00000000000E+00 -0.11389889885E+04  0.11389889885E+04  0.25500000000E-02 0.  1.
    5000001    1    1    2    0    0  0.26716492490E+02  0.85185394041E+02 -0.69298319749E+03  0.70294027793E+03  0.77000000000E+02 0.  0.
   -5000001    1    1    2    0    0 -0.26716492490E+02 -0.85185394041E+02 -0.43314830337E+03  0.44890619849E+03  0.77000000000E+02 0.  0.
<mgrwt>
<rscale>  0 0.24202923E+03</rscale>
<asrwt>0</asrwt>
<pdfrwt beam="1">  1        2 0.17522900E+00 0.24202923E+03</pdfrwt>
<pdfrwt beam="2">  1       -2 0.19780759E-02 0.24202923E+03</pdfrwt>
<totfact> 0.16898511E+04</totfact>
</mgrwt>
</event>
<event>
 4    1  0.6086918E-004  0.2613635E+03  0.7818608E-02  0.1106327E+00
          2   -1    0    0  501    0  0.00000000000E+00  0.00000000000E+00  0.30468104458E+04  0.30468104458E+04  0.25500000000E-02 0.  1.
         -2   -1    0    0    0  501 -0.00000000000E+00 -0.00000000000E+00 -0.56051138036E+01  0.56051143837E+01  0.25500000000E-02 0. -1.
    5000001    1    1    2    0    0  0.10415651171E+03 -0.17198967443E+02  0.15449236644E+04  0.15504394578E+04  0.77000000000E+02 0.  0.
   -5000001    1    1    2    0    0 -0.10415651171E+03  0.17198967443E+02  0.14962816676E+04  0.15019761024E+04  0.77000000000E+02 0.  0.
<mgrwt>
<rscale>  0 0.26136350E+03</rscale>
<asrwt>0</asrwt>
<pdfrwt beam="1">  1        2 0.46874066E+00 0.26136350E+03</pdfrwt>
<pdfrwt beam="2">  1       -2 0.86232416E-03 0.26136350E+03</pdfrwt>
<totfact> 0.51702171E+03</totfact>
</mgrwt>
</event>
<event>
 4    1  0.6086918E-004  0.3620192E+03  0.7818608E-02  0.1057787E+00
          2   -1    0    0  501    0  0.00000000000E+00  0.00000000000E+00  0.14271322556E+04  0.14271322556E+04  0.25500000000E-02 0.  1.
         -2   -1    0    0    0  501 -0.00000000000E+00 -0.00000000000E+00 -0.22958264475E+02  0.22958264616E+02  0.25500000000E-02 0. -1.
    5000001    1    1    2    0    0  0.59065714060E+02  0.14748921641E+03  0.86199134262E+03  0.87988630077E+03  0.77000000000E+02 0.  0.
   -5000001    1    1    2    0    0 -0.59065714060E+02 -0.14748921641E+03  0.54218264853E+03  0.57020421947E+03  0.77000000000E+02 0.  0.
<mgrwt>
<rscale>  0 0.36201923E+03</rscale>
<asrwt>0</asrwt>
<pdfrwt beam="1">  1        2 0.21955877E+00 0.36201923E+03</pdfrwt>
<pdfrwt beam="2">  1       -2 0.35320414E-02 0.36201923E+03</pdfrwt>
<totfact> 0.49675691E+03</totfact>
</mgrwt>
</event>
<event>
 4    1  0.6086918E-004  0.2089661E+03  0.7818608E-02  0.1142387E+00
          2   -1    0    0  501    0  0.00000000000E+00  0.00000000000E+00  0.40851431281E+04  0.40851431281E+04  0.25500000000E-02 0.  1.
         -2   -1    0    0    0  501 -0.00000000000E+00 -0.00000000000E+00 -0.26722937990E+01  0.26722950157E+01  0.25500000000E-02 0. -1.
    5000001    1    1    2    0    0  0.39953039788E+02  0.58219765627E+02  0.20141389789E+04  0.20168467004E+04  0.77000000000E+02 0.  0.
   -5000001    1    1    2    0    0 -0.39953039788E+02 -0.58219765627E+02  0.20683318554E+04  0.20709687228E+04  0.77000000000E+02 0.  0.
<mgrwt>
<rscale>  0 0.20896608E+03</rscale>
<asrwt>0</asrwt>
<pdfrwt beam="1">  1        2 0.62848194E+00 0.20896608E+03</pdfrwt>
<pdfrwt beam="2">  1       -2 0.41112328E-03 0.20896608E+03</pdfrwt>
<totfact> 0.29892179E+03</totfact>
</mgrwt>
</event>
<event>
 4    1  0.6086918E-004  0.2887121E+03  0.7818608E-02  0.1091024E+00
          2   -1    0    0  501    0  0.00000000000E+00  0.00000000000E+00  0.83388874866E+02  0.83388874905E+02  0.25500000000E-02 0.  1.
         -2   -1    0    0    0  501 -0.00000000000E+00 -0.00000000000E+00 -0.24989740443E+03  0.24989740444E+03  0.25500000000E-02 0. -1.
    5000001    1    1    2    0    0 -0.99530972577E+02 -0.57085273249E+02 -0.35038335141E+02  0.14255464866E+03  0.77000000000E+02 0.  0.
   -5000001    1    1    2    0    0  0.99530972577E+02  0.57085273249E+02 -0.13147019442E+03  0.19073163069E+03  0.77000000000E+02 0.  0.
<mgrwt>
<rscale>  0 0.28871206E+03</rscale>
<asrwt>0</asrwt>
<pdfrwt beam="1">  1        2 0.12829058E-01 0.28871206E+03</pdfrwt>
<pdfrwt beam="2">  1       -2 0.38445754E-01 0.28871206E+03</pdfrwt>
<totfact> 0.30202287E+03</totfact>
</mgrwt>
</event>
<event>
 4    1  0.6086918E-004  0.1681107E+03  0.7818608E-02  0.1179833E+00
          2   -1    0    0  501    0  0.00000000000E+00  0.00000000000E+00  0.40932597059E+03  0.40932597059E+03  0.25500000000E-02 0.  1.
         -2   -1    0    0    0  501 -0.00000000000E+00 -0.00000000000E+00 -0.17260815607E+02  0.17260815795E+02  0.25500000000E-02 0. -1.
    5000001    1    1    2    0    0 -0.11692190859E+02  0.31590699603E+02  0.19926284563E+03  0.21626225116E+03  0.77000000000E+02 0.  0.
   -5000001    1    1    2    0    0  0.11692190859E+02 -0.31590699603E+02  0.19280230935E+03  0.21032453523E+03  0.77000000000E+02 0.  0.
<mgrwt>
<rscale>  0 0.16811068E+03</rscale>
<asrwt>0</asrwt>
<pdfrwt beam="1">  1        2 0.62973220E-01 0.16811068E+03</pdfrwt>
<pdfrwt beam="2">  1       -2 0.26555104E-02 0.16811068E+03</pdfrwt>
<totfact> 0.37511758E+04</totfact>
</mgrwt>
</event>
<event>
 4    1  0.6086918E-004  0.2387382E+03  0.7818608E-02  0.1120636E+00
         -2   -1    0    0    0  501 -0.00000000000E+00  0.00000000000E+00  0.54867658154E+02  0.54867658214E+02  0.25500000000E-02 0. -1.
          2   -1    0    0  501    0  0.00000000000E+00 -0.00000000000E+00 -0.25969721086E+03  0.25969721088E+03  0.25500000000E-02 0.  1.
    5000001    1    1    2    0    0 -0.57019871063E+02 -0.70274148042E+02 -0.87376862038E+02  0.14749046613E+03  0.77000000000E+02 0.  0.
   -5000001    1    1    2    0    0  0.57019871063E+02  0.70274148042E+02 -0.11745269067E+03  0.16707440296E+03  0.77000000000E+02 0.  0.
<mgrwt>
<rscale>  0 0.23873816E+03</rscale>
<asrwt>0</asrwt>
<pdfrwt beam="1">  1        2 0.39953417E-01 0.23873816E+03</pdfrwt>
<pdfrwt beam="2">  1       -2 0.84411783E-02 0.23873816E+03</pdfrwt>
<totfact> 0.10920172E+04</totfact>
</mgrwt>
</event>
<event>
 4    1  0.6086918E-004  0.2652603E+03  0.7818608E-02  0.1104023E+00
         -2   -1    0    0    0  501 -0.00000000000E+00  0.00000000000E+00  0.85469671714E+02  0.85469671752E+02  0.25500000000E-02 0. -1.
          2   -1    0    0  501    0  0.00000000000E+00 -0.00000000000E+00 -0.20581282313E+03  0.20581282315E+03  0.25500000000E-02 0.  1.
    5000001    1    1    2    0    0 -0.26960484444E+02  0.23925295819E+01 -0.17496991332E+03  0.19307009734E+03  0.77000000000E+02 0.  0.
   -5000001    1    1    2    0    0  0.26960484444E+02 -0.23925295819E+01  0.54626761901E+02  0.98212397563E+02  0.77000000000E+02 0.  0.
<mgrwt>
<rscale>  0 0.26526028E+03</rscale>
<asrwt>0</asrwt>
<pdfrwt beam="1">  1        2 0.31663511E-01 0.26526028E+03</pdfrwt>
<pdfrwt beam="2">  1       -2 0.13149180E-01 0.26526028E+03</pdfrwt>
<totfact> 0.69617370E+03</totfact>
</mgrwt>
</event>
<event>
 4    1  0.6086918E-004  0.1726678E+03  0.7818608E-02  0.1175094E+00
          2   -1    0    0  501    0  0.00000000000E+00  0.00000000000E+00  0.12641696194E+04  0.12641696194E+04  0.25500000000E-02 0.  1.
         -2   -1    0    0    0  501 -0.00000000000E+00 -0.00000000000E+00 -0.58959987301E+01  0.58959992815E+01  0.25500000000E-02 0. -1.
    5000001    1    1    2    0    0  0.38751270869E+02 -0.36878439999E+01  0.65154604560E+03  0.65723398476E+03  0.77000000000E+02 0.  0.
   -5000001    1    1    2    0    0 -0.38751270869E+02  0.36878439999E+01  0.60672757510E+03  0.61283163395E+03  0.77000000000E+02 0.  0.
<mgrwt>
<rscale>  0 0.17266781E+03</rscale>
<asrwt>0</asrwt>
<pdfrwt beam="1">  1        2 0.19448776E+00 0.17266781E+03</pdfrwt>
<pdfrwt beam="2">  1       -2 0.90707618E-03 0.17266781E+03</pdfrwt>
<totfact> 0.43642614E+04</totfact>
</mgrwt>
</event>
<event>
 4    1  0.6086918E-004  0.2558216E+03  0.7818608E-02  0.1109680E+00
          2   -1    0    0  501    0  0.00000000000E+00  0.00000000000E+00  0.13041369275E+03  0.13041369277E+03  0.25500000000E-02 0.  1.
         -2   -1    0    0    0  501 -0.00000000000E+00 -0.00000000000E+00 -0.12545593326E+03  0.12545593329E+03  0.25500000000E-02 0. -1.
    5000001    1    1    2    0    0 -0.99963616435E+01 -0.85364037890E+02 -0.52715042379E+02  0.12686536921E+03  0.77000000000E+02 0.  0.
   -5000001    1    1    2    0    0  0.99963616435E+01  0.85364037890E+02  0.57672801868E+02  0.12900425685E+03  0.77000000000E+02 0.  0.
<mgrwt>
<rscale>  0 0.25582159E+03</rscale>
<asrwt>0</asrwt>
<pdfrwt beam="1">  1        2 0.20063645E-01 0.25582159E+03</pdfrwt>
<pdfrwt beam="2">  1       -2 0.19300913E-01 0.25582159E+03</pdfrwt>
<totfact> 0.61104770E+03</totfact>
</mgrwt>
</event>
<event>
 4    1  0.6086918E-004  0.1855053E+03  0.7818608E-02  0.1162579E+00
          2   -1    0    0  501    0  0.00000000000E+00  0.00000000000E+00  0.83222927046E+03  0.83222927046E+03  0.25500000000E-02 0.  1.
         -2   -1    0    0    0  501 -0.00000000000E+00 -0.00000000000E+00 -0.10337364819E+02  0.10337365134E+02  0.25500000000E-02 0. -1.
    5000001    1    1    2    0    0 -0.73662209612E+01 -0.43477488577E+02  0.53362258051E+03  0.54094973117E+03  0.77000000000E+02 0.  0.
   -5000001    1    1    2    0    0  0.73662209612E+01  0.43477488577E+02  0.28826932513E+03  0.30161690443E+03  0.77000000000E+02 0.  0.
<mgrwt>
<rscale>  0 0.18550534E+03</rscale>
<asrwt>0</asrwt>
<pdfrwt beam="1">  1        2 0.12803525E+00 0.18550534E+03</pdfrwt>
<pdfrwt beam="2">  1       -2 0.15903641E-02 0.18550534E+03</pdfrwt>
<totfact> 0.35310502E+04</totfact>
</mgrwt>
</event>
<event>
 4    1  0.6086918E-004  0.2094829E+03  0.7818608E-02  0.1141976E+00
         -2   -1    0    0    0  501 -0.00000000000E+00  0.00000000000E+00  0.47419688085E+02  0.47419688153E+02  0.25500000000E-02 0. -1.
          2   -1    0    0  501    0  0.00000000000E+00 -0.00000000000E+00 -0.23135485923E+03  0.23135485925E+03  0.25500000000E-02 0.  1.
    5000001    1    1    2    0    0 -0.37381600132E+02 -0.57984620796E+02 -0.69613149016E+02  0.12463783853E+03  0.77000000000E+02 0.  0.
   -5000001    1    1    2    0    0  0.37381600132E+02  0.57984620796E+02 -0.11432202213E+03  0.15413670887E+03  0.77000000000E+02 0.  0.
<mgrwt>
<rscale>  0 0.20948294E+03</rscale>
<asrwt>0</asrwt>
<pdfrwt beam="1">  1        2 0.35593055E-01 0.20948294E+03</pdfrwt>
<pdfrwt beam="2">  1       -2 0.72953368E-02 0.20948294E+03</pdfrwt>
<totfact> 0.15398071E+04</totfact>
</mgrwt>
</event>
<event>
 4    1  0.6086918E-004  0.2219657E+03  0.7818608E-02  0.1132426E+00
         -2   -1    0    0    0  501 -0.00000000000E+00  0.00000000000E+00  0.19964429985E+02  0.19964430148E+02  0.25500000000E-02 0. -1.
          2   -1    0    0  501    0  0.00000000000E+00 -0.00000000000E+00 -0.61695669059E+03  0.61695669060E+03  0.25500000000E-02 0.  1.
    5000001    1    1    2    0    0 -0.56989832838E+01  0.48237326088E+02 -0.11636192275E+03  0.14774442496E+03  0.77000000000E+02 0.  0.
   -5000001    1    1    2    0    0  0.56989832838E+01 -0.48237326088E+02 -0.48063033785E+03  0.48917669579E+03  0.77000000000E+02 0.  0.
<mgrwt>
<rscale>  0 0.22196566E+03</rscale>
<asrwt>0</asrwt>
<pdfrwt beam="1">  1        2 0.94916399E-01 0.22196566E+03</pdfrwt>
<pdfrwt beam="2">  1       -2 0.30714513E-02 0.22196566E+03</pdfrwt>
<totfact> 0.19580850E+04</totfact>
</mgrwt>
</event>
<event>
 4    1  0.6086918E-004  0.1984033E+03  0.7818608E-02  0.1151093E+00
         -2   -1    0    0    0  501 -0.00000000000E+00  0.00000000000E+00  0.10011183940E+02  0.10011184265E+02  0.25500000000E-02 0. -1.
          2   -1    0    0  501    0  0.00000000000E+00 -0.00000000000E+00 -0.98299717391E+03  0.98299717391E+03  0.25500000000E-02 0.  1.
    5000001    1    1    2    0    0 -0.21930026440E+01  0.61544350635E+02 -0.54119407537E+03  0.55010230282E+03  0.77000000000E+02 0.  0.
   -5000001    1    1    2    0    0  0.21930026440E+01 -0.61544350635E+02 -0.43179191460E+03  0.44290605535E+03  0.77000000000E+02 0.  0.
<mgrwt>
<rscale>  0 0.19840328E+03</rscale>
<asrwt>0</asrwt>
<pdfrwt beam="1">  1        2 0.15123026E+00 0.19840328E+03</pdfrwt>
<pdfrwt beam="2">  1       -2 0.15401829E-02 0.19840328E+03</pdfrwt>
<totfact> 0.29802453E+04</totfact>
</mgrwt>
</event>
<event>
 4    1  0.6086918E-004  0.3529672E+03  0.7818608E-02  0.1061404E+00
         -2   -1    0    0    0  501 -0.00000000000E+00  0.00000000000E+00  0.21213702630E+02  0.21213702783E+02  0.25500000000E-02 0. -1.
          2   -1    0    0  501    0  0.00000000000E+00 -0.00000000000E+00 -0.14682240163E+04  0.14682240163E+04  0.25500000000E-02 0.  1.
    5000001    1    1    2    0    0  0.55734405057E+02 -0.10491156148E+03 -0.11681789405E+04  0.11767258800E+04  0.77000000000E+02 0.  0.
   -5000001    1    1    2    0    0 -0.55734405057E+02  0.10491156148E+03 -0.27883137318E+03  0.31271183909E+03  0.77000000000E+02 0.  0.
<mgrwt>
<rscale>  0 0.35296724E+03</rscale>
<asrwt>0</asrwt>
<pdfrwt beam="1">  1        2 0.22588054E+00 0.35296724E+03</pdfrwt>
<pdfrwt beam="2">  1       -2 0.32636477E-02 0.35296724E+03</pdfrwt>
<totfact> 0.53137256E+03</totfact>
</mgrwt>
</event>
<event>
 4    1  0.6086918E-004  0.1815029E+03  0.7818608E-02  0.1166356E+00
         -2   -1    0    0    0  501 -0.00000000000E+00  0.00000000000E+00  0.30997666950E+02  0.30997667055E+02  0.25500000000E-02 0. -1.
          2   -1    0    0  501    0  0.00000000000E+00 -0.00000000000E+00 -0.26569174955E+03  0.26569174956E+03  0.25500000000E-02 0.  1.
    5000001    1    1    2    0    0  0.45706933634E+02  0.84797613874E+01 -0.97609697227E+02  0.13273162068E+03  0.77000000000E+02 0.  0.
   -5000001    1    1    2    0    0 -0.45706933634E+02 -0.84797613874E+01 -0.13708438537E+03  0.16395779594E+03  0.77000000000E+02 0.  0.
<mgrwt>
<rscale>  0 0.18150289E+03</rscale>
<asrwt>0</asrwt>
<pdfrwt beam="1">  1        2 0.40875652E-01 0.18150289E+03</pdfrwt>
<pdfrwt beam="2">  1       -2 0.47688720E-02 0.18150289E+03</pdfrwt>
<totfact> 0.25105302E+04</totfact>
</mgrwt>
</event>
<event>
 4    1  0.6086918E-004  0.2273843E+03  0.7818608E-02  0.1128494E+00
         -2   -1    0    0    0  501 -0.00000000000E+00  0.00000000000E+00  0.44356518926E+02  0.44356518999E+02  0.25500000000E-02 0. -1.
          2   -1    0    0  501    0  0.00000000000E+00 -0.00000000000E+00 -0.29140947004E+03  0.29140947005E+03  0.25500000000E-02 0.  1.
    5000001    1    1    2    0    0  0.27125705162E+02 -0.67288874297E+02 -0.62049191781E+02  0.12264867992E+03  0.77000000000E+02 0.  0.
   -5000001    1    1    2    0    0 -0.27125705162E+02  0.67288874297E+02 -0.18500375934E+03  0.21311730914E+03  0.77000000000E+02 0.  0.
<mgrwt>
<rscale>  0 0.22738434E+03</rscale>
<asrwt>0</asrwt>
<pdfrwt beam="1">  1        2 0.44832225E-01 0.22738434E+03</pdfrwt>
<pdfrwt beam="2">  1       -2 0.68240800E-02 0.22738434E+03</pdfrwt>
<totfact> 0.13390788E+04</totfact>
</mgrwt>
</event>
<event>
 4    1  0.6086918E-004  0.1720827E+03  0.7818608E-02  0.1175693E+00
         -2   -1    0    0    0  501 -0.00000000000E+00  0.00000000000E+00  0.29749447831E+01  0.29749458760E+01  0.25500000000E-02 0. -1.
          2   -1    0    0  501    0  0.00000000000E+00 -0.00000000000E+00 -0.24884860212E+04  0.24884860212E+04  0.25500000000E-02 0.  1.
    5000001    1    1    2    0    0 -0.37587048721E+02 -0.29866335823E+01 -0.13475643496E+04  0.13502889996E+04  0.77000000000E+02 0.  0.
   -5000001    1    1    2    0    0  0.37587048721E+02  0.29866335823E+01 -0.11379467268E+04  0.11411719674E+04  0.77000000000E+02 0.  0.
<mgrwt>
<rscale>  0 0.17208265E+03</rscale>
<asrwt>0</asrwt>
<pdfrwt beam="1">  1        2 0.38284234E+00 0.17208265E+03</pdfrwt>
<pdfrwt beam="2">  1       -2 0.45768589E-03 0.17208265E+03</pdfrwt>
<totfact> 0.26419480E+04</totfact>
</mgrwt>
</event>
<event>
 4    1  0.6086918E-004  0.2739215E+03  0.7818608E-02  0.1099056E+00
         -2   -1    0    0    0  501 -0.00000000000E+00  0.00000000000E+00  0.36120864097E+03  0.36120864098E+03  0.25500000000E-02 0. -1.
          2   -1    0    0  501    0  0.00000000000E+00 -0.00000000000E+00 -0.51931882131E+02  0.51931882194E+02  0.25500000000E-02 0.  1.
    5000001    1    1    2    0    0 -0.85196564925E+02  0.39095596034E+02  0.58745297347E+02  0.13478475531E+03  0.77000000000E+02 0.  0.
   -5000001    1    1    2    0    0  0.85196564925E+02 -0.39095596034E+02  0.25053146149E+03  0.27835576786E+03  0.77000000000E+02 0.  0.
<mgrwt>
<rscale>  0 0.27392148E+03</rscale>
<asrwt>0</asrwt>
<pdfrwt beam="1">  1        2 0.79895202E-02 0.27392148E+03</pdfrwt>
<pdfrwt beam="2">  1       -2 0.55570561E-01 0.27392148E+03</pdfrwt>
<totfact> 0.26310589E+03</totfact>
</mgrwt>
</event>
<event>
 4    1  0.6086918E-004  0.1762748E+03  0.7818608E-02  0.1171458E+00
          2   -1    0    0  501    0  0.00000000000E+00  0.00000000000E+00  0.31324285791E+02  0.31324285894E+02  0.25500000000E-02 0.  1.
         -2   -1    0    0    0  501 -0.00000000000E+00 -0.00000000000E+00 -0.24799288057E+03  0.24799288058E+03  0.25500000000E-02 0. -1.
    5000001    1    1    2    0    0 -0.31166190027E+02 -0.29061856179E+02 -0.10068941338E+03  0.13372838462E+03  0.77000000000E+02 0.  0.
   -5000001    1    1    2    0    0  0.31166190027E+02  0.29061856179E+02 -0.11597918140E+03  0.14558878186E+03  0.77000000000E+02 0.  0.
<mgrwt>
<rscale>  0 0.17627478E+03</rscale>
<asrwt>0</asrwt>
<pdfrwt beam="1">  1        2 0.48191211E-02 0.17627478E+03</pdfrwt>
<pdfrwt beam="2">  1       -2 0.38152750E-01 0.17627478E+03</pdfrwt>
<totfact> 0.10327846E+04</totfact>
</mgrwt>
</event>
<event>
 4    1  0.6086918E-004  0.4783510E+03  0.7818608E-02  0.1019589E+00
         -2   -1    0    0    0  501 -0.00000000000E+00  0.00000000000E+00  0.52078951788E+02  0.52078951850E+02  0.25500000000E-02 0. -1.
          2   -1    0    0  501    0  0.00000000000E+00 -0.00000000000E+00 -0.10984268026E+04  0.10984268026E+04  0.25500000000E-02 0.  1.
    5000001    1    1    2    0    0  0.16224216965E+03  0.44508325700E+02 -0.88771405425E+03  0.90679035879E+03  0.77000000000E+02 0.  0.
   -5000001    1    1    2    0    0 -0.16224216965E+03 -0.44508325700E+02 -0.15863379652E+03  0.24371539563E+03  0.77000000000E+02 0.  0.
<mgrwt>
<rscale>  0 0.47835099E+03</rscale>
<asrwt>0</asrwt>
<pdfrwt beam="1">  1        2 0.16898872E+00 0.47835099E+03</pdfrwt>
<pdfrwt beam="2">  1       -2 0.80121472E-02 0.47835099E+03</pdfrwt>
<totfact> 0.21594812E+03</totfact>
</mgrwt>
</event>
<event>
 4    1  0.6086918E-004  0.3392509E+03  0.7818608E-02  0.1067115E+00
         -2   -1    0    0    0  501 -0.00000000000E+00  0.00000000000E+00  0.69620965478E+02  0.69620965524E+02  0.25500000000E-02 0. -1.
          2   -1    0    0  501    0  0.00000000000E+00 -0.00000000000E+00 -0.41327761619E+03  0.41327761620E+03  0.25500000000E-02 0.  1.
    5000001    1    1    2    0    0 -0.49327055054E+01 -0.10748162444E+03 -0.20736100880E+02  0.13392392264E+03  0.77000000000E+02 0.  0.
   -5000001    1    1    2    0    0  0.49327055054E+01  0.10748162444E+03 -0.32292054984E+03  0.34897465908E+03  0.77000000000E+02 0.  0.
<mgrwt>
<rscale>  0 0.33925086E+03</rscale>
<asrwt>0</asrwt>
<pdfrwt beam="1">  1        2 0.63581170E-01 0.33925086E+03</pdfrwt>
<pdfrwt beam="2">  1       -2 0.10710918E-01 0.33925086E+03</pdfrwt>
<totfact> 0.45886582E+03</totfact>
</mgrwt>
</event>
<event>
 4    1  0.6086918E-004  0.4352497E+03  0.7818608E-02  0.1032214E+00
         -2   -1    0    0    0  501 -0.00000000000E+00  0.00000000000E+00  0.37727190455E+02  0.37727190542E+02  0.25500000000E-02 0. -1.
          2   -1    0    0  501    0  0.00000000000E+00 -0.00000000000E+00 -0.12553430906E+04  0.12553430906E+04  0.25500000000E-02 0.  1.
    5000001    1    1    2    0    0 -0.20193738940E+03 -0.18450088700E+02 -0.66132205584E+03  0.69598489679E+03  0.77000000000E+02 0.  0.
   -5000001    1    1    2    0    0  0.20193738940E+03  0.18450088700E+02 -0.55629384433E+03  0.59708538439E+03  0.77000000000E+02 0.  0.
<mgrwt>
<rscale>  0 0.43524967E+03</rscale>
<asrwt>0</asrwt>
<pdfrwt beam="1">  1        2 0.19312967E+00 0.43524967E+03</pdfrwt>
<pdfrwt beam="2">  1       -2 0.58041841E-02 0.43524967E+03</pdfrwt>
<totfact> 0.28987978E+03</totfact>
</mgrwt>
</event>
<event>
 4    1  0.6086918E-004  0.4987930E+03  0.7818608E-02  0.1014094E+00
          2   -1    0    0  501    0  0.00000000000E+00  0.00000000000E+00  0.66534696510E+03  0.66534696511E+03  0.25500000000E-02 0. -1.
         -2   -1    0    0    0  501 -0.00000000000E+00 -0.00000000000E+00 -0.93482967170E+02  0.93482967204E+02  0.25500000000E-02 0.  1.
    5000001    1    1    2    0    0  0.22762656916E+03 -0.62017221512E+02  0.24836963399E+03  0.35110748474E+03  0.77000000000E+02 0.  0.
   -5000001    1    1    2    0    0 -0.22762656916E+03  0.62017221512E+02  0.32349436394E+03  0.40772244757E+03  0.77000000000E+02 0.  0.
<mgrwt>
<rscale>  0 0.49879298E+03</rscale>
<asrwt>0</asrwt>
<pdfrwt beam="1">  1        2 0.10236107E+00 0.49879298E+03</pdfrwt>
<pdfrwt beam="2">  1       -2 0.14381995E-01 0.49879298E+03</pdfrwt>
<totfact> 0.16435928E+03</totfact>
</mgrwt>
</event>
<event>
 4    1  0.6086918E-004  0.2312212E+03  0.7818608E-02  0.1125783E+00
          2   -1    0    0  501    0  0.00000000000E+00  0.00000000000E+00  0.63968133014E+03  0.63968133015E+03  0.25500000000E-02 0.  1.
         -2   -1    0    0    0  501 -0.00000000000E+00 -0.00000000000E+00 -0.20894476846E+02  0.20894477001E+02  0.25500000000E-02 0. -1.
    5000001    1    1    2    0    0  0.33342083587E+02  0.60422744504E+02  0.16165537665E+03  0.19189597023E+03  0.77000000000E+02 0.  0.
   -5000001    1    1    2    0    0 -0.33342083587E+02 -0.60422744504E+02  0.45713147665E+03  0.46867983692E+03  0.77000000000E+02 0.  0.
<mgrwt>
<rscale>  0 0.23122117E+03</rscale>
<asrwt>0</asrwt>
<pdfrwt beam="1">  1        2 0.98412504E-01 0.23122117E+03</pdfrwt>
<pdfrwt beam="2">  1       -2 0.32145352E-02 0.23122117E+03</pdfrwt>
<totfact> 0.17584375E+04</totfact>
</mgrwt>
</event>
<event>
 4    1  0.6086918E-004  0.5009989E+03  0.7818608E-02  0.1013519E+00
         -2   -1    0    0    0  501 -0.00000000000E+00  0.00000000000E+00  0.12917450186E+03  0.12917450189E+03  0.25500000000E-02 0. -1.
          2   -1    0    0  501    0  0.00000000000E+00 -0.00000000000E+00 -0.48577669233E+03  0.48577669233E+03  0.25500000000E-02 0.  1.
    5000001    1    1    2    0    0 -0.23665716292E+03  0.20818688518E+02 -0.20225782191E+03  0.32136779097E+03  0.77000000000E+02 0.  0.
   -5000001    1    1    2    0    0  0.23665716292E+03 -0.20818688518E+02 -0.15434436856E+03  0.29358340324E+03  0.77000000000E+02 0.  0.
<mgrwt>
<rscale>  0 0.50099885E+03</rscale>
<asrwt>0</asrwt>
<pdfrwt beam="1">  1        2 0.74734875E-01 0.50099885E+03</pdfrwt>
<pdfrwt beam="2">  1       -2 0.19873001E-01 0.50099885E+03</pdfrwt>
<totfact> 0.13735169E+03</totfact>
</mgrwt>
</event>
<event>
 4    1  0.6086918E-004  0.2203236E+03  0.7818608E-02  0.1133642E+00
          2   -1    0    0  501    0  0.00000000000E+00  0.00000000000E+00  0.53941841515E+03  0.53941841516E+03  0.25500000000E-02 0.  1.
         -2   -1    0    0    0  501 -0.00000000000E+00 -0.00000000000E+00 -0.22497601541E+02  0.22497601685E+02  0.25500000000E-02 0. -1.
    5000001    1    1    2    0    0  0.35508103418E+02 -0.49235293312E+02  0.38653279309E+03  0.39877504893E+03  0.77000000000E+02 0.  0.
   -5000001    1    1    2    0    0 -0.35508103418E+02  0.49235293312E+02  0.13038802052E+03  0.16314096791E+03  0.77000000000E+02 0.  0.
<mgrwt>
<rscale>  0 0.22032359E+03</rscale>
<asrwt>0</asrwt>
<pdfrwt beam="1">  1        2 0.82987443E-01 0.22032359E+03</pdfrwt>
<pdfrwt beam="2">  1       -2 0.34611697E-02 0.22032359E+03</pdfrwt>
<totfact> 0.19109084E+04</totfact>
</mgrwt>
</event>
<event>
 4    1  0.6086918E-004  0.2052412E+03  0.7818608E-02  0.1145391E+00
          2   -1    0    0  501    0  0.00000000000E+00  0.00000000000E+00  0.14728036144E+04  0.14728036144E+04  0.25500000000E-02 0.  1.
         -2   -1    0    0    0  501 -0.00000000000E+00 -0.00000000000E+00 -0.71503017282E+01  0.71503021829E+01  0.25500000000E-02 0. -1.
    5000001    1    1    2    0    0 -0.14324903530E+02 -0.62133187101E+02  0.56584484503E+03  0.57460867071E+03  0.77000000000E+02 0.  0.
   -5000001    1    1    2    0    0  0.14324903530E+02  0.62133187101E+02  0.89980846761E+03  0.90534524585E+03  0.77000000000E+02 0.  0.
<mgrwt>
<rscale>  0 0.20524123E+03</rscale>
<asrwt>0</asrwt>
<pdfrwt beam="1">  1        2 0.22658557E+00 0.20524123E+03</pdfrwt>
<pdfrwt beam="2">  1       -2 0.11000445E-02 0.20524123E+03</pdfrwt>
<totfact> 0.25796885E+04</totfact>
</mgrwt>
</event>
<event>
 4    1  0.6086918E-004  0.2899543E+03  0.7818608E-02  0.1090373E+00
          2   -1    0    0  501    0  0.00000000000E+00  0.00000000000E+00  0.42423809766E+03  0.42423809766E+03  0.25500000000E-02 0.  1.
         -2   -1    0    0    0  501 -0.00000000000E+00 -0.00000000000E+00 -0.49543812517E+02  0.49543812583E+02  0.25500000000E-02 0. -1.
    5000001    1    1    2    0    0 -0.66716774551E+02 -0.10314014728E+03  0.18637385359E+03  0.23612122160E+03  0.77000000000E+02 0.  0.
   -5000001    1    1    2    0    0  0.66716774551E+02  0.10314014728E+03  0.18832043155E+03  0.23766068865E+03  0.77000000000E+02 0.  0.
<mgrwt>
<rscale>  0 0.28995429E+03</rscale>
<asrwt>0</asrwt>
<pdfrwt beam="1">  1        2 0.65267400E-01 0.28995429E+03</pdfrwt>
<pdfrwt beam="2">  1       -2 0.76221250E-02 0.28995429E+03</pdfrwt>
<totfact> 0.76042820E+03</totfact>
</mgrwt>
</event>
<event>
 4    1  0.6086918E-004  0.2359155E+03  0.7818608E-02  0.1122544E+00
         -2   -1    0    0    0  501 -0.00000000000E+00  0.00000000000E+00  0.13191860291E+02  0.13191860537E+02  0.25500000000E-02 0. -1.
          2   -1    0    0  501    0  0.00000000000E+00 -0.00000000000E+00 -0.10547435589E+04  0.10547435589E+04  0.25500000000E-02 0.  1.
    5000001    1    1    2    0    0  0.52083828856E+02  0.62000562438E+02 -0.69185155530E+03  0.70081693012E+03  0.77000000000E+02 0.  0.
   -5000001    1    1    2    0    0 -0.52083828856E+02 -0.62000562438E+02 -0.34970014331E+03  0.36711848933E+03  0.77000000000E+02 0.  0.
<mgrwt>
<rscale>  0 0.23591549E+03</rscale>
<asrwt>0</asrwt>
<pdfrwt beam="1">  1        2 0.16226817E+00 0.23591549E+03</pdfrwt>
<pdfrwt beam="2">  1       -2 0.20295178E-02 0.23591549E+03</pdfrwt>
<totfact> 0.18210743E+04</totfact>
</mgrwt>
</event>
<event>
 4    1  0.6086918E-004  0.2077071E+03  0.7818608E-02  0.1143395E+00
          2   -1    0    0  501    0  0.00000000000E+00  0.00000000000E+00  0.12047767316E+04  0.12047767316E+04  0.25500000000E-02 0.  1.
         -2   -1    0    0    0  501 -0.00000000000E+00 -0.00000000000E+00 -0.89523265146E+01  0.89523268778E+01  0.25500000000E-02 0. -1.
    5000001    1    1    2    0    0  0.30229071746E+02 -0.13266612271E+02  0.23927593929E+03  0.25351878609E+03  0.77000000000E+02 0.  0.
   -5000001    1    1    2    0    0 -0.30229071746E+02  0.13266612271E+02  0.95654846581E+03  0.96021027240E+03  0.77000000000E+02 0.  0.
<mgrwt>
<rscale>  0 0.20770705E+03</rscale>
<asrwt>0</asrwt>
<pdfrwt beam="1">  1        2 0.18535018E+00 0.20770705E+03</pdfrwt>
<pdfrwt beam="2">  1       -2 0.13772817E-02 0.20770705E+03</pdfrwt>
<totfact> 0.26091034E+04</totfact>
</mgrwt>
</event>
<event>
 4    1  0.6086918E-004  0.2754223E+03  0.7818608E-02  0.1098216E+00
         -2   -1    0    0    0  501 -0.00000000000E+00  0.00000000000E+00  0.45990729568E+02  0.45990729639E+02  0.25500000000E-02 0. -1.
          2   -1    0    0  501    0  0.00000000000E+00 -0.00000000000E+00 -0.41235178524E+03  0.41235178525E+03  0.25500000000E-02 0.  1.
    5000001    1    1    2    0    0 -0.47792448419E+02  0.79018228468E+02 -0.71455048884E+02  0.13986716043E+03  0.77000000000E+02 0.  0.
   -5000001    1    1    2    0    0  0.47792448419E+02 -0.79018228468E+02 -0.29490600679E+03  0.31847535446E+03  0.77000000000E+02 0.  0.
<mgrwt>
<rscale>  0 0.27542229E+03</rscale>
<asrwt>0</asrwt>
<pdfrwt beam="1">  1        2 0.63438734E-01 0.27542229E+03</pdfrwt>
<pdfrwt beam="2">  1       -2 0.70754971E-02 0.27542229E+03</pdfrwt>
<totfact> 0.87900789E+03</totfact>
</mgrwt>
</event>
<event>
 4    1  0.6086918E-004  0.2030567E+03  0.7818608E-02  0.1147185E+00
         -2   -1    0    0    0  501 -0.00000000000E+00  0.00000000000E+00  0.86764816898E+01  0.86764820645E+01  0.25500000000E-02 0. -1.
          2   -1    0    0  501    0  0.00000000000E+00 -0.00000000000E+00 -0.11880398798E+04  0.11880398798E+04  0.25500000000E-02 0.  1.
    5000001    1    1    2    0    0  0.18942880131E+02  0.22955899615E+02 -0.93800750097E+03  0.94163309091E+03  0.77000000000E+02 0.  0.
   -5000001    1    1    2    0    0 -0.18942880131E+02 -0.22955899615E+02 -0.24135589717E+03  0.25508327098E+03  0.77000000000E+02 0.  0.
<mgrwt>
<rscale>  0 0.20305671E+03</rscale>
<asrwt>0</asrwt>
<pdfrwt beam="1">  1        2 0.18277524E+00 0.20305671E+03</pdfrwt>
<pdfrwt beam="2">  1       -2 0.13348443E-02 0.20305671E+03</pdfrwt>
<totfact> 0.27864773E+04</totfact>
</mgrwt>
</event>
<event>
 4    1  0.6086918E-004  0.2467818E+03  0.7818608E-02  0.1115356E+00
         -2   -1    0    0    0  501 -0.00000000000E+00  0.00000000000E+00  0.21873723355E+04  0.21873723355E+04  0.25500000000E-02 0. -1.
          2   -1    0    0  501    0  0.00000000000E+00 -0.00000000000E+00 -0.69605494089E+01  0.69605498760E+01  0.25500000000E-02 0.  1.
    5000001    1    1    2    0    0  0.38992010611E+02  0.88094069946E+02  0.10553440730E+04  0.10625257900E+04  0.77000000000E+02 0.  0.
   -5000001    1    1    2    0    0 -0.38992010611E+02 -0.88094069946E+02  0.11250677131E+04  0.11318070953E+04  0.77000000000E+02 0.  0.
<mgrwt>
<rscale>  0 0.24678180E+03</rscale>
<asrwt>0</asrwt>
<pdfrwt beam="1">  1        2 0.10708526E-02 0.24678180E+03</pdfrwt>
<pdfrwt beam="2">  1       -2 0.33651920E+00 0.24678180E+03</pdfrwt>
<totfact> 0.29191260E+02</totfact>
</mgrwt>
</event>
<event>
 4    1  0.6086918E-004  0.1894230E+03  0.7818608E-02  0.1158983E+00
          2   -1    0    0  501    0  0.00000000000E+00  0.00000000000E+00  0.89393579449E+03  0.89393579449E+03  0.25500000000E-02 0.  1.
         -2   -1    0    0    0  501 -0.00000000000E+00 -0.00000000000E+00 -0.10034572307E+02  0.10034572631E+02  0.25500000000E-02 0. -1.
    5000001    1    1    2    0    0 -0.10234051563E+02 -0.54152628113E+02  0.43238163345E+03  0.44262864784E+03  0.77000000000E+02 0.  0.
   -5000001    1    1    2    0    0  0.10234051563E+02  0.54152628113E+02  0.45151958874E+03  0.46134171929E+03  0.77000000000E+02 0.  0.
<mgrwt>
<rscale>  0 0.18942295E+03</rscale>
<asrwt>0</asrwt>
<pdfrwt beam="1">  1        2 0.13752864E+00 0.18942295E+03</pdfrwt>
<pdfrwt beam="2">  1       -2 0.15437797E-02 0.18942295E+03</pdfrwt>
<totfact> 0.33654204E+04</totfact>
</mgrwt>
</event>
<event>
 4    1  0.6086918E-004  0.3863962E+03  0.7818608E-02  0.1048595E+00
          2   -1    0    0  501    0  0.00000000000E+00  0.00000000000E+00  0.22359596976E+03  0.22359596978E+03  0.25500000000E-02 0.  1.
         -2   -1    0    0    0  501 -0.00000000000E+00 -0.00000000000E+00 -0.16693280741E+03  0.16693280743E+03  0.25500000000E-02 0. -1.
    5000001    1    1    2    0    0 -0.62855278952E+02 -0.11814196305E+03 -0.89049229469E+02  0.17823320340E+03  0.77000000000E+02 0.  0.
   -5000001    1    1    2    0    0  0.62855278952E+02  0.11814196305E+03  0.14571239182E+03  0.21229557380E+03  0.77000000000E+02 0.  0.
<mgrwt>
<rscale>  0 0.38639619E+03</rscale>
<asrwt>0</asrwt>
<pdfrwt beam="1">  1        2 0.34399380E-01 0.38639619E+03</pdfrwt>
<pdfrwt beam="2">  1       -2 0.25681970E-01 0.38639619E+03</pdfrwt>
<totfact> 0.20552820E+03</totfact>
</mgrwt>
</event>
<event>
 4    1  0.6086918E-004  0.3770039E+03  0.7818608E-02  0.1052047E+00
         -2   -1    0    0    0  501 -0.00000000000E+00  0.00000000000E+00  0.12441780073E+02  0.12441780335E+02  0.25500000000E-02 0. -1.
          2   -1    0    0  501    0  0.00000000000E+00 -0.00000000000E+00 -0.28559412920E+04  0.28559412920E+04  0.25500000000E-02 0.  1.
    5000001    1    1    2    0    0  0.13421541212E+03 -0.10201651477E+03 -0.11600787107E+04  0.11747905180E+04  0.77000000000E+02 0.  0.
   -5000001    1    1    2    0    0 -0.13421541212E+03  0.10201651477E+03 -0.16834208013E+04  0.16935925544E+04  0.77000000000E+02 0.  0.
<mgrwt>
<rscale>  0 0.37700395E+03</rscale>
<asrwt>0</asrwt>
<pdfrwt beam="1">  1        2 0.43937506E+00 0.37700395E+03</pdfrwt>
<pdfrwt beam="2">  1       -2 0.19141223E-02 0.37700395E+03</pdfrwt>
<totfact> 0.20636804E+03</totfact>
</mgrwt>
</event>
<event>
 4    1  0.6086918E-004  0.2391989E+03  0.7818608E-02  0.1120328E+00
          2   -1    0    0  501    0  0.00000000000E+00  0.00000000000E+00  0.53028827709E+03  0.53028827709E+03  0.25500000000E-02 0.  1.
         -2   -1    0    0    0  501 -0.00000000000E+00 -0.00000000000E+00 -0.26974053895E+02  0.26974054015E+02  0.25500000000E-02 0. -1.
    5000001    1    1    2    0    0  0.72826024708E+01 -0.80596242175E+02  0.15209851056E+03  0.18871075080E+03  0.77000000000E+02 0.  0.
   -5000001    1    1    2    0    0 -0.72826024708E+01  0.80596242175E+02  0.35121571263E+03  0.36855158031E+03  0.77000000000E+02 0.  0.
<mgrwt>
<rscale>  0 0.23919887E+03</rscale>
<asrwt>0</asrwt>
<pdfrwt beam="1">  1        2 0.81582802E-01 0.23919887E+03</pdfrwt>
<pdfrwt beam="2">  1       -2 0.41498550E-02 0.23919887E+03</pdfrwt>
<totfact> 0.14918334E+04</totfact>
</mgrwt>
</event>
<event>
 4    1  0.6086918E-004  0.3064678E+03  0.7818608E-02  0.1082051E+00
          2   -1    0    0  501    0  0.00000000000E+00  0.00000000000E+00  0.99052265823E+03  0.99052265823E+03  0.25500000000E-02 0.  1.
         -2   -1    0    0    0  501 -0.00000000000E+00 -0.00000000000E+00 -0.23705289845E+02  0.23705289982E+02  0.25500000000E-02 0. -1.
    5000001    1    1    2    0    0 -0.12280662307E+03 -0.40535142984E+02  0.38823435016E+03  0.41638861072E+03  0.77000000000E+02 0.  0.
   -5000001    1    1    2    0    0  0.12280662307E+03  0.40535142984E+02  0.57858301822E+03  0.59783933750E+03  0.77000000000E+02 0.  0.
<mgrwt>
<rscale>  0 0.30646779E+03</rscale>
<asrwt>0</asrwt>
<pdfrwt beam="1">  1        2 0.15238811E+00 0.30646779E+03</pdfrwt>
<pdfrwt beam="2">  1       -2 0.36469674E-02 0.30646779E+03</pdfrwt>
<totfact> 0.84211483E+03</totfact>
</mgrwt>
</event>
<event>
 4    1  0.6086918E-004  0.3055055E+03  0.7818608E-02  0.1082520E+00
         -2   -1    0    0    0  501 -0.00000000000E+00  0.00000000000E+00  0.88753835465E+01  0.88753839129E+01  0.25500000000E-02 0. -1.
          2   -1    0    0  501    0  0.00000000000E+00 -0.00000000000E+00 -0.26290018724E+04  0.26290018724E+04  0.25500000000E-02 0.  1.
    5000001    1    1    2    0    0 -0.10388880002E+03  0.80321965884E+02 -0.14192472660E+04  0.14273879301E+04  0.77000000000E+02 0.  0.
   -5000001    1    1    2    0    0  0.10388880002E+03 -0.80321965884E+02 -0.12008792228E+04  0.12104893261E+04  0.77000000000E+02 0.  0.
<mgrwt>
<rscale>  0 0.30550549E+03</rscale>
<asrwt>0</asrwt>
<pdfrwt beam="1">  1        2 0.40446121E+00 0.30550549E+03</pdfrwt>
<pdfrwt beam="2">  1       -2 0.13654457E-02 0.30550549E+03</pdfrwt>
<totfact> 0.46015391E+03</totfact>
</mgrwt>
</event>
<event>
 4    1  0.6086918E-004  0.2930253E+03  0.7818608E-02  0.1088780E+00
          2   -1    0    0  501    0  0.00000000000E+00  0.00000000000E+00  0.51733206248E+02  0.51733206311E+02  0.25500000000E-02 0.  1.
         -2   -1    0    0    0  501 -0.00000000000E+00 -0.00000000000E+00 -0.41493563493E+03  0.41493563494E+03  0.25500000000E-02 0. -1.
    5000001    1    1    2    0    0  0.63063635770E+02 -0.79859509568E+02 -0.29624979445E+03  0.32256395356E+03  0.77000000000E+02 0.  0.
   -5000001    1    1    2    0    0 -0.63063635770E+02  0.79859509568E+02 -0.66952634234E+02  0.14410488769E+03  0.77000000000E+02 0.  0.
<mgrwt>
<rscale>  0 0.29302526E+03</rscale>
<asrwt>0</asrwt>
<pdfrwt beam="1">  1        2 0.79589551E-02 0.29302526E+03</pdfrwt>
<pdfrwt beam="2">  1       -2 0.63836249E-01 0.29302526E+03</pdfrwt>
<totfact> 0.19878263E+03</totfact>
</mgrwt>
</event>
<event>
 4    1  0.6086918E-004  0.2696656E+03  0.7818608E-02  0.1101471E+00
         -2   -1    0    0    0  501 -0.00000000000E+00  0.00000000000E+00  0.65609807901E+01  0.65609812856E+01  0.25500000000E-02 0. -1.
          2   -1    0    0  501    0  0.00000000000E+00 -0.00000000000E+00 -0.27709097536E+04  0.27709097536E+04  0.25500000000E-02 0.  1.
    5000001    1    1    2    0    0 -0.10916421574E+03  0.18119175541E+02 -0.13574640878E+04  0.13641418109E+04  0.77000000000E+02 0.  0.
   -5000001    1    1    2    0    0  0.10916421574E+03 -0.18119175541E+02 -0.14068846849E+04  0.14133289239E+04  0.77000000000E+02 0.  0.
<mgrwt>
<rscale>  0 0.26966562E+03</rscale>
<asrwt>0</asrwt>
<pdfrwt beam="1">  1        2 0.42629287E+00 0.26966562E+03</pdfrwt>
<pdfrwt beam="2">  1       -2 0.10093839E-02 0.26966562E+03</pdfrwt>
<totfact> 0.59552263E+03</totfact>
</mgrwt>
</event>
<event>
 4    1  0.6086918E-004  0.2170786E+03  0.7818608E-02  0.1136080E+00
         -2   -1    0    0    0  501 -0.00000000000E+00  0.00000000000E+00  0.54585019231E+01  0.54585025187E+01  0.25500000000E-02 0. -1.
          2   -1    0    0  501    0  0.00000000000E+00 -0.00000000000E+00 -0.21582438987E+04  0.21582438987E+04  0.25500000000E-02 0.  1.
    5000001    1    1    2    0    0  0.66530772129E+02  0.31977908336E+01 -0.14513578518E+04  0.14549244598E+04  0.77000000000E+02 0.  0.
   -5000001    1    1    2    0    0 -0.66530772129E+02 -0.31977908336E+01 -0.70142754493E+03  0.70877794146E+03  0.77000000000E+02 0.  0.
<mgrwt>
<rscale>  0 0.21707860E+03</rscale>
<asrwt>0</asrwt>
<pdfrwt beam="1">  1        2 0.33203684E+00 0.21707860E+03</pdfrwt>
<pdfrwt beam="2">  1       -2 0.83977129E-03 0.21707860E+03</pdfrwt>
<totfact> 0.16726846E+04</totfact>
</mgrwt>
</event>
<event>
 4    1  0.6086918E-004  0.2372098E+03  0.7818608E-02  0.1121666E+00
         -2   -1    0    0    0  501 -0.00000000000E+00  0.00000000000E+00  0.99992210788E+02  0.99992210821E+02  0.25500000000E-02 0. -1.
          2   -1    0    0  501    0  0.00000000000E+00 -0.00000000000E+00 -0.14068212656E+03  0.14068212659E+03  0.25500000000E-02 0.  1.
    5000001    1    1    2    0    0 -0.30725514526E+02 -0.68130131579E+02  0.30913662406E+02  0.11167106427E+03  0.77000000000E+02 0.  0.
   -5000001    1    1    2    0    0  0.30725514526E+02  0.68130131579E+02 -0.71603578182E+02  0.12900327314E+03  0.77000000000E+02 0.  0.
<mgrwt>
<rscale>  0 0.23720975E+03</rscale>
<asrwt>0</asrwt>
<pdfrwt beam="1">  1        2 0.21643404E-01 0.23720975E+03</pdfrwt>
<pdfrwt beam="2">  1       -2 0.15383417E-01 0.23720975E+03</pdfrwt>
<totfact> 0.81713595E+03</totfact>
</mgrwt>
</event>
<event>
 4    1  0.6086918E-004  0.2872659E+03  0.7818608E-02  0.1091785E+00
         -2   -1    0    0    0  501 -0.00000000000E+00  0.00000000000E+00  0.23090655144E+03  0.23090655145E+03  0.25500000000E-02 0. -1.
          2   -1    0    0  501    0  0.00000000000E+00 -0.00000000000E+00 -0.89345358993E+02  0.89345359029E+02  0.25500000000E-02 0.  1.
    5000001    1    1    2    0    0 -0.11036357806E+03 -0.45183351044E+02  0.95199492853E+02  0.17091985845E+03  0.77000000000E+02 0.  0.
   -5000001    1    1    2    0    0  0.11036357806E+03  0.45183351044E+02  0.46361699590E+02  0.14933205203E+03  0.77000000000E+02 0.  0.
<mgrwt>
<rscale>  0 0.28726593E+03</rscale>
<asrwt>0</asrwt>
<pdfrwt beam="1">  1        2 0.13745440E-01 0.28726593E+03</pdfrwt>
<pdfrwt beam="2">  1       -2 0.35524084E-01 0.28726593E+03</pdfrwt>
<totfact> 0.32253360E+03</totfact>
</mgrwt>
</event>
<event>
 4    1  0.6086918E-004  0.1926441E+03  0.7818608E-02  0.1156098E+00
          2   -1    0    0  501    0  0.00000000000E+00  0.00000000000E+00  0.91220428205E+03  0.91220428205E+03  0.25500000000E-02 0.  1.
         -2   -1    0    0    0  501 -0.00000000000E+00 -0.00000000000E+00 -0.10170899166E+02  0.10170899486E+02  0.25500000000E-02 0. -1.
    5000001    1    1    2    0    0 -0.36701642615E+02  0.43025795754E+02  0.50979544803E+03  0.51867005746E+03  0.77000000000E+02 0.  0.
   -5000001    1    1    2    0    0  0.36701642615E+02 -0.43025795754E+02  0.39223793485E+03  0.40370512408E+03  0.77000000000E+02 0.  0.
<mgrwt>
<rscale>  0 0.19264411E+03</rscale>
<asrwt>0</asrwt>
<pdfrwt beam="1">  1        2 0.14033912E+00 0.19264411E+03</pdfrwt>
<pdfrwt beam="2">  1       -2 0.15647538E-02 0.19264411E+03</pdfrwt>
<totfact> 0.32167966E+04</totfact>
</mgrwt>
</event>
<event>
 4    1  0.6086918E-004  0.2910211E+03  0.7818608E-02  0.1089817E+00
         -2   -1    0    0    0  501 -0.00000000000E+00  0.00000000000E+00  0.31706386528E+03  0.31706386529E+03  0.25500000000E-02 0.  1.
          2   -1    0    0  501    0  0.00000000000E+00 -0.00000000000E+00 -0.66779343304E+02  0.66779343353E+02  0.25500000000E-02 0. -1.
    5000001    1    1    2    0    0 -0.11875930900E+03 -0.38271173511E+00  0.80601522927E+02  0.16287886738E+03  0.77000000000E+02 0.  0.
   -5000001    1    1    2    0    0  0.11875930900E+03  0.38271173511E+00  0.16968299905E+03  0.22096434126E+03  0.77000000000E+02 0.  0.
<mgrwt>
<rscale>  0 0.29102108E+03</rscale>
<asrwt>0</asrwt>
<pdfrwt beam="1">  1        2 0.10273745E-01 0.29102108E+03</pdfrwt>
<pdfrwt beam="2">  1       -2 0.48779056E-01 0.29102108E+03</pdfrwt>
<totfact> 0.24979478E+03</totfact>
</mgrwt>
</event>
<event>
 4    1  0.6086918E-004  0.2231582E+03  0.7818608E-02  0.1131550E+00
          2   -1    0    0  501    0  0.00000000000E+00  0.00000000000E+00  0.18956886916E+03  0.18956886918E+03  0.25500000000E-02 0.  1.
         -2   -1    0    0    0  501 -0.00000000000E+00 -0.00000000000E+00 -0.65674809627E+02  0.65674809677E+02  0.25500000000E-02 0. -1.
    5000001    1    1    2    0    0 -0.30074418464E+02 -0.56100764807E+02  0.11878182711E+03  0.15520917792E+03  0.77000000000E+02 0.  0.
   -5000001    1    1    2    0    0  0.30074418464E+02  0.56100764807E+02  0.51122324240E+01  0.10003450094E+03  0.77000000000E+02 0.  0.
<mgrwt>
<rscale>  0 0.22315823E+03</rscale>
<asrwt>0</asrwt>
<pdfrwt beam="1">  1        2 0.29164441E-01 0.22315823E+03</pdfrwt>
<pdfrwt beam="2">  1       -2 0.10103817E-01 0.22315823E+03</pdfrwt>
<totfact> 0.11531962E+04</totfact>
</mgrwt>
</event>
<event>
 4    1  0.6086918E-004  0.2738414E+03  0.7818608E-02  0.1099101E+00
          2   -1    0    0  501    0  0.00000000000E+00  0.00000000000E+00  0.33169123366E+03  0.33169123367E+03  0.25500000000E-02 0.  1.
         -2   -1    0    0    0  501 -0.00000000000E+00 -0.00000000000E+00 -0.56520271271E+02  0.56520271328E+02  0.25500000000E-02 0. -1.
    5000001    1    1    2    0    0 -0.54642927884E+02 -0.88009644454E+02  0.20234484439E+03  0.24000829806E+03  0.77000000000E+02 0.  0.
   -5000001    1    1    2    0    0  0.54642927884E+02  0.88009644454E+02  0.72826117995E+02  0.14820320694E+03  0.77000000000E+02 0.  0.
<mgrwt>
<rscale>  0 0.27384140E+03</rscale>
<asrwt>0</asrwt>
<pdfrwt beam="1">  1        2 0.51029419E-01 0.27384140E+03</pdfrwt>
<pdfrwt beam="2">  1       -2 0.86954266E-02 0.27384140E+03</pdfrwt>
<totfact> 0.80632910E+03</totfact>
</mgrwt>
</event>
<event>
 4    1  0.6086918E-004  0.3391562E+03  0.7818608E-02  0.1067156E+00
          2   -1    0    0  501    0  0.00000000000E+00  0.00000000000E+00  0.20063043665E+04  0.20063043665E+04  0.25500000000E-02 0.  1.
         -2   -1    0    0    0  501 -0.00000000000E+00 -0.00000000000E+00 -0.14333182951E+02  0.14333183177E+02  0.25500000000E-02 0. -1.
    5000001    1    1    2    0    0  0.56925297089E+02 -0.13838852647E+03  0.11203680799E+04  0.11329366744E+04  0.77000000000E+02 0.  0.
   -5000001    1    1    2    0    0 -0.56925297089E+02  0.13838852647E+03  0.87160310364E+03  0.88770087529E+03  0.77000000000E+02 0.  0.
<mgrwt>
<rscale>  0 0.33915618E+03</rscale>
<asrwt>0</asrwt>
<pdfrwt beam="1">  1        2 0.30866210E+00 0.33915618E+03</pdfrwt>
<pdfrwt beam="2">  1       -2 0.22051058E-02 0.33915618E+03</pdfrwt>
<totfact> 0.49320394E+03</totfact>
</mgrwt>
</event>
<event>
 4    1  0.6086918E-004  0.5919935E+03  0.7818608E-02  0.9922158E-01
         -2   -1    0    0    0  501 -0.00000000000E+00  0.00000000000E+00  0.79216392692E+03  0.79216392693E+03  0.25500000000E-02 0. -1.
          2   -1    0    0  501    0  0.00000000000E+00 -0.00000000000E+00 -0.11060092411E+03  0.11060092413E+03  0.25500000000E-02 0.  1.
    5000001    1    1    2    0    0 -0.71718626194E+02 -0.27347121217E+03  0.27689693606E+03  0.40315130960E+03  0.77000000000E+02 0.  0.
   -5000001    1    1    2    0    0  0.71718626194E+02  0.27347121217E+03  0.40466606676E+03  0.49961354146E+03  0.77000000000E+02 0.  0.
<mgrwt>
<rscale>  0 0.59199345E+03</rscale>
<asrwt>0</asrwt>
<pdfrwt beam="1">  1        2 0.17015527E-01 0.59199345E+03</pdfrwt>
<pdfrwt beam="2">  1       -2 0.12187138E+00 0.59199345E+03</pdfrwt>
<totfact> 0.17835000E+02</totfact>
</mgrwt>
</event>
<event>
 4    1  0.6086918E-004  0.7464904E+03  0.7818608E-02  0.9640873E-01
          2   -1    0    0  501    0  0.00000000000E+00  0.00000000000E+00  0.15355337261E+03  0.15355337263E+03  0.25500000000E-02 0.  1.
         -2   -1    0    0    0  501 -0.00000000000E+00 -0.00000000000E+00 -0.90725434616E+03  0.90725434617E+03  0.25500000000E-02 0. -1.
    5000001    1    1    2    0    0 -0.18866234527E+03  0.19940010841E+03 -0.34528090906E+02  0.28718473640E+03  0.77000000000E+02 0.  0.
   -5000001    1    1    2    0    0  0.18866234527E+03 -0.19940010841E+03 -0.71917288265E+03  0.77362298240E+03  0.77000000000E+02 0.  0.
<mgrwt>
<rscale>  0 0.74649036E+03</rscale>
<asrwt>0</asrwt>
<pdfrwt beam="1">  1        2 0.23623596E-01 0.74649036E+03</pdfrwt>
<pdfrwt beam="2">  1       -2 0.13957759E+00 0.74649036E+03</pdfrwt>
<totfact> 0.85561590E+01</totfact>
</mgrwt>
</event>
<event>
 4    1  0.6086918E-004  0.2516438E+03  0.7818608E-02  0.1112270E+00
          2   -1    0    0  501    0  0.00000000000E+00  0.00000000000E+00  0.89460852849E+03  0.89460852850E+03  0.25500000000E-02 0.  1.
         -2   -1    0    0    0  501 -0.00000000000E+00 -0.00000000000E+00 -0.17696179406E+02  0.17696179589E+02  0.25500000000E-02 0. -1.
    5000001    1    1    2    0    0 -0.28151077251E+02 -0.54263625383E+02  0.72311504849E+03  0.72976804366E+03  0.77000000000E+02 0.  0.
   -5000001    1    1    2    0    0  0.28151077251E+02  0.54263625383E+02  0.15379730060E+03  0.18253666443E+03  0.77000000000E+02 0.  0.
<mgrwt>
<rscale>  0 0.25164382E+03</rscale>
<asrwt>0</asrwt>
<pdfrwt beam="1">  1        2 0.13763204E+00 0.25164382E+03</pdfrwt>
<pdfrwt beam="2">  1       -2 0.27224900E-02 0.25164382E+03</pdfrwt>
<totfact> 0.14879148E+04</totfact>
</mgrwt>
</event>
<event>
 4    1  0.6086918E-004  0.2149302E+03  0.7818608E-02  0.1137720E+00
          2   -1    0    0  501    0  0.00000000000E+00  0.00000000000E+00  0.33524920339E+03  0.33524920340E+03  0.25500000000E-02 0.  1.
         -2   -1    0    0    0  501 -0.00000000000E+00 -0.00000000000E+00 -0.34448232593E+02  0.34448232687E+02  0.25500000000E-02 0. -1.
    5000001    1    1    2    0    0  0.63597137372E+02 -0.12084505484E+02  0.21542575098E+03  0.23775593650E+03  0.77000000000E+02 0.  0.
   -5000001    1    1    2    0    0 -0.63597137372E+02  0.12084505484E+02  0.85375219813E+02  0.13194149959E+03  0.77000000000E+02 0.  0.
<mgrwt>
<rscale>  0 0.21493015E+03</rscale>
<asrwt>0</asrwt>
<pdfrwt beam="1">  1        2 0.51576800E-01 0.21493015E+03</pdfrwt>
<pdfrwt beam="2">  1       -2 0.52997282E-02 0.21493015E+03</pdfrwt>
<totfact> 0.16903823E+04</totfact>
</mgrwt>
</event>
<event>
 4    1  0.6086918E-004  0.2974861E+03  0.7818608E-02  0.1086504E+00
          2   -1    0    0  501    0  0.00000000000E+00  0.00000000000E+00  0.71082034426E+02  0.71082034472E+02  0.25500000000E-02 0.  1.
         -2   -1    0    0    0  501 -0.00000000000E+00 -0.00000000000E+00 -0.31125304153E+03  0.31125304154E+03  0.25500000000E-02 0. -1.
    5000001    1    1    2    0    0  0.20011496258E+02  0.11788782974E+03 -0.64100952135E+02  0.15599978349E+03  0.77000000000E+02 0.  0.
   -5000001    1    1    2    0    0 -0.20011496258E+02 -0.11788782974E+03 -0.17607005497E+03  0.22633529252E+03  0.77000000000E+02 0.  0.
<mgrwt>
<rscale>  0 0.29748613E+03</rscale>
<asrwt>0</asrwt>
<pdfrwt beam="1">  1        2 0.10935698E-01 0.29748613E+03</pdfrwt>
<pdfrwt beam="2">  1       -2 0.47885082E-01 0.29748613E+03</pdfrwt>
<totfact> 0.23999644E+03</totfact>
</mgrwt>
</event>
<event>
 4    1  0.6086918E-004  0.2472861E+03  0.7818608E-02  0.1115032E+00
          2   -1    0    0  501    0  0.00000000000E+00  0.00000000000E+00  0.81663657132E+03  0.81663657133E+03  0.25500000000E-02 0.  1.
         -2   -1    0    0    0  501 -0.00000000000E+00 -0.00000000000E+00 -0.18720209639E+02  0.18720209813E+02  0.25500000000E-02 0. -1.
    5000001    1    1    2    0    0 -0.41619045508E+02 -0.36129518038E+02  0.66753547031E+03  0.67421813320E+03  0.77000000000E+02 0.  0.
   -5000001    1    1    2    0    0  0.41619045508E+02  0.36129518038E+02  0.13038089138E+03  0.16113864794E+03  0.77000000000E+02 0.  0.
<mgrwt>
<rscale>  0 0.24728613E+03</rscale>
<asrwt>0</asrwt>
<pdfrwt beam="1">  1        2 0.12563638E+00 0.24728613E+03</pdfrwt>
<pdfrwt beam="2">  1       -2 0.28800327E-02 0.24728613E+03</pdfrwt>
<totfact> 0.15406449E+04</totfact>
</mgrwt>
</event>
<event>
 4    1  0.6086918E-004  0.5101781E+03  0.7818608E-02  0.1011156E+00
         -2   -1    0    0    0  501 -0.00000000000E+00  0.00000000000E+00  0.86770743531E+02  0.86770743568E+02  0.25500000000E-02 0. -1.
          2   -1    0    0  501    0  0.00000000000E+00 -0.00000000000E+00 -0.74991211573E+03  0.74991211573E+03  0.25500000000E-02 0.  1.
    5000001    1    1    2    0    0 -0.10424625781E+03  0.21283802106E+03 -0.42100799912E+03  0.48922800492E+03  0.77000000000E+02 0.  0.
   -5000001    1    1    2    0    0  0.10424625781E+03 -0.21283802106E+03 -0.24213337308E+03  0.34745485438E+03  0.77000000000E+02 0.  0.
<mgrwt>
<rscale>  0 0.51017813E+03</rscale>
<asrwt>0</asrwt>
<pdfrwt beam="1">  1        2 0.11537109E+00 0.51017813E+03</pdfrwt>
<pdfrwt beam="2">  1       -2 0.13349346E-01 0.51017813E+03</pdfrwt>
<totfact> 0.16022235E+03</totfact>
</mgrwt>
</event>
<event>
 4    1  0.6086918E-004  0.4095371E+03  0.7818608E-02  0.1040526E+00
         -2   -1    0    0    0  501 -0.00000000000E+00  0.00000000000E+00  0.13420153604E+03  0.13420153607E+03  0.25500000000E-02 0. -1.
          2   -1    0    0  501    0  0.00000000000E+00 -0.00000000000E+00 -0.31244167533E+03  0.31244167534E+03  0.25500000000E-02 0.  1.
    5000001    1    1    2    0    0 -0.11996939074E+03  0.67429888275E+02 -0.23157542313E+03  0.28017070002E+03  0.77000000000E+02 0.  0.
   -5000001    1    1    2    0    0  0.11996939074E+03 -0.67429888275E+02  0.53335283842E+02  0.16647251139E+03  0.77000000000E+02 0.  0.
<mgrwt>
<rscale>  0 0.40953707E+03</rscale>
<asrwt>0</asrwt>
<pdfrwt beam="1">  1        2 0.48067950E-01 0.40953707E+03</pdfrwt>
<pdfrwt beam="2">  1       -2 0.20646390E-01 0.40953707E+03</pdfrwt>
<totfact> 0.20948666E+03</totfact>
</mgrwt>
</event>
<event>
 4    1  0.6086918E-004  0.2165741E+03  0.7818608E-02  0.1136463E+00
         -2   -1    0    0    0  501 -0.00000000000E+00  0.00000000000E+00  0.10956170531E+02  0.10956170828E+02  0.25500000000E-02 0. -1.
          2   -1    0    0  501    0  0.00000000000E+00 -0.00000000000E+00 -0.10702718369E+04  0.10702718369E+04  0.25500000000E-02 0.  1.
    5000001    1    1    2    0    0  0.39702850891E+02 -0.63951837130E+02 -0.58678275125E+03  0.59658121912E+03  0.77000000000E+02 0.  0.
   -5000001    1    1    2    0    0 -0.39702850891E+02  0.63951837130E+02 -0.47253291513E+03  0.48464678862E+03  0.77000000000E+02 0.  0.
<mgrwt>
<rscale>  0 0.21657406E+03</rscale>
<asrwt>0</asrwt>
<pdfrwt beam="1">  1        2 0.16465712E+00 0.21657406E+03</pdfrwt>
<pdfrwt beam="2">  1       -2 0.16855656E-02 0.21657406E+03</pdfrwt>
<totfact> 0.23291861E+04</totfact>
</mgrwt>
</event>
<event>
 4    1  0.6086918E-004  0.2338393E+03  0.7818608E-02  0.1123966E+00
         -2   -1    0    0    0  501 -0.00000000000E+00  0.00000000000E+00  0.62021770022E+01  0.62021775264E+01  0.25500000000E-02 0. -1.
          2   -1    0    0  501    0  0.00000000000E+00 -0.00000000000E+00 -0.22040981350E+04  0.22040981350E+04  0.25500000000E-02 0.  1.
    5000001    1    1    2    0    0 -0.57312014482E+02 -0.44472829998E+02 -0.62835396425E+03  0.63719714688E+03  0.77000000000E+02 0.  0.
   -5000001    1    1    2    0    0  0.57312014482E+02  0.44472829998E+02 -0.15695419938E+04  0.15731031657E+04  0.77000000000E+02 0.  0.
<mgrwt>
<rscale>  0 0.23383932E+03</rscale>
<asrwt>0</asrwt>
<pdfrwt beam="1">  1        2 0.33909140E+00 0.23383932E+03</pdfrwt>
<pdfrwt beam="2">  1       -2 0.95418288E-03 0.23383932E+03</pdfrwt>
<totfact> 0.13179386E+04</totfact>
</mgrwt>
</event>
<event>
 4    1  0.6086918E-004  0.2795183E+03  0.7818608E-02  0.1095952E+00
         -2   -1    0    0    0  501 -0.00000000000E+00  0.00000000000E+00  0.49686580636E+02  0.49686580702E+02  0.25500000000E-02 0. -1.
          2   -1    0    0  501    0  0.00000000000E+00 -0.00000000000E+00 -0.39311660343E+03  0.39311660344E+03  0.25500000000E-02 0.  1.
    5000001    1    1    2    0    0  0.85231471003E+02  0.70862374298E+02 -0.22922130409E+03  0.26600241726E+03  0.77000000000E+02 0.  0.
   -5000001    1    1    2    0    0 -0.85231471003E+02 -0.70862374298E+02 -0.11420871870E+03  0.17680076687E+03  0.77000000000E+02 0.  0.
<mgrwt>
<rscale>  0 0.27951830E+03</rscale>
<asrwt>0</asrwt>
<pdfrwt beam="1">  1        2 0.60479476E-01 0.27951830E+03</pdfrwt>
<pdfrwt beam="2">  1       -2 0.76440896E-02 0.27951830E+03</pdfrwt>
<totfact> 0.82157759E+03</totfact>
</mgrwt>
</event>
<event>
 4    1  0.6086918E-004  0.1778825E+03  0.7818608E-02  0.1169868E+00
         -2   -1    0    0    0  501 -0.00000000000E+00  0.00000000000E+00  0.20694521155E+03  0.20694521156E+03  0.25500000000E-02 0. -1.
          2   -1    0    0  501    0  0.00000000000E+00 -0.00000000000E+00 -0.38225332043E+02  0.38225332128E+02  0.25500000000E-02 0.  1.
    5000001    1    1    2    0    0  0.30980478831E+02  0.14388605424E+02  0.12370055360E+03  0.14965844111E+03  0.77000000000E+02 0.  0.
   -5000001    1    1    2    0    0 -0.30980478831E+02 -0.14388605424E+02  0.45019325908E+02  0.95512102583E+02  0.77000000000E+02 0.  0.
<mgrwt>
<rscale>  0 0.17788254E+03</rscale>
<asrwt>0</asrwt>
<pdfrwt beam="1">  1        2 0.58808204E-02 0.17788254E+03</pdfrwt>
<pdfrwt beam="2">  1       -2 0.31837724E-01 0.17788254E+03</pdfrwt>
<totfact> 0.11141155E+04</totfact>
</mgrwt>
</event>
<event>
 4    1  0.6086918E-004  0.3408080E+03  0.7818608E-02  0.1066452E+00
          2   -1    0    0  501    0  0.00000000000E+00  0.00000000000E+00  0.46162503477E+03  0.46162503478E+03  0.25500000000E-02 0.  1.
         -2   -1    0    0    0  501 -0.00000000000E+00 -0.00000000000E+00 -0.62902822581E+02  0.62902822632E+02  0.25500000000E-02 0. -1.
    5000001    1    1    2    0    0 -0.35100483005E+02 -0.14354802549E+03  0.14450366039E+03  0.22056379439E+03  0.77000000000E+02 0.  0.
   -5000001    1    1    2    0    0  0.35100483005E+02  0.14354802549E+03  0.25421855180E+03  0.30396406302E+03  0.77000000000E+02 0.  0.
<mgrwt>
<rscale>  0 0.34080797E+03</rscale>
<asrwt>0</asrwt>
<pdfrwt beam="1">  1        2 0.71019233E-01 0.34080797E+03</pdfrwt>
<pdfrwt beam="2">  1       -2 0.96773577E-02 0.34080797E+03</pdfrwt>
<totfact> 0.47765708E+03</totfact>
</mgrwt>
</event>
<event>
 4    1  0.6086918E-004  0.3295940E+03  0.7818608E-02  0.1071317E+00
         -2   -1    0    0    0  501 -0.00000000000E+00  0.00000000000E+00  0.14915281874E+02  0.14915282092E+02  0.25500000000E-02 0. -1.
          2   -1    0    0  501    0  0.00000000000E+00 -0.00000000000E+00 -0.18208203492E+04  0.18208203492E+04  0.25500000000E-02 0.  1.
    5000001    1    1    2    0    0  0.87457718012E+01  0.14202682481E+03 -0.10773950749E+04  0.10894756789E+04  0.77000000000E+02 0.  0.
   -5000001    1    1    2    0    0 -0.87457718012E+01 -0.14202682481E+03 -0.72850999246E+03  0.74625995243E+03  0.77000000000E+02 0.  0.
<mgrwt>
<rscale>  0 0.32959399E+03</rscale>
<asrwt>0</asrwt>
<pdfrwt beam="1">  1        2 0.28012603E+00 0.32959399E+03</pdfrwt>
<pdfrwt beam="2">  1       -2 0.22946602E-02 0.32959399E+03</pdfrwt>
<totfact> 0.58286114E+03</totfact>
</mgrwt>
</event>
<event>
 4    1  0.6086918E-004  0.2631517E+03  0.7818608E-02  0.1105264E+00
          2   -1    0    0  501    0  0.00000000000E+00  0.00000000000E+00  0.27282918730E+03  0.27282918732E+03  0.25500000000E-02 0.  1.
         -2   -1    0    0    0  501 -0.00000000000E+00 -0.00000000000E+00 -0.63454356173E+02  0.63454356224E+02  0.25500000000E-02 0. -1.
    5000001    1    1    2    0    0  0.60030817554E+02  0.25867295677E+01  0.21735228440E+03  0.23828849271E+03  0.77000000000E+02 0.  0.
   -5000001    1    1    2    0    0 -0.60030817554E+02 -0.25867295677E+01 -0.79774532666E+01  0.97995050827E+02  0.77000000000E+02 0.  0.
<mgrwt>
<rscale>  0 0.26315167E+03</rscale>
<asrwt>0</asrwt>
<pdfrwt beam="1">  1        2 0.41973721E-01 0.26315167E+03</pdfrwt>
<pdfrwt beam="2">  1       -2 0.97622087E-02 0.26315167E+03</pdfrwt>
<totfact> 0.82740192E+03</totfact>
</mgrwt>
</event>
<event>
 4    1  0.6086918E-004  0.1668403E+03  0.7818608E-02  0.1181183E+00
          2   -1    0    0  501    0  0.00000000000E+00  0.00000000000E+00  0.40948622030E+02  0.40948622109E+02  0.25500000000E-02 0.  1.
         -2   -1    0    0    0  501 -0.00000000000E+00 -0.00000000000E+00 -0.16994283613E+03  0.16994283615E+03  0.25500000000E-02 0. -1.
    5000001    1    1    2    0    0  0.21268012343E+02  0.98829869678E+01 -0.92188435216E+02  0.12238345218E+03  0.77000000000E+02 0.  0.
   -5000001    1    1    2    0    0 -0.21268012343E+02 -0.98829869678E+01 -0.36805778885E+02  0.88508006077E+02  0.77000000000E+02 0.  0.
<mgrwt>
<rscale>  0 0.16684034E+03</rscale>
<asrwt>0</asrwt>
<pdfrwt beam="1">  1        2 0.62997881E-02 0.16684034E+03</pdfrwt>
<pdfrwt beam="2">  1       -2 0.26145051E-01 0.16684034E+03</pdfrwt>
<totfact> 0.14435514E+04</totfact>
</mgrwt>
</event>
<event>
 4    1  0.6086918E-004  0.3045080E+03  0.7818608E-02  0.1083009E+00
         -2   -1    0    0    0  501 -0.00000000000E+00  0.00000000000E+00  0.15550657115E+03  0.15550657117E+03  0.25500000000E-02 0. -1.
          2   -1    0    0  501    0  0.00000000000E+00 -0.00000000000E+00 -0.14906950727E+03  0.14906950729E+03  0.25500000000E-02 0.  1.
    5000001    1    1    2    0    0 -0.61518849053E+02 -0.95438674761E+02 -0.62820293662E+02  0.15089234150E+03  0.77000000000E+02 0.  0.
   -5000001    1    1    2    0    0  0.61518849053E+02  0.95438674761E+02  0.69257357543E+02  0.15368373695E+03  0.77000000000E+02 0.  0.
<mgrwt>
<rscale>  0 0.30450805E+03</rscale>
<asrwt>0</asrwt>
<pdfrwt beam="1">  1        2 0.22933771E-01 0.30450805E+03</pdfrwt>
<pdfrwt beam="2">  1       -2 0.23924088E-01 0.30450805E+03</pdfrwt>
<totfact> 0.36424801E+03</totfact>
</mgrwt>
</event>
<event>
 4    1  0.6086918E-004  0.1696622E+03  0.7818608E-02  0.1178201E+00
          2   -1    0    0  501    0  0.00000000000E+00  0.00000000000E+00  0.77448165038E+03  0.77448165039E+03  0.25500000000E-02 0.  1.
         -2   -1    0    0    0  501 -0.00000000000E+00 -0.00000000000E+00 -0.92917819111E+01  0.92917822610E+01  0.25500000000E-02 0. -1.
    5000001    1    1    2    0    0  0.10526517985E+02 -0.29866138148E+02  0.45772875880E+03  0.46523908953E+03  0.77000000000E+02 0.  0.
   -5000001    1    1    2    0    0 -0.10526517985E+02  0.29866138148E+02  0.30746110967E+03  0.31853434312E+03  0.77000000000E+02 0.  0.
<mgrwt>
<rscale>  0 0.16966219E+03</rscale>
<asrwt>0</asrwt>
<pdfrwt beam="1">  1        2 0.11915101E+00 0.16966219E+03</pdfrwt>
<pdfrwt beam="2">  1       -2 0.14295051E-02 0.16966219E+03</pdfrwt>
<totfact> 0.44779290E+04</totfact>
</mgrwt>
</event>
<event>
 4    1  0.6086918E-004  0.1711794E+03  0.7818608E-02  0.1176623E+00
          2   -1    0    0  501    0  0.00000000000E+00  0.00000000000E+00  0.33068544982E+03  0.33068544983E+03  0.25500000000E-02 0.  1.
         -2   -1    0    0    0  501 -0.00000000000E+00 -0.00000000000E+00 -0.22152774952E+02  0.22152775099E+02  0.25500000000E-02 0. -1.
    5000001    1    1    2    0    0  0.31572333875E+01 -0.36804523393E+02  0.16593715079E+03  0.18662443323E+03  0.77000000000E+02 0.  0.
   -5000001    1    1    2    0    0 -0.31572333875E+01  0.36804523393E+02  0.14259552407E+03  0.16621379170E+03  0.77000000000E+02 0.  0.
<mgrwt>
<rscale>  0 0.17117944E+03</rscale>
<asrwt>0</asrwt>
<pdfrwt beam="1">  1        2 0.50874689E-01 0.17117944E+03</pdfrwt>
<pdfrwt beam="2">  1       -2 0.34081189E-02 0.17117944E+03</pdfrwt>
<totfact> 0.32669124E+04</totfact>
</mgrwt>
</event>
<event>
 4    1  0.6086918E-004  0.3901416E+03  0.7818608E-02  0.1047248E+00
          2   -1    0    0  501    0  0.00000000000E+00  0.00000000000E+00  0.23593139551E+04  0.23593139551E+04  0.25500000000E-02 0.  1.
         -2   -1    0    0    0  501 -0.00000000000E+00 -0.00000000000E+00 -0.16128675720E+02  0.16128675922E+02  0.25500000000E-02 0. -1.
    5000001    1    1    2    0    0  0.12854606641E+03 -0.12326568273E+03  0.12941383750E+04  0.13086029396E+04  0.77000000000E+02 0.  0.
   -5000001    1    1    2    0    0 -0.12854606641E+03  0.12326568273E+03  0.10490469043E+04  0.10668396914E+04  0.77000000000E+02 0.  0.
<mgrwt>
<rscale>  0 0.39014156E+03</rscale>
<asrwt>0</asrwt>
<pdfrwt beam="1">  1        2 0.36297110E+00 0.39014156E+03</pdfrwt>
<pdfrwt beam="2">  1       -2 0.24813366E-02 0.39014156E+03</pdfrwt>
<totfact> 0.26671974E+03</totfact>
</mgrwt>
</event>
<event>
 4    1  0.6086918E-004  0.1950985E+03  0.7818608E-02  0.1153942E+00
         -2   -1    0    0    0  501 -0.00000000000E+00  0.00000000000E+00  0.14123846065E+02  0.14123846296E+02  0.25500000000E-02 0. -1.
          2   -1    0    0  501    0  0.00000000000E+00 -0.00000000000E+00 -0.67374376891E+03  0.67374376891E+03  0.25500000000E-02 0.  1.
    5000001    1    1    2    0    0  0.84540255865E+01  0.48219691522E+02 -0.45144789318E+03  0.46057660541E+03  0.77000000000E+02 0.  0.
   -5000001    1    1    2    0    0 -0.84540255865E+01 -0.48219691522E+02 -0.20817202967E+03  0.22729100980E+03  0.77000000000E+02 0.  0.
<mgrwt>
<rscale>  0 0.19509847E+03</rscale>
<asrwt>0</asrwt>
<pdfrwt beam="1">  1        2 0.10365286E+00 0.19509847E+03</pdfrwt>
<pdfrwt beam="2">  1       -2 0.21728999E-02 0.19509847E+03</pdfrwt>
<totfact> 0.29154096E+04</totfact>
</mgrwt>
</event>
<event>
 4    1  0.6086918E-004  0.1828854E+03  0.7818608E-02  0.1165039E+00
          2   -1    0    0  501    0  0.00000000000E+00  0.00000000000E+00  0.25058094278E+03  0.25058094280E+03  0.25500000000E-02 0.  1.
         -2   -1    0    0    0  501 -0.00000000000E+00 -0.00000000000E+00 -0.33369531393E+02  0.33369531490E+02  0.25500000000E-02 0. -1.
    5000001    1    1    2    0    0  0.47519464558E+02 -0.10300973084E+02  0.95749995787E+02  0.13214110357E+03  0.77000000000E+02 0.  0.
   -5000001    1    1    2    0    0 -0.47519464558E+02  0.10300973084E+02  0.12146141560E+03  0.15180937072E+03  0.77000000000E+02 0.  0.
<mgrwt>
<rscale>  0 0.18288541E+03</rscale>
<asrwt>0</asrwt>
<pdfrwt beam="1">  1        2 0.38550915E-01 0.18288541E+03</pdfrwt>
<pdfrwt beam="2">  1       -2 0.51337740E-02 0.18288541E+03</pdfrwt>
<totfact> 0.23930386E+04</totfact>
</mgrwt>
</event>
<event>
 4    1  0.6086918E-004  0.1965825E+03  0.7818608E-02  0.1152655E+00
         -2   -1    0    0    0  501 -0.00000000000E+00  0.00000000000E+00  0.12263651801E+02  0.12263652066E+02  0.25500000000E-02 0. -1.
          2   -1    0    0  501    0  0.00000000000E+00 -0.00000000000E+00 -0.78778893878E+03  0.78778893878E+03  0.25500000000E-02 0.  1.
    5000001    1    1    2    0    0  0.22012122563E+02 -0.55152145677E+02 -0.44615785307E+03  0.45663127638E+03  0.77000000000E+02 0.  0.
   -5000001    1    1    2    0    0 -0.22012122563E+02  0.55152145677E+02 -0.32936743391E+03  0.34342131447E+03  0.77000000000E+02 0.  0.
<mgrwt>
<rscale>  0 0.19658250E+03</rscale>
<asrwt>0</asrwt>
<pdfrwt beam="1">  1        2 0.12119826E+00 0.19658250E+03</pdfrwt>
<pdfrwt beam="2">  1       -2 0.18867163E-02 0.19658250E+03</pdfrwt>
<totfact> 0.29640511E+04</totfact>
</mgrwt>
</event>
<event>
 4    1  0.6086918E-004  0.2961480E+03  0.7818608E-02  0.1087182E+00
         -2   -1    0    0    0  501 -0.00000000000E+00  0.00000000000E+00  0.31994619603E+02  0.31994619704E+02  0.25500000000E-02 0. -1.
          2   -1    0    0  501    0  0.00000000000E+00 -0.00000000000E+00 -0.68529970082E+03  0.68529970083E+03  0.25500000000E-02 0.  1.
    5000001    1    1    2    0    0  0.11955321730E+03  0.41034340480E+02 -0.33751535456E+03  0.36854091147E+03  0.77000000000E+02 0.  0.
   -5000001    1    1    2    0    0 -0.11955321730E+03 -0.41034340480E+02 -0.31578972666E+03  0.34875340906E+03  0.77000000000E+02 0.  0.
<mgrwt>
<rscale>  0 0.29614796E+03</rscale>
<asrwt>0</asrwt>
<pdfrwt beam="1">  1        2 0.10543071E+00 0.29614796E+03</pdfrwt>
<pdfrwt beam="2">  1       -2 0.49222497E-02 0.29614796E+03</pdfrwt>
<totfact> 0.86258322E+03</totfact>
</mgrwt>
</event>
<event>
 4    1  0.6086918E-004  0.2727323E+03  0.7818608E-02  0.1099726E+00
         -2   -1    0    0    0  501 -0.00000000000E+00  0.00000000000E+00  0.17424707966E+02  0.17424708153E+02  0.25500000000E-02 0. -1.
          2   -1    0    0  501    0  0.00000000000E+00 -0.00000000000E+00 -0.10672047604E+04  0.10672047604E+04  0.25500000000E-02 0.  1.
    5000001    1    1    2    0    0 -0.25051349405E+02  0.10064569156E+03 -0.35110327545E+03  0.37411179529E+03  0.77000000000E+02 0.  0.
   -5000001    1    1    2    0    0  0.25051349405E+02 -0.10064569156E+03 -0.69867677697E+03  0.71051767326E+03  0.77000000000E+02 0.  0.
<mgrwt>
<rscale>  0 0.27273233E+03</rscale>
<asrwt>0</asrwt>
<pdfrwt beam="1">  1        2 0.16418530E+00 0.27273233E+03</pdfrwt>
<pdfrwt beam="2">  1       -2 0.26807251E-02 0.27273233E+03</pdfrwt>
<totfact> 0.11942165E+04</totfact>
</mgrwt>
</event>
<event>
 4    1  0.6086918E-004  0.5284399E+03  0.7818608E-02  0.1006611E+00
          2   -1    0    0  501    0  0.00000000000E+00  0.00000000000E+00  0.97634390361E+02  0.97634390394E+02  0.25500000000E-02 0.  1.
         -2   -1    0    0    0  501 -0.00000000000E+00 -0.00000000000E+00 -0.71503673462E+03  0.71503673463E+03  0.25500000000E-02 0. -1.
    5000001    1    1    2    0    0 -0.86981828823E+02 -0.23541627894E+03 -0.26265458129E+03  0.37135305575E+03  0.77000000000E+02 0.  0.
   -5000001    1    1    2    0    0  0.86981828823E+02  0.23541627894E+03 -0.35474776297E+03  0.44131806928E+03  0.77000000000E+02 0.  0.
<mgrwt>
<rscale>  0 0.52843988E+03</rscale>
<asrwt>0</asrwt>
<pdfrwt beam="1">  1        2 0.15020676E-01 0.52843988E+03</pdfrwt>
<pdfrwt beam="2">  1       -2 0.11000565E+00 0.52843988E+03</pdfrwt>
<totfact> 0.26640453E+02</totfact>
</mgrwt>
</event>
<event>
 4    1  0.6086918E-004  0.2128218E+03  0.7818608E-02  0.1139351E+00
         -2   -1    0    0    0  501 -0.00000000000E+00  0.00000000000E+00  0.12224651226E+03  0.12224651229E+03  0.25500000000E-02 0. -1.
          2   -1    0    0  501    0  0.00000000000E+00 -0.00000000000E+00 -0.92626580997E+02  0.92626581032E+02  0.25500000000E-02 0.  1.
    5000001    1    1    2    0    0  0.19715629427E+02 -0.70675741219E+02  0.18083132021E+02  0.10788774770E+03  0.77000000000E+02 0.  0.
   -5000001    1    1    2    0    0 -0.19715629427E+02  0.70675741219E+02  0.11536799246E+02  0.10698534562E+03  0.77000000000E+02 0.  0.
<mgrwt>
<rscale>  0 0.21282177E+03</rscale>
<asrwt>0</asrwt>
<pdfrwt beam="1">  1        2 0.14250243E-01 0.21282177E+03</pdfrwt>
<pdfrwt beam="2">  1       -2 0.18807156E-01 0.21282177E+03</pdfrwt>
<totfact> 0.94256022E+03</totfact>
</mgrwt>
</event>
<event>
 4    1  0.6086918E-004  0.6845122E+03  0.7818608E-02  0.9744091E-01
          2   -1    0    0  501    0  0.00000000000E+00  0.00000000000E+00  0.17632046437E+03  0.17632046439E+03  0.25500000000E-02 0.  1.
         -2   -1    0    0    0  501 -0.00000000000E+00 -0.00000000000E+00 -0.66435418456E+03  0.66435418457E+03  0.25500000000E-02 0. -1.
    5000001    1    1    2    0    0  0.13608460720E+03  0.30361285178E+03 -0.21626927634E+03  0.40422912311E+03  0.77000000000E+02 0.  0.
   -5000001    1    1    2    0    0 -0.13608460720E+03 -0.30361285178E+03 -0.27176444385E+03  0.43644552584E+03  0.77000000000E+02 0.  0.
<mgrwt>
<rscale>  0 0.68451220E+03</rscale>
<asrwt>0</asrwt>
<pdfrwt beam="1">  1        2 0.27126226E-01 0.68451220E+03</pdfrwt>
<pdfrwt beam="2">  1       -2 0.10220833E+00 0.68451220E+03</pdfrwt>
<totfact> 0.15816744E+02</totfact>
</mgrwt>
</event>
<event>
 4    1  0.6086918E-004  0.1617075E+03  0.7818608E-02  0.1186782E+00
          2   -1    0    0  501    0  0.00000000000E+00  0.00000000000E+00  0.15797146886E+03  0.15797146888E+03  0.25500000000E-02 0.  1.
         -2   -1    0    0    0  501 -0.00000000000E+00 -0.00000000000E+00 -0.41382964643E+02  0.41382964722E+02  0.25500000000E-02 0. -1.
    5000001    1    1    2    0    0 -0.23549298405E+02  0.12576566723E+01  0.67199243735E+02  0.10488512532E+03  0.77000000000E+02 0.  0.
   -5000001    1    1    2    0    0  0.23549298405E+02 -0.12576566723E+01  0.49389260484E+02  0.94469308280E+02  0.77000000000E+02 0.  0.
<mgrwt>
<rscale>  0 0.16170749E+03</rscale>
<asrwt>0</asrwt>
<pdfrwt beam="1">  1        2 0.24303303E-01 0.16170749E+03</pdfrwt>
<pdfrwt beam="2">  1       -2 0.63666100E-02 0.16170749E+03</pdfrwt>
<totfact> 0.28204058E+04</totfact>
</mgrwt>
</event>
<event>
 4    1  0.6086918E-004  0.3563320E+03  0.7818608E-02  0.1060046E+00
         -2   -1    0    0    0  501 -0.00000000000E+00  0.00000000000E+00  0.21736111643E+02  0.21736111793E+02  0.25500000000E-02 0. -1.
          2   -1    0    0  501    0  0.00000000000E+00 -0.00000000000E+00 -0.14603865479E+04  0.14603865479E+04  0.25500000000E-02 0.  1.
    5000001    1    1    2    0    0  0.38893186939E+02 -0.14221586697E+03 -0.98487828315E+03  0.99882544292E+03  0.77000000000E+02 0.  0.
   -5000001    1    1    2    0    0 -0.38893186939E+02  0.14221586697E+03 -0.45377215313E+03  0.48329721679E+03  0.77000000000E+02 0.  0.
<mgrwt>
<rscale>  0 0.35633201E+03</rscale>
<asrwt>0</asrwt>
<pdfrwt beam="1">  1        2 0.22467478E+00 0.35633201E+03</pdfrwt>
<pdfrwt beam="2">  1       -2 0.33440183E-02 0.35633201E+03</pdfrwt>
<totfact> 0.51734673E+03</totfact>
</mgrwt>
</event>
<event>
 4    1  0.6086918E-004  0.1578316E+03  0.7818608E-02  0.1191167E+00
          2   -1    0    0  501    0  0.00000000000E+00  0.00000000000E+00  0.29021572421E+04  0.29021572421E+04  0.25500000000E-02 0.  1.
         -2   -1    0    0    0  501 -0.00000000000E+00 -0.00000000000E+00 -0.21458865781E+01  0.21458880932E+01  0.25500000000E-02 0. -1.
    5000001    1    1    2    0    0  0.16319467323E+02 -0.47492909372E+01  0.15076745270E+04  0.15097351954E+04  0.77000000000E+02 0.  0.
   -5000001    1    1    2    0    0 -0.16319467323E+02  0.47492909372E+01  0.13923368285E+04  0.13945679348E+04  0.77000000000E+02 0.  0.
<mgrwt>
<rscale>  0 0.15783159E+03</rscale>
<asrwt>0</asrwt>
<pdfrwt beam="1">  1        2 0.44648588E+00 0.15783159E+03</pdfrwt>
<pdfrwt beam="2">  1       -2 0.33013640E-03 0.15783159E+03</pdfrwt>
<totfact> 0.24702987E+04</totfact>
</mgrwt>
</event>
<event>
 4    1  0.6086918E-004  0.2953148E+03  0.7818608E-02  0.1087606E+00
          2   -1    0    0  501    0  0.00000000000E+00  0.00000000000E+00  0.40663782592E+03  0.40663782592E+03  0.25500000000E-02 0.  1.
         -2   -1    0    0    0  501 -0.00000000000E+00 -0.00000000000E+00 -0.53617001864E+02  0.53617001925E+02  0.25500000000E-02 0. -1.
    5000001    1    1    2    0    0 -0.80514289054E+02  0.89595081159E+02  0.11895316971E+03  0.18598033739E+03  0.77000000000E+02 0.  0.
   -5000001    1    1    2    0    0  0.80514289054E+02 -0.89595081159E+02  0.23406765434E+03  0.27427449046E+03  0.77000000000E+02 0.  0.
<mgrwt>
<rscale>  0 0.29531475E+03</rscale>
<asrwt>0</asrwt>
<pdfrwt beam="1">  1        2 0.62559666E-01 0.29531475E+03</pdfrwt>
<pdfrwt beam="2">  1       -2 0.82487695E-02 0.29531475E+03</pdfrwt>
<totfact> 0.70432894E+03</totfact>
</mgrwt>
</event>
<event>
 4    1  0.6086918E-004  0.2811003E+03  0.7818608E-02  0.1095090E+00
          2   -1    0    0  501    0  0.00000000000E+00  0.00000000000E+00  0.57447374445E+02  0.57447374501E+02  0.25500000000E-02 0.  1.
         -2   -1    0    0    0  501 -0.00000000000E+00 -0.00000000000E+00 -0.34386844829E+03  0.34386844830E+03  0.25500000000E-02 0. -1.
    5000001    1    1    2    0    0 -0.36491298227E+02  0.10647348289E+03 -0.94646517079E+02  0.16599753191E+03  0.77000000000E+02 0.  0.
   -5000001    1    1    2    0    0  0.36491298227E+02 -0.10647348289E+03 -0.19177455676E+03  0.23531829089E+03  0.77000000000E+02 0.  0.
<mgrwt>
<rscale>  0 0.28110026E+03</rscale>
<asrwt>0</asrwt>
<pdfrwt beam="1">  1        2 0.88380579E-02 0.28110026E+03</pdfrwt>
<pdfrwt beam="2">  1       -2 0.52902837E-01 0.28110026E+03</pdfrwt>
<totfact> 0.25605554E+03</totfact>
</mgrwt>
</event>
<event>
 4    1  0.6086918E-004  0.5304669E+03  0.7818608E-02  0.1006119E+00
         -2   -1    0    0    0  501 -0.00000000000E+00  0.00000000000E+00  0.45026848912E+02  0.45026848985E+02  0.25500000000E-02 0. -1.
          2   -1    0    0  501    0  0.00000000000E+00 -0.00000000000E+00 -0.15623741885E+04  0.15623741885E+04  0.25500000000E-02 0.  1.
    5000001    1    1    2    0    0  0.42787756457E+02  0.38992776329E+02 -0.15074890835E+04  0.15105639892E+04  0.77000000000E+02 0.  0.
   -5000001    1    1    2    0    0 -0.42787756457E+02 -0.38992776329E+02 -0.98582561325E+01  0.96837048295E+02  0.77000000000E+02 0.  0.
<mgrwt>
<rscale>  0 0.53046691E+03</rscale>
<asrwt>0</asrwt>
<pdfrwt beam="1">  1        2 0.24036522E+00 0.53046691E+03</pdfrwt>
<pdfrwt beam="2">  1       -2 0.69272087E-02 0.53046691E+03</pdfrwt>
<totfact> 0.14799774E+03</totfact>
</mgrwt>
</event>
<event>
 4    1  0.6086918E-004  0.3588621E+03  0.7818608E-02  0.1059035E+00
          2   -1    0    0  501    0  0.00000000000E+00  0.00000000000E+00  0.16437788932E+03  0.16437788934E+03  0.25500000000E-02 0.  1.
         -2   -1    0    0    0  501 -0.00000000000E+00 -0.00000000000E+00 -0.19586272438E+03  0.19586272439E+03  0.25500000000E-02 0. -1.
    5000001    1    1    2    0    0 -0.14375125891E+03 -0.62850024312E+02  0.25057914299E+02  0.17655437991E+03  0.77000000000E+02 0.  0.
   -5000001    1    1    2    0    0  0.14375125891E+03  0.62850024312E+02 -0.56542749350E+02  0.18368623383E+03  0.77000000000E+02 0.  0.
<mgrwt>
<rscale>  0 0.35886210E+03</rscale>
<asrwt>0</asrwt>
<pdfrwt beam="1">  1        2 0.25288906E-01 0.35886210E+03</pdfrwt>
<pdfrwt beam="2">  1       -2 0.30132727E-01 0.35886210E+03</pdfrwt>
<totfact> 0.21648993E+03</totfact>
</mgrwt>
</event>
<event>
 4    1  0.6086918E-004  0.1787175E+03  0.7818608E-02  0.1169050E+00
          2   -1    0    0  501    0  0.00000000000E+00  0.00000000000E+00  0.62204191557E+01  0.62204196784E+01  0.25500000000E-02 0.  1.
         -2   -1    0    0    0  501 -0.00000000000E+00 -0.00000000000E+00 -0.12836726148E+04  0.12836726148E+04  0.25500000000E-02 0. -1.
    5000001    1    1    2    0    0 -0.33890060941E+02  0.22712495941E+02 -0.78155023717E+03  0.78639313764E+03  0.77000000000E+02 0.  0.
   -5000001    1    1    2    0    0  0.33890060941E+02 -0.22712495941E+02 -0.49590195844E+03  0.50349989681E+03  0.77000000000E+02 0.  0.
<mgrwt>
<rscale>  0 0.17871745E+03</rscale>
<asrwt>0</asrwt>
<pdfrwt beam="1">  1        2 0.95698862E-03 0.17871745E+03</pdfrwt>
<pdfrwt beam="2">  1       -2 0.19748788E+00 0.17871745E+03</pdfrwt>
<totfact> 0.22409423E+03</totfact>
</mgrwt>
</event>
<event>
 4    1  0.6086918E-004  0.2071270E+03  0.7818608E-02  0.1143861E+00
          2   -1    0    0  501    0  0.00000000000E+00  0.00000000000E+00  0.24390997932E+04  0.24390997932E+04  0.25500000000E-02 0.  1.
         -2   -1    0    0    0  501 -0.00000000000E+00 -0.00000000000E+00 -0.43972772000E+01  0.43972779393E+01  0.25500000000E-02 0. -1.
    5000001    1    1    2    0    0 -0.64298054337E+02  0.25732015618E+02  0.12191166779E+04  0.12235076014E+04  0.77000000000E+02 0.  0.
   -5000001    1    1    2    0    0  0.64298054337E+02 -0.25732015618E+02  0.12155858382E+04  0.12199894698E+04  0.77000000000E+02 0.  0.
<mgrwt>
<rscale>  0 0.20712700E+03</rscale>
<asrwt>0</asrwt>
<pdfrwt beam="1">  1        2 0.37524486E+00 0.20712700E+03</pdfrwt>
<pdfrwt beam="2">  1       -2 0.67650652E-03 0.20712700E+03</pdfrwt>
<totfact> 0.16165954E+04</totfact>
</mgrwt>
</event>
<event>
 4    1  0.6086918E-004  0.4495765E+03  0.7818608E-02  0.1027848E+00
         -2   -1    0    0    0  501 -0.00000000000E+00  0.00000000000E+00  0.13217126281E+03  0.13217126284E+03  0.25500000000E-02 0. -1.
          2   -1    0    0  501    0  0.00000000000E+00 -0.00000000000E+00 -0.38230508995E+03  0.38230508995E+03  0.25500000000E-02 0.  1.
    5000001    1    1    2    0    0  0.36935238212E+02 -0.10170545364E+03 -0.33261108324E+03  0.35814430586E+03  0.77000000000E+02 0.  0.
   -5000001    1    1    2    0    0 -0.36935238212E+02  0.10170545364E+03  0.82477256111E+02  0.15633204693E+03  0.77000000000E+02 0.  0.
<mgrwt>
<rscale>  0 0.44957645E+03</rscale>
<asrwt>0</asrwt>
<pdfrwt beam="1">  1        2 0.58816167E-01 0.44957645E+03</pdfrwt>
<pdfrwt beam="2">  1       -2 0.20334041E-01 0.44957645E+03</pdfrwt>
<totfact> 0.17252278E+03</totfact>
</mgrwt>
</event>
<event>
 4    1  0.6086918E-004  0.4363360E+03  0.7818608E-02  0.1031877E+00
         -2   -1    0    0    0  501 -0.00000000000E+00  0.00000000000E+00  0.53913688427E+02  0.53913688488E+02  0.25500000000E-02 0. -1.
          2   -1    0    0  501    0  0.00000000000E+00 -0.00000000000E+00 -0.88284199955E+03  0.88284199955E+03  0.25500000000E-02 0.  1.
    5000001    1    1    2    0    0  0.84749514671E+02 -0.76855619976E+02 -0.77739915994E+03  0.78953639589E+03  0.77000000000E+02 0.  0.
   -5000001    1    1    2    0    0 -0.84749514671E+02  0.76855619976E+02 -0.51529151177E+02  0.14721929215E+03  0.77000000000E+02 0.  0.
<mgrwt>
<rscale>  0 0.43633596E+03</rscale>
<asrwt>0</asrwt>
<pdfrwt beam="1">  1        2 0.13582183E+00 0.43633596E+03</pdfrwt>
<pdfrwt beam="2">  1       -2 0.82944143E-02 0.43633596E+03</pdfrwt>
<totfact> 0.27957097E+03</totfact>
</mgrwt>
</event>
<event>
 4    1  0.6086918E-004  0.2534655E+03  0.7818608E-02  0.1111134E+00
         -2   -1    0    0    0  501 -0.00000000000E+00  0.00000000000E+00  0.67676865638E+02  0.67676865686E+02  0.25500000000E-02 0. -1.
          2   -1    0    0  501    0  0.00000000000E+00 -0.00000000000E+00 -0.23732178918E+03  0.23732178920E+03  0.25500000000E-02 0.  1.
    5000001    1    1    2    0    0 -0.29272792455E+00 -0.78536701640E+02 -0.90605254683E+01  0.11035937802E+03  0.77000000000E+02 0.  0.
   -5000001    1    1    2    0    0  0.29272792455E+00  0.78536701640E+02 -0.16058439808E+03  0.19463927687E+03  0.77000000000E+02 0.  0.
<mgrwt>
<rscale>  0 0.25346554E+03</rscale>
<asrwt>0</asrwt>
<pdfrwt beam="1">  1        2 0.36511044E-01 0.25346554E+03</pdfrwt>
<pdfrwt beam="2">  1       -2 0.10411826E-01 0.25346554E+03</pdfrwt>
<totfact> 0.86665686E+03</totfact>
</mgrwt>
</event>
<event>
 4    1  0.6086918E-004  0.3324447E+03  0.7818608E-02  0.1070060E+00
          2   -1    0    0  501    0  0.00000000000E+00  0.00000000000E+00  0.64570380252E+03  0.64570380252E+03  0.25500000000E-02 0.  1.
         -2   -1    0    0    0  501 -0.00000000000E+00 -0.00000000000E+00 -0.42790321937E+02  0.42790322013E+02  0.25500000000E-02 0. -1.
    5000001    1    1    2    0    0 -0.11758918385E+03  0.46441635363E+01  0.48497251689E+03  0.50495160813E+03  0.77000000000E+02 0.  0.
   -5000001    1    1    2    0    0  0.11758918385E+03 -0.46441635363E+01  0.11794096369E+03  0.18354251641E+03  0.77000000000E+02 0.  0.
<mgrwt>
<rscale>  0 0.33244472E+03</rscale>
<asrwt>0</asrwt>
<pdfrwt beam="1">  1        2 0.99339040E-01 0.33244472E+03</pdfrwt>
<pdfrwt beam="2">  1       -2 0.65831269E-02 0.33244472E+03</pdfrwt>
<totfact> 0.59471773E+03</totfact>
</mgrwt>
</event>
<event>
 4    1  0.6086918E-004  0.2426848E+03  0.7818608E-02  0.1118017E+00
          2   -1    0    0  501    0  0.00000000000E+00  0.00000000000E+00  0.91080028846E+03  0.91080028846E+03  0.25500000000E-02 0.  1.
         -2   -1    0    0    0  501 -0.00000000000E+00 -0.00000000000E+00 -0.16165981137E+02  0.16165981338E+02  0.25500000000E-02 0. -1.
    5000001    1    1    2    0    0  0.37812781712E+02 -0.85739432945E+02  0.43306447834E+03  0.44972758335E+03  0.77000000000E+02 0.  0.
   -5000001    1    1    2    0    0 -0.37812781712E+02  0.85739432945E+02  0.46156982898E+03  0.47723868645E+03  0.77000000000E+02 0.  0.
<mgrwt>
<rscale>  0 0.24268482E+03</rscale>
<asrwt>0</asrwt>
<pdfrwt beam="1">  1        2 0.14012316E+00 0.24268482E+03</pdfrwt>
<pdfrwt beam="2">  1       -2 0.24870734E-02 0.24268482E+03</pdfrwt>
<totfact> 0.16578941E+04</totfact>
</mgrwt>
</event>
<event>
 4    1  0.6086918E-004  0.3770569E+03  0.7818608E-02  0.1052027E+00
          2   -1    0    0  501    0  0.00000000000E+00  0.00000000000E+00  0.39789977300E+03  0.39789977301E+03  0.25500000000E-02 0.  1.
         -2   -1    0    0    0  501 -0.00000000000E+00 -0.00000000000E+00 -0.89326468619E+02  0.89326468656E+02  0.25500000000E-02 0. -1.
    5000001    1    1    2    0    0  0.43972972470E+02  0.14944527985E+03  0.59802881378E+02  0.18377404223E+03  0.77000000000E+02 0.  0.
   -5000001    1    1    2    0    0 -0.43972972470E+02 -0.14944527985E+03  0.24877042300E+03  0.30345219943E+03  0.77000000000E+02 0.  0.
<mgrwt>
<rscale>  0 0.37705693E+03</rscale>
<asrwt>0</asrwt>
<pdfrwt beam="1">  1        2 0.61215349E-01 0.37705693E+03</pdfrwt>
<pdfrwt beam="2">  1       -2 0.13742534E-01 0.37705693E+03</pdfrwt>
<totfact> 0.31950246E+03</totfact>
</mgrwt>
</event>
<event>
 4    1  0.6086918E-004  0.2147478E+03  0.7818608E-02  0.1137860E+00
          2   -1    0    0  501    0  0.00000000000E+00  0.00000000000E+00  0.13630889703E+04  0.13630889703E+04  0.25500000000E-02 0. -1.
         -2   -1    0    0    0  501 -0.00000000000E+00 -0.00000000000E+00 -0.84581085042E+01  0.84581088886E+01  0.25500000000E-02 0.  1.
    5000001    1    1    2    0    0  0.73452858187E+02 -0.11633765828E+02  0.73055521101E+03  0.73835667751E+03  0.77000000000E+02 0.  0.
   -5000001    1    1    2    0    0 -0.73452858187E+02  0.11633765828E+02  0.62407565080E+03  0.63319040170E+03  0.77000000000E+02 0.  0.
<mgrwt>
<rscale>  0 0.21474780E+03</rscale>
<asrwt>0</asrwt>
<pdfrwt beam="1">  1        2 0.20970585E+00 0.21474780E+03</pdfrwt>
<pdfrwt beam="2">  1       -2 0.13012484E-02 0.21474780E+03</pdfrwt>
<totfact> 0.23216695E+04</totfact>
</mgrwt>
</event>
<event>
 4    1  0.6086918E-004  0.3159549E+03  0.7818608E-02  0.1077526E+00
          2   -1    0    0  501    0  0.00000000000E+00  0.00000000000E+00  0.58711193985E+02  0.58711194040E+02  0.25500000000E-02 0.  1.
         -2   -1    0    0    0  501 -0.00000000000E+00 -0.00000000000E+00 -0.42507868953E+03  0.42507868953E+03  0.25500000000E-02 0. -1.
    5000001    1    1    2    0    0  0.10148410205E+03  0.35360712306E+02 -0.31559904871E+03  0.34217124731E+03  0.77000000000E+02 0.  0.
   -5000001    1    1    2    0    0 -0.10148410205E+03 -0.35360712306E+02 -0.50768446834E+02  0.14161863626E+03  0.77000000000E+02 0.  0.
<mgrwt>
<rscale>  0 0.31595492E+03</rscale>
<asrwt>0</asrwt>
<pdfrwt beam="1">  1        2 0.90324917E-02 0.31595492E+03</pdfrwt>
<pdfrwt beam="2">  1       -2 0.65396719E-01 0.31595492E+03</pdfrwt>
<totfact> 0.16116772E+03</totfact>
</mgrwt>
</event>
<event>
 4    1  0.6086918E-004  0.2550614E+03  0.7818608E-02  0.1110147E+00
         -2   -1    0    0    0  501 -0.00000000000E+00  0.00000000000E+00  0.85619536410E+01  0.85619540207E+01  0.25500000000E-02 0. -1.
          2   -1    0    0  501    0  0.00000000000E+00 -0.00000000000E+00 -0.18995764359E+04  0.18995764359E+04  0.25500000000E-02 0.  1.
    5000001    1    1    2    0    0  0.67721995069E+02 -0.68623131395E+02 -0.70428602071E+03  0.71501272838E+03  0.77000000000E+02 0.  0.
   -5000001    1    1    2    0    0 -0.67721995069E+02  0.68623131395E+02 -0.11867284615E+04  0.11931256615E+04  0.77000000000E+02 0.  0.
<mgrwt>
<rscale>  0 0.25506145E+03</rscale>
<asrwt>0</asrwt>
<pdfrwt beam="1">  1        2 0.29224219E+00 0.25506145E+03</pdfrwt>
<pdfrwt beam="2">  1       -2 0.13172252E-02 0.25506145E+03</pdfrwt>
<totfact> 0.11951040E+04</totfact>
</mgrwt>
</event>
<event>
 4    1  0.6086918E-004  0.2189938E+03  0.7818608E-02  0.1134635E+00
          2   -1    0    0  501    0  0.00000000000E+00  0.00000000000E+00  0.79600058875E+03  0.79600058875E+03  0.25500000000E-02 0.  1.
         -2   -1    0    0    0  501 -0.00000000000E+00 -0.00000000000E+00 -0.15062260292E+02  0.15062260508E+02  0.25500000000E-02 0. -1.
    5000001    1    1    2    0    0  0.35759402771E+02  0.17395952501E+02  0.14259934285E+03  0.16686799163E+03  0.77000000000E+02 0.  0.
   -5000001    1    1    2    0    0 -0.35759402771E+02 -0.17395952501E+02  0.63833898560E+03  0.64419485762E+03  0.77000000000E+02 0.  0.
<mgrwt>
<rscale>  0 0.21899377E+03</rscale>
<asrwt>0</asrwt>
<pdfrwt beam="1">  1        2 0.12246161E+00 0.21899377E+03</pdfrwt>
<pdfrwt beam="2">  1       -2 0.23172711E-02 0.21899377E+03</pdfrwt>
<totfact> 0.21802107E+04</totfact>
</mgrwt>
</event>
<event>
 4    1  0.6086918E-004  0.1816738E+03  0.7818608E-02  0.1166193E+00
          2   -1    0    0  501    0  0.00000000000E+00  0.00000000000E+00  0.20839280536E+03  0.20839280537E+03  0.25500000000E-02 0.  1.
         -2   -1    0    0    0  501 -0.00000000000E+00 -0.00000000000E+00 -0.39595133643E+02  0.39595133726E+02  0.25500000000E-02 0. -1.
    5000001    1    1    2    0    0 -0.33903886955E+02  0.28215772464E+02  0.11089346187E+03  0.14202803685E+03  0.77000000000E+02 0.  0.
   -5000001    1    1    2    0    0  0.33903886955E+02 -0.28215772464E+02  0.57904209842E+02  0.10595990225E+03  0.77000000000E+02 0.  0.
<mgrwt>
<rscale>  0 0.18167378E+03</rscale>
<asrwt>0</asrwt>
<pdfrwt beam="1">  1        2 0.32060431E-01 0.18167378E+03</pdfrwt>
<pdfrwt beam="2">  1       -2 0.60915591E-02 0.18167378E+03</pdfrwt>
<totfact> 0.22501308E+04</totfact>
</mgrwt>
</event>
<event>
 4    1  0.6086918E-004  0.2300102E+03  0.7818608E-02  0.1126633E+00
          2   -1    0    0  501    0  0.00000000000E+00  0.00000000000E+00  0.19879580479E+03  0.19879580481E+03  0.25500000000E-02 0. -1.
         -2   -1    0    0    0  501 -0.00000000000E+00 -0.00000000000E+00 -0.66531461036E+02  0.66531461085E+02  0.25500000000E-02 0.  1.
    5000001    1    1    2    0    0 -0.23076972760E+02 -0.78402892165E+02  0.94799929764E+02  0.14695436998E+03  0.77000000000E+02 0.  0.
   -5000001    1    1    2    0    0  0.23076972760E+02  0.78402892165E+02  0.37464413989E+02  0.11837289591E+03  0.77000000000E+02 0.  0.
<mgrwt>
<rscale>  0 0.23001022E+03</rscale>
<asrwt>0</asrwt>
<pdfrwt beam="1">  1        2 0.30583970E-01 0.23001022E+03</pdfrwt>
<pdfrwt beam="2">  1       -2 0.10235609E-01 0.23001022E+03</pdfrwt>
<totfact> 0.10743550E+04</totfact>
</mgrwt>
</event>
<event>
 4    1  0.6086918E-004  0.4299705E+03  0.7818608E-02  0.1033869E+00
         -2   -1    0    0    0  501 -0.00000000000E+00  0.00000000000E+00  0.58427233412E+02  0.58427233467E+02  0.25500000000E-02 0. -1.
          2   -1    0    0  501    0  0.00000000000E+00 -0.00000000000E+00 -0.79104662563E+03  0.79104662563E+03  0.25500000000E-02 0.  1.
    5000001    1    1    2    0    0  0.51373654144E+02  0.19080534933E+03 -0.43598434000E+03  0.48482706030E+03  0.77000000000E+02 0.  0.
   -5000001    1    1    2    0    0 -0.51373654144E+02 -0.19080534933E+03 -0.29663505221E+03  0.36464679880E+03  0.77000000000E+02 0.  0.
<mgrwt>
<rscale>  0 0.42997054E+03</rscale>
<asrwt>0</asrwt>
<pdfrwt beam="1">  1        2 0.12169947E+00 0.42997054E+03</pdfrwt>
<pdfrwt beam="2">  1       -2 0.89888057E-02 0.42997054E+03</pdfrwt>
<totfact> 0.28441996E+03</totfact>
</mgrwt>
</event>
<event>
 4    1  0.6086918E-004  0.3132665E+03  0.7818608E-02  0.1078791E+00
          2   -1    0    0  501    0  0.00000000000E+00  0.00000000000E+00  0.37217652301E+03  0.37217652302E+03  0.25500000000E-02 0.  1.
         -2   -1    0    0    0  501 -0.00000000000E+00 -0.00000000000E+00 -0.65920253272E+02  0.65920253322E+02  0.25500000000E-02 0. -1.
    5000001    1    1    2    0    0  0.10488562472E+03 -0.35813196141E+02  0.41938966759E+02  0.14132040271E+03  0.77000000000E+02 0.  0.
   -5000001    1    1    2    0    0 -0.10488562472E+03  0.35813196141E+02  0.26431730298E+03  0.29677637363E+03  0.77000000000E+02 0.  0.
<mgrwt>
<rscale>  0 0.31326647E+03</rscale>
<asrwt>0</asrwt>
<pdfrwt beam="1">  1        2 0.57257925E-01 0.31326647E+03</pdfrwt>
<pdfrwt beam="2">  1       -2 0.10141578E-01 0.31326647E+03</pdfrwt>
<totfact> 0.56035284E+03</totfact>
</mgrwt>
</event>
<event>
 4    1  0.6086918E-004  0.3593498E+03  0.7818608E-02  0.1058842E+00
         -2   -1    0    0    0  501 -0.00000000000E+00  0.00000000000E+00  0.35145237991E+02  0.35145238084E+02  0.25500000000E-02 0. -1.
          2   -1    0    0  501    0  0.00000000000E+00 -0.00000000000E+00 -0.91856184295E+03  0.91856184296E+03  0.25500000000E-02 0.  1.
    5000001    1    1    2    0    0  0.85052171724E+02 -0.44798142996E+02 -0.94520213378E+02  0.15525403785E+03  0.77000000000E+02 0.  0.
   -5000001    1    1    2    0    0 -0.85052171724E+02  0.44798142996E+02 -0.78889639158E+03  0.79845304319E+03  0.77000000000E+02 0.  0.
<mgrwt>
<rscale>  0 0.35934983E+03</rscale>
<asrwt>0</asrwt>
<pdfrwt beam="1">  1        2 0.14131719E+00 0.35934983E+03</pdfrwt>
<pdfrwt beam="2">  1       -2 0.54069604E-02 0.35934983E+03</pdfrwt>
<totfact> 0.51556408E+03</totfact>
</mgrwt>
</event>
<event>
 4    1  0.6086918E-004  0.4692549E+03  0.7818608E-02  0.1022131E+00
          2   -1    0    0  501    0  0.00000000000E+00  0.00000000000E+00  0.95342185806E+03  0.95342185806E+03  0.25500000000E-02 0.  1.
         -2   -1    0    0    0  501 -0.00000000000E+00 -0.00000000000E+00 -0.57739439105E+02  0.57739439161E+02  0.25500000000E-02 0. -1.
    5000001    1    1    2    0    0  0.17800656388E+03 -0.13200666407E+03  0.44139573039E+03  0.49987127038E+03  0.77000000000E+02 0.  0.
   -5000001    1    1    2    0    0 -0.17800656388E+03  0.13200666407E+03  0.45428668856E+03  0.51129002684E+03  0.77000000000E+02 0.  0.
<mgrwt>
<rscale>  0 0.46925491E+03</rscale>
<asrwt>0</asrwt>
<pdfrwt beam="1">  1        2 0.14668027E+00 0.46925491E+03</pdfrwt>
<pdfrwt beam="2">  1       -2 0.88829918E-02 0.46925491E+03</pdfrwt>
<totfact> 0.22543950E+03</totfact>
</mgrwt>
</event>
<event>
 4    1  0.6086918E-004  0.2637363E+03  0.7818608E-02  0.1104919E+00
          2   -1    0    0  501    0  0.00000000000E+00  0.00000000000E+00  0.86807258825E+02  0.86807258863E+02  0.25500000000E-02 0.  1.
         -2   -1    0    0    0  501 -0.00000000000E+00 -0.00000000000E+00 -0.20031973354E+03  0.20031973356E+03  0.25500000000E-02 0. -1.
    5000001    1    1    2    0    0  0.82247047675E+02 -0.67979459620E+02 -0.47364233565E+02  0.13985047159E+03  0.77000000000E+02 0.  0.
   -5000001    1    1    2    0    0 -0.82247047675E+02  0.67979459620E+02 -0.66148241151E+02  0.14727652083E+03  0.77000000000E+02 0.  0.
<mgrwt>
<rscale>  0 0.26373628E+03</rscale>
<asrwt>0</asrwt>
<pdfrwt beam="1">  1        2 0.13354963E-01 0.26373628E+03</pdfrwt>
<pdfrwt beam="2">  1       -2 0.30818420E-01 0.26373628E+03</pdfrwt>
<totfact> 0.43289780E+03</totfact>
</mgrwt>
</event>
<event>
 4    1  0.6086918E-004  0.1702831E+03  0.7818608E-02  0.1177553E+00
          2   -1    0    0  501    0  0.00000000000E+00  0.00000000000E+00  0.10256133569E+04  0.10256133569E+04  0.25500000000E-02 0.  1.
         -2   -1    0    0    0  501 -0.00000000000E+00 -0.00000000000E+00 -0.70680500691E+01  0.70680505290E+01  0.25500000000E-02 0. -1.
    5000001    1    1    2    0    0  0.25395465330E+02 -0.25771779062E+02  0.52936119151E+03  0.53615425517E+03  0.77000000000E+02 0.  0.
   -5000001    1    1    2    0    0 -0.25395465330E+02  0.25771779062E+02  0.48918411529E+03  0.49652715224E+03  0.77000000000E+02 0.  0.
<mgrwt>
<rscale>  0 0.17028314E+03</rscale>
<asrwt>0</asrwt>
<pdfrwt beam="1">  1        2 0.15778667E+00 0.17028314E+03</pdfrwt>
<pdfrwt beam="2">  1       -2 0.10873924E-02 0.17028314E+03</pdfrwt>
<totfact> 0.45938953E+04</totfact>
</mgrwt>
</event>
<event>
 4    1  0.6086918E-004  0.2059848E+03  0.7818608E-02  0.1144786E+00
          2   -1    0    0  501    0  0.00000000000E+00  0.00000000000E+00  0.10455587228E+03  0.10455587231E+03  0.25500000000E-02 0.  1.
         -2   -1    0    0    0  501 -0.00000000000E+00 -0.00000000000E+00 -0.10145231662E+03  0.10145231665E+03  0.25500000000E-02 0. -1.
    5000001    1    1    2    0    0  0.29855420943E+02  0.61381404988E+02 -0.28546758888E+01  0.10293771035E+03  0.77000000000E+02 0.  0.
   -5000001    1    1    2    0    0 -0.29855420943E+02 -0.61381404988E+02  0.59582315472E+01  0.10307047861E+03  0.77000000000E+02 0.  0.
<mgrwt>
<rscale>  0 0.20598481E+03</rscale>
<asrwt>0</asrwt>
<pdfrwt beam="1">  1        2 0.16085519E-01 0.20598481E+03</pdfrwt>
<pdfrwt beam="2">  1       -2 0.15608049E-01 0.20598481E+03</pdfrwt>
<totfact> 0.11134835E+04</totfact>
</mgrwt>
</event>
<event>
 4    1  0.6086918E-004  0.2318618E+03  0.7818608E-02  0.1125336E+00
          2   -1    0    0  501    0  0.00000000000E+00  0.00000000000E+00  0.16872820744E+04  0.16872820744E+04  0.25500000000E-02 0.  1.
         -2   -1    0    0    0  501 -0.00000000000E+00 -0.00000000000E+00 -0.79654600804E+01  0.79654604885E+01  0.25500000000E-02 0. -1.
    5000001    1    1    2    0    0 -0.22712575226E+02  0.78170316433E+02  0.62220931331E+03  0.63221822895E+03  0.77000000000E+02 0.  0.
   -5000001    1    1    2    0    0  0.22712575226E+02 -0.78170316433E+02  0.10571073010E+04  0.10630293060E+04  0.77000000000E+02 0.  0.
<mgrwt>
<rscale>  0 0.23186184E+03</rscale>
<asrwt>0</asrwt>
<pdfrwt beam="1">  1        2 0.25958194E+00 0.23186184E+03</pdfrwt>
<pdfrwt beam="2">  1       -2 0.12254550E-02 0.23186184E+03</pdfrwt>
<totfact> 0.17097883E+04</totfact>
</mgrwt>
</event>
<event>
 4    1  0.6086918E-004  0.1859707E+03  0.7818608E-02  0.1162147E+00
          2   -1    0    0  501    0  0.00000000000E+00  0.00000000000E+00  0.15444766337E+04  0.15444766337E+04  0.25500000000E-02 0.  1.
         -2   -1    0    0    0  501 -0.00000000000E+00 -0.00000000000E+00 -0.55981899668E+01  0.55981905475E+01  0.25500000000E-02 0. -1.
    5000001    1    1    2    0    0  0.29351544373E+01 -0.31575380404E+02  0.42460036853E+03  0.43268937211E+03  0.77000000000E+02 0.  0.
   -5000001    1    1    2    0    0 -0.29351544373E+01  0.31575380404E+02  0.11142780752E+04  0.11173854521E+04  0.77000000000E+02 0.  0.
<mgrwt>
<rscale>  0 0.18597069E+03</rscale>
<asrwt>0</asrwt>
<pdfrwt beam="1">  1        2 0.23761199E+00 0.18597069E+03</pdfrwt>
<pdfrwt beam="2">  1       -2 0.86125933E-03 0.18597069E+03</pdfrwt>
<totfact> 0.33451972E+04</totfact>
</mgrwt>
</event>
<event>
 4    1  0.6086918E-004  0.2199686E+03  0.7818608E-02  0.1133906E+00
         -2   -1    0    0    0  501 -0.00000000000E+00  0.00000000000E+00  0.18003269836E+02  0.18003270017E+02  0.25500000000E-02 0. -1.
          2   -1    0    0  501    0  0.00000000000E+00 -0.00000000000E+00 -0.67190812325E+03  0.67190812325E+03  0.25500000000E-02 0.  1.
    5000001    1    1    2    0    0 -0.43250652720E+02  0.60369702909E+02 -0.40706439784E+03  0.42088661654E+03  0.77000000000E+02 0.  0.
   -5000001    1    1    2    0    0  0.43250652720E+02 -0.60369702909E+02 -0.24684045557E+03  0.26902477673E+03  0.77000000000E+02 0.  0.
<mgrwt>
<rscale>  0 0.21996857E+03</rscale>
<asrwt>0</asrwt>
<pdfrwt beam="1">  1        2 0.10337046E+00 0.21996857E+03</pdfrwt>
<pdfrwt beam="2">  1       -2 0.27697344E-02 0.21996857E+03</pdfrwt>
<totfact> 0.20630524E+04</totfact>
</mgrwt>
</event>
<event>
 4    1  0.6086918E-004  0.4962282E+03  0.7818608E-02  0.1014768E+00
          2   -1    0    0  501    0  0.00000000000E+00  0.00000000000E+00  0.19193196482E+04  0.19193196482E+04  0.25500000000E-02 0.  1.
         -2   -1    0    0    0  501 -0.00000000000E+00 -0.00000000000E+00 -0.32074187392E+02  0.32074187493E+02  0.25500000000E-02 0. -1.
    5000001    1    1    2    0    0 -0.22817955748E+03 -0.59325206161E+01  0.11772816417E+04  0.12016747352E+04  0.77000000000E+02 0.  0.
   -5000001    1    1    2    0    0  0.22817955748E+03  0.59325206161E+01  0.70996381904E+03  0.74971910047E+03  0.77000000000E+02 0.  0.
<mgrwt>
<rscale>  0 0.49622825E+03</rscale>
<asrwt>0</asrwt>
<pdfrwt beam="1">  1        2 0.29527998E+00 0.49622825E+03</pdfrwt>
<pdfrwt beam="2">  1       -2 0.49344898E-02 0.49622825E+03</pdfrwt>
<totfact> 0.16138934E+03</totfact>
</mgrwt>
</event>
<event>
 4    1  0.6086918E-004  0.3288023E+03  0.7818608E-02  0.1071668E+00
         -2   -1    0    0    0  501 -0.00000000000E+00  0.00000000000E+00  0.37252201215E+02  0.37252201302E+02  0.25500000000E-02 0.  1.
          2   -1    0    0  501    0  0.00000000000E+00 -0.00000000000E+00 -0.72553414080E+03  0.72553414081E+03  0.25500000000E-02 0. -1.
    5000001    1    1    2    0    0  0.84991411282E+02 -0.45169037362E+01 -0.61720730917E+03  0.62778802545E+03  0.77000000000E+02 0.  0.
   -5000001    1    1    2    0    0 -0.84991411282E+02  0.45169037362E+01 -0.71074630421E+02  0.13499831666E+03  0.77000000000E+02 0.  0.
<mgrwt>
<rscale>  0 0.32880233E+03</rscale>
<asrwt>0</asrwt>
<pdfrwt beam="1">  1        2 0.11162063E+00 0.32880233E+03</pdfrwt>
<pdfrwt beam="2">  1       -2 0.57311084E-02 0.32880233E+03</pdfrwt>
<totfact> 0.63922315E+03</totfact>
</mgrwt>
</event>
<event>
 4    1  0.6086918E-004  0.1974974E+03  0.7818608E-02  0.1151868E+00
         -2   -1    0    0    0  501 -0.00000000000E+00  0.00000000000E+00  0.21314491564E+03  0.21314491566E+03  0.25500000000E-02 0. -1.
          2   -1    0    0  501    0  0.00000000000E+00 -0.00000000000E+00 -0.45749635317E+02  0.45749635388E+02  0.25500000000E-02 0.  1.
    5000001    1    1    2    0    0 -0.26171425534E+02 -0.48227376961E+02  0.12103986485E+03  0.15359190176E+03  0.77000000000E+02 0.  0.
   -5000001    1    1    2    0    0  0.26171425534E+02  0.48227376961E+02  0.46355415478E+02  0.10530264929E+03  0.77000000000E+02 0.  0.
<mgrwt>
<rscale>  0 0.19749736E+03</rscale>
<asrwt>0</asrwt>
<pdfrwt beam="1">  1        2 0.70384055E-02 0.19749736E+03</pdfrwt>
<pdfrwt beam="2">  1       -2 0.32791525E-01 0.19749736E+03</pdfrwt>
<totfact> 0.84384827E+03</totfact>
</mgrwt>
</event>
<event>
 4    1  0.6086918E-004  0.7250870E+03  0.7818608E-02  0.9675266E-01
         -2   -1    0    0    0  501 -0.00000000000E+00  0.00000000000E+00  0.35810787456E+03  0.35810787457E+03  0.25500000000E-02 0. -1.
          2   -1    0    0  501    0  0.00000000000E+00 -0.00000000000E+00 -0.36703405109E+03  0.36703405110E+03  0.25500000000E-02 0.  1.
    5000001    1    1    2    0    0  0.15870974923E+03 -0.31499032233E+03 -0.37648373243E+02  0.36297945902E+03  0.77000000000E+02 0.  0.
   -5000001    1    1    2    0    0 -0.15870974923E+03  0.31499032233E+03  0.28722196721E+02  0.36216246665E+03  0.77000000000E+02 0.  0.
<mgrwt>
<rscale>  0 0.72508698E+03</rscale>
<asrwt>0</asrwt>
<pdfrwt beam="1">  1        2 0.56466777E-01 0.72508698E+03</pdfrwt>
<pdfrwt beam="2">  1       -2 0.55093519E-01 0.72508698E+03</pdfrwt>
<totfact> 0.27391080E+02</totfact>
</mgrwt>
</event>
<event>
 4    1  0.6086918E-004  0.1802161E+03  0.7818608E-02  0.1167594E+00
          2   -1    0    0  501    0  0.00000000000E+00  0.00000000000E+00  0.73875069009E+03  0.73875069010E+03  0.25500000000E-02 0.  1.
         -2   -1    0    0    0  501 -0.00000000000E+00 -0.00000000000E+00 -0.10990803140E+02  0.10990803436E+02  0.25500000000E-02 0. -1.
    5000001    1    1    2    0    0  0.94081114901E+01  0.32918112536E+02  0.23112027270E+03  0.24600344540E+03  0.77000000000E+02 0.  0.
   -5000001    1    1    2    0    0 -0.94081114901E+01 -0.32918112536E+02  0.49663961425E+03  0.50373804813E+03  0.77000000000E+02 0.  0.
<mgrwt>
<rscale>  0 0.18021613E+03</rscale>
<asrwt>0</asrwt>
<pdfrwt beam="1">  1        2 0.11365391E+00 0.18021613E+03</pdfrwt>
<pdfrwt beam="2">  1       -2 0.16908934E-02 0.18021613E+03</pdfrwt>
<totfact> 0.37391766E+04</totfact>
</mgrwt>
</event>
<event>
 4    1  0.6086918E-004  0.3092981E+03  0.7818608E-02  0.1080683E+00
          2   -1    0    0  501    0  0.00000000000E+00  0.00000000000E+00  0.22387275711E+04  0.22387275711E+04  0.25500000000E-02 0.  1.
         -2   -1    0    0    0  501 -0.00000000000E+00 -0.00000000000E+00 -0.10682998282E+02  0.10682998586E+02  0.25500000000E-02 0. -1.
    5000001    1    1    2    0    0 -0.51137198340E+02  0.17476151833E+02  0.22132667677E+03  0.24048893278E+03  0.77000000000E+02 0.  0.
   -5000001    1    1    2    0    0  0.51137198340E+02 -0.17476151833E+02  0.20067178960E+04  0.20089216369E+04  0.77000000000E+02 0.  0.
<mgrwt>
<rscale>  0 0.30929806E+03</rscale>
<asrwt>0</asrwt>
<pdfrwt beam="1">  1        2 0.34441965E+00 0.30929806E+03</pdfrwt>
<pdfrwt beam="2">  1       -2 0.16435381E-02 0.30929806E+03</pdfrwt>
<totfact> 0.57280936E+03</totfact>
</mgrwt>
</event>
<event>
 4    1  0.6086918E-004  0.1989804E+03  0.7818608E-02  0.1150602E+00
          2   -1    0    0  501    0  0.00000000000E+00  0.00000000000E+00  0.52240554072E+03  0.52240554073E+03  0.25500000000E-02 0.  1.
         -2   -1    0    0    0  501 -0.00000000000E+00 -0.00000000000E+00 -0.18947536288E+02  0.18947536460E+02  0.25500000000E-02 0. -1.
    5000001    1    1    2    0    0 -0.85940353586E+01 -0.60006298908E+02  0.29843246677E+03  0.31411072980E+03  0.77000000000E+02 0.  0.
   -5000001    1    1    2    0    0  0.85940353586E+01  0.60006298908E+02  0.20502553766E+03  0.22724234739E+03  0.77000000000E+02 0.  0.
<mgrwt>
<rscale>  0 0.19898038E+03</rscale>
<asrwt>0</asrwt>
<pdfrwt beam="1">  1        2 0.80370086E-01 0.19898038E+03</pdfrwt>
<pdfrwt beam="2">  1       -2 0.29150055E-02 0.19898038E+03</pdfrwt>
<totfact> 0.25385401E+04</totfact>
</mgrwt>
</event>
<event>
 4    1  0.6086918E-004  0.3107545E+03  0.7818608E-02  0.1079985E+00
          2   -1    0    0  501    0  0.00000000000E+00  0.00000000000E+00  0.46145589677E+03  0.46145589677E+03  0.25500000000E-02 0.  1.
         -2   -1    0    0    0  501 -0.00000000000E+00 -0.00000000000E+00 -0.52317213706E+02  0.52317213769E+02  0.25500000000E-02 0. -1.
    5000001    1    1    2    0    0 -0.11707152516E+03  0.49965022261E+02  0.27870768422E+03  0.31592597027E+03  0.77000000000E+02 0.  0.
   -5000001    1    1    2    0    0  0.11707152516E+03 -0.49965022261E+02  0.13043099884E+03  0.19784714027E+03  0.77000000000E+02 0.  0.
<mgrwt>
<rscale>  0 0.31075448E+03</rscale>
<asrwt>0</asrwt>
<pdfrwt beam="1">  1        2 0.70993215E-01 0.31075448E+03</pdfrwt>
<pdfrwt beam="2">  1       -2 0.80488021E-02 0.31075448E+03</pdfrwt>
<totfact> 0.63787441E+03</totfact>
</mgrwt>
</event>
<event>
 4    1  0.6086918E-004  0.1985634E+03  0.7818608E-02  0.1150957E+00
          2   -1    0    0  501    0  0.00000000000E+00  0.00000000000E+00  0.63114344152E+02  0.63114344204E+02  0.25500000000E-02 0.  1.
         -2   -1    0    0    0  501 -0.00000000000E+00 -0.00000000000E+00 -0.15617456137E+03  0.15617456139E+03  0.25500000000E-02 0. -1.
    5000001    1    1    2    0    0  0.36503489247E+02  0.21766918622E+02 -0.97398063124E+02  0.13123142220E+03  0.77000000000E+02 0.  0.
   -5000001    1    1    2    0    0 -0.36503489247E+02 -0.21766918622E+02  0.43378459084E+01  0.88057483388E+02  0.77000000000E+02 0.  0.
<mgrwt>
<rscale>  0 0.19856339E+03</rscale>
<asrwt>0</asrwt>
<pdfrwt beam="1">  1        2 0.97098991E-02 0.19856339E+03</pdfrwt>
<pdfrwt beam="2">  1       -2 0.24026856E-01 0.19856339E+03</pdfrwt>
<totfact> 0.98172463E+03</totfact>
</mgrwt>
</event>
<event>
 4    1  0.6086918E-004  0.2663516E+03  0.7818608E-02  0.1103386E+00
          2   -1    0    0  501    0  0.00000000000E+00  0.00000000000E+00  0.70947727449E+03  0.70947727449E+03  0.25500000000E-02 0.  1.
         -2   -1    0    0    0  501 -0.00000000000E+00 -0.00000000000E+00 -0.24998393777E+02  0.24998393907E+02  0.25500000000E-02 0. -1.
    5000001    1    1    2    0    0 -0.10477703083E+03 -0.20573007910E+02  0.39775564803E+03  0.41897497584E+03  0.77000000000E+02 0.  0.
   -5000001    1    1    2    0    0  0.10477703083E+03  0.20573007910E+02  0.28672323268E+03  0.31550069256E+03  0.77000000000E+02 0.  0.
<mgrwt>
<rscale>  0 0.26635159E+03</rscale>
<asrwt>0</asrwt>
<pdfrwt beam="1">  1        2 0.10915035E+00 0.26635159E+03</pdfrwt>
<pdfrwt beam="2">  1       -2 0.38459067E-02 0.26635159E+03</pdfrwt>
<totfact> 0.11963530E+04</totfact>
</mgrwt>
</event>
<event>
 4    1  0.6086918E-004  0.2220071E+03  0.7818608E-02  0.1132395E+00
          2   -1    0    0  501    0  0.00000000000E+00  0.00000000000E+00  0.32029011434E+03  0.32029011435E+03  0.25500000000E-02 0.  1.
         -2   -1    0    0    0  501 -0.00000000000E+00 -0.00000000000E+00 -0.38470719037E+02  0.38470719122E+02  0.25500000000E-02 0. -1.
    5000001    1    1    2    0    0 -0.21608057157E+02  0.62305352177E+02  0.21396818742E+03  0.23677045904E+03  0.77000000000E+02 0.  0.
   -5000001    1    1    2    0    0  0.21608057157E+02 -0.62305352177E+02  0.67851207882E+02  0.12199037444E+03  0.77000000000E+02 0.  0.
<mgrwt>
<rscale>  0 0.22200713E+03</rscale>
<asrwt>0</asrwt>
<pdfrwt beam="1">  1        2 0.49275401E-01 0.22200713E+03</pdfrwt>
<pdfrwt beam="2">  1       -2 0.59185723E-02 0.22200713E+03</pdfrwt>
<totfact> 0.15034573E+04</totfact>
</mgrwt>
</event>
<event>
 4    1  0.6086918E-004  0.2942542E+03  0.7818608E-02  0.1088149E+00
         -2   -1    0    0    0  501 -0.00000000000E+00  0.00000000000E+00  0.57879657507E+02  0.57879657563E+02  0.25500000000E-02 0. -1.
          2   -1    0    0  501    0  0.00000000000E+00 -0.00000000000E+00 -0.37398945732E+03  0.37398945733E+03  0.25500000000E-02 0.  1.
    5000001    1    1    2    0    0 -0.71684068066E+02 -0.40747728188E+02 -0.29665799794E+03  0.31738612243E+03  0.77000000000E+02 0.  0.
   -5000001    1    1    2    0    0  0.71684068066E+02  0.40747728188E+02 -0.19451801868E+02  0.11448299246E+03  0.77000000000E+02 0.  0.
<mgrwt>
<rscale>  0 0.29425419E+03</rscale>
<asrwt>0</asrwt>
<pdfrwt beam="1">  1        2 0.57536838E-01 0.29425419E+03</pdfrwt>
<pdfrwt beam="2">  1       -2 0.89045629E-02 0.29425419E+03</pdfrwt>
<totfact> 0.68391750E+03</totfact>
</mgrwt>
</event>
<event>
 4    1  0.6086918E-004  0.2716162E+03  0.7818608E-02  0.1100358E+00
         -2   -1    0    0    0  501 -0.00000000000E+00  0.00000000000E+00  0.77643296400E+02  0.77643296442E+02  0.25500000000E-02 0. -1.
          2   -1    0    0  501    0  0.00000000000E+00 -0.00000000000E+00 -0.23754579753E+03  0.23754579754E+03  0.25500000000E-02 0.  1.
    5000001    1    1    2    0    0 -0.89413657497E+02  0.65442078645E+02 -0.62072822548E+02  0.14852441922E+03  0.77000000000E+02 0.  0.
   -5000001    1    1    2    0    0  0.89413657497E+02 -0.65442078645E+02 -0.97829678578E+02  0.16666467477E+03  0.77000000000E+02 0.  0.
<mgrwt>
<rscale>  0 0.27161619E+03</rscale>
<asrwt>0</asrwt>
<pdfrwt beam="1">  1        2 0.36545507E-01 0.27161619E+03</pdfrwt>
<pdfrwt beam="2">  1       -2 0.11945123E-01 0.27161619E+03</pdfrwt>
<totfact> 0.69664475E+03</totfact>
</mgrwt>
</event>
<event>
 4    1  0.6086918E-004  0.2086736E+03  0.7818608E-02  0.1142621E+00
         -2   -1    0    0    0  501 -0.00000000000E+00  0.00000000000E+00  0.65365466282E+01  0.65365471256E+01  0.25500000000E-02 0. -1.
          2   -1    0    0  501    0  0.00000000000E+00 -0.00000000000E+00 -0.16654302912E+04  0.16654302912E+04  0.25500000000E-02 0.  1.
    5000001    1    1    2    0    0 -0.46162754145E+02 -0.53060734383E+02 -0.85568262046E+03  0.86201403025E+03  0.77000000000E+02 0.  0.
   -5000001    1    1    2    0    0  0.46162754145E+02  0.53060734383E+02 -0.80321112411E+03  0.80995280807E+03  0.77000000000E+02 0.  0.
<mgrwt>
<rscale>  0 0.20867356E+03</rscale>
<asrwt>0</asrwt>
<pdfrwt beam="1">  1        2 0.25621971E+00 0.20867356E+03</pdfrwt>
<pdfrwt beam="2">  1       -2 0.10056239E-02 0.20867356E+03</pdfrwt>
<totfact> 0.23272921E+04</totfact>
</mgrwt>
</event>
<event>
 4    1  0.6086918E-004  0.1646969E+03  0.7818608E-02  0.1183494E+00
         -2   -1    0    0    0  501 -0.00000000000E+00  0.00000000000E+00  0.78398679816E+01  0.78398683963E+01  0.25500000000E-02 0. -1.
          2   -1    0    0  501    0  0.00000000000E+00 -0.00000000000E+00 -0.86497255426E+03  0.86497255426E+03  0.25500000000E-02 0.  1.
    5000001    1    1    2    0    0 -0.23438354875E+02  0.12388404643E+02 -0.49335088258E+03  0.50002692166E+03  0.77000000000E+02 0.  0.
   -5000001    1    1    2    0    0  0.23438354875E+02 -0.12388404643E+02 -0.36378180370E+03  0.37278550099E+03  0.77000000000E+02 0.  0.
<mgrwt>
<rscale>  0 0.16469694E+03</rscale>
<asrwt>0</asrwt>
<pdfrwt beam="1">  1        2 0.13307263E+00 0.16469694E+03</pdfrwt>
<pdfrwt beam="2">  1       -2 0.12061343E-02 0.16469694E+03</pdfrwt>
<totfact> 0.49631193E+04</totfact>
</mgrwt>
</event>
<event>
 4    1  0.6086918E-004  0.3060208E+03  0.7818608E-02  0.1082269E+00
          2   -1    0    0  501    0  0.00000000000E+00  0.00000000000E+00  0.26374949010E+03  0.26374949011E+03  0.25500000000E-02 0.  1.
         -2   -1    0    0    0  501 -0.00000000000E+00 -0.00000000000E+00 -0.88766735104E+02  0.88766735140E+02  0.25500000000E-02 0. -1.
    5000001    1    1    2    0    0  0.11127810344E+03  0.67232449281E+02  0.59745207846E+02  0.16248540982E+03  0.77000000000E+02 0.  0.
   -5000001    1    1    2    0    0 -0.11127810344E+03 -0.67232449281E+02  0.11523754715E+03  0.19003081544E+03  0.77000000000E+02 0.  0.
<mgrwt>
<rscale>  0 0.30602079E+03</rscale>
<asrwt>0</asrwt>
<pdfrwt beam="1">  1        2 0.40576844E-01 0.30602079E+03</pdfrwt>
<pdfrwt beam="2">  1       -2 0.13656421E-01 0.30602079E+03</pdfrwt>
<totfact> 0.50227785E+03</totfact>
</mgrwt>
</event>
<event>
 4    1  0.6086918E-004  0.2135829E+03  0.7818608E-02  0.1138760E+00
          2   -1    0    0  501    0  0.00000000000E+00  0.00000000000E+00  0.20512534979E+04  0.20512534979E+04  0.25500000000E-02 0.  1.
         -2   -1    0    0    0  501 -0.00000000000E+00 -0.00000000000E+00 -0.55597270973E+01  0.55597276821E+01  0.25500000000E-02 0. -1.
    5000001    1    1    2    0    0  0.80839380362E+01 -0.72564020850E+02  0.90707661374E+03  0.91326221337E+03  0.77000000000E+02 0.  0.
   -5000001    1    1    2    0    0 -0.80839380362E+01  0.72564020850E+02  0.11386171570E+04  0.11435510122E+04  0.77000000000E+02 0.  0.
<mgrwt>
<rscale>  0 0.21358287E+03</rscale>
<asrwt>0</asrwt>
<pdfrwt beam="1">  1        2 0.31557752E+00 0.21358287E+03</pdfrwt>
<pdfrwt beam="2">  1       -2 0.85534251E-03 0.21358287E+03</pdfrwt>
<totfact> 0.18525335E+04</totfact>
</mgrwt>
</event>
<event>
 4    1  0.6086918E-004  0.1945907E+03  0.7818608E-02  0.1154385E+00
          2   -1    0    0  501    0  0.00000000000E+00  0.00000000000E+00  0.63736326390E+02  0.63736326441E+02  0.25500000000E-02 0.  1.
         -2   -1    0    0    0  501 -0.00000000000E+00 -0.00000000000E+00 -0.14852424325E+03  0.14852424327E+03  0.25500000000E-02 0. -1.
    5000001    1    1    2    0    0 -0.12102803225E+02 -0.58224638128E+02 -0.43371627221E+02  0.10652081665E+03  0.77000000000E+02 0.  0.
   -5000001    1    1    2    0    0  0.12102803225E+02  0.58224638128E+02 -0.41416289637E+02  0.10573975307E+03  0.77000000000E+02 0.  0.
<mgrwt>
<rscale>  0 0.19459075E+03</rscale>
<asrwt>0</asrwt>
<pdfrwt beam="1">  1        2 0.98055888E-02 0.19459075E+03</pdfrwt>
<pdfrwt beam="2">  1       -2 0.22849883E-01 0.19459075E+03</pdfrwt>
<totfact> 0.10570042E+04</totfact>
</mgrwt>
</event>
<event>
 4    1  0.6086918E-004  0.2925584E+03  0.7818608E-02  0.1089021E+00
         -2   -1    0    0    0  501 -0.00000000000E+00  0.00000000000E+00  0.13835878837E+03  0.13835878839E+03  0.25500000000E-02 0. -1.
          2   -1    0    0  501    0  0.00000000000E+00 -0.00000000000E+00 -0.15465305719E+03  0.15465305722E+03  0.25500000000E-02 0.  1.
    5000001    1    1    2    0    0 -0.71428443110E+02 -0.96687763226E+02  0.23809424028E+02  0.14472883167E+03  0.77000000000E+02 0.  0.
   -5000001    1    1    2    0    0  0.71428443110E+02  0.96687763226E+02 -0.40103692854E+02  0.14828301394E+03  0.77000000000E+02 0.  0.
<mgrwt>
<rscale>  0 0.29255844E+03</rscale>
<asrwt>0</asrwt>
<pdfrwt beam="1">  1        2 0.23792778E-01 0.29255844E+03</pdfrwt>
<pdfrwt beam="2">  1       -2 0.21285968E-01 0.29255844E+03</pdfrwt>
<totfact> 0.42785869E+03</totfact>
</mgrwt>
</event>
<event>
 4    1  0.6086918E-004  0.3163409E+03  0.7818608E-02  0.1077346E+00
          2   -1    0    0  501    0  0.00000000000E+00  0.00000000000E+00  0.38292107894E+03  0.38292107895E+03  0.25500000000E-02 0.  1.
         -2   -1    0    0    0  501 -0.00000000000E+00 -0.00000000000E+00 -0.65334320553E+02  0.65334320603E+02  0.25500000000E-02 0. -1.
    5000001    1    1    2    0    0  0.23811855333E+01  0.13241910742E+03  0.10303481587E+03  0.18462303035E+03  0.77000000000E+02 0.  0.
   -5000001    1    1    2    0    0 -0.23811855333E+01 -0.13241910742E+03  0.21455194252E+03  0.26363236921E+03  0.77000000000E+02 0.  0.
<mgrwt>
<rscale>  0 0.31634088E+03</rscale>
<asrwt>0</asrwt>
<pdfrwt beam="1">  1        2 0.58910934E-01 0.31634088E+03</pdfrwt>
<pdfrwt beam="2">  1       -2 0.10051434E-01 0.31634088E+03</pdfrwt>
<totfact> 0.55122408E+03</totfact>
</mgrwt>
</event>
<event>
 4    1  0.6086918E-004  0.1682346E+03  0.7818608E-02  0.1179701E+00
         -2   -1    0    0    0  501 -0.00000000000E+00  0.00000000000E+00  0.48824723143E+02  0.48824723210E+02  0.25500000000E-02 0. -1.
          2   -1    0    0  501    0  0.00000000000E+00 -0.00000000000E+00 -0.14492086093E+03  0.14492086095E+03  0.25500000000E-02 0.  1.
    5000001    1    1    2    0    0  0.22106170795E+02  0.23365800090E+02 -0.60240090558E+02  0.10291992961E+03  0.77000000000E+02 0.  0.
   -5000001    1    1    2    0    0 -0.22106170795E+02 -0.23365800090E+02 -0.35856047225E+02  0.90825654546E+02  0.77000000000E+02 0.  0.
<mgrwt>
<rscale>  0 0.16823461E+03</rscale>
<asrwt>0</asrwt>
<pdfrwt beam="1">  1        2 0.22295517E-01 0.16823461E+03</pdfrwt>
<pdfrwt beam="2">  1       -2 0.75114959E-02 0.16823461E+03</pdfrwt>
<totfact> 0.24179411E+04</totfact>
</mgrwt>
</event>
<event>
 4    1  0.6086918E-004  0.1939474E+03  0.7818608E-02  0.1154948E+00
          2   -1    0    0  501    0  0.00000000000E+00  0.00000000000E+00  0.22831140199E+04  0.22831140199E+04  0.25500000000E-02 0.  1.
         -2   -1    0    0    0  501 -0.00000000000E+00 -0.00000000000E+00 -0.41188916776E+01  0.41188924669E+01  0.25500000000E-02 0. -1.
    5000001    1    1    2    0    0  0.14944693945E+02 -0.27561264304E+02  0.55079683130E+03  0.55703601009E+03  0.77000000000E+02 0.  0.
   -5000001    1    1    2    0    0 -0.14944693945E+02  0.27561264304E+02  0.17281982969E+04  0.17301969023E+04  0.77000000000E+02 0.  0.
<mgrwt>
<rscale>  0 0.19394742E+03</rscale>
<asrwt>0</asrwt>
<pdfrwt beam="1">  1        2 0.35124857E+00 0.19394742E+03</pdfrwt>
<pdfrwt beam="2">  1       -2 0.63367524E-03 0.19394742E+03</pdfrwt>
<totfact> 0.21463047E+04</totfact>
</mgrwt>
</event>
<event>
 4    1  0.6086918E-004  0.2413259E+03  0.7818608E-02  0.1118913E+00
          2   -1    0    0  501    0  0.00000000000E+00  0.00000000000E+00  0.24945188221E+04  0.24945188221E+04  0.25500000000E-02 0.  1.
         -2   -1    0    0    0  501 -0.00000000000E+00 -0.00000000000E+00 -0.58366158760E+01  0.58366164330E+01  0.25500000000E-02 0. -1.
    5000001    1    1    2    0    0  0.29351694957E+01  0.59465166832E+02  0.50545310636E+03  0.51473931656E+03  0.77000000000E+02 0.  0.
   -5000001    1    1    2    0    0 -0.29351694957E+01 -0.59465166832E+02  0.19832290998E+04  0.19856161219E+04  0.77000000000E+02 0.  0.
<mgrwt>
<rscale>  0 0.24132591E+03</rscale>
<asrwt>0</asrwt>
<pdfrwt beam="1">  1        2 0.38377218E+00 0.24132591E+03</pdfrwt>
<pdfrwt beam="2">  1       -2 0.89794083E-03 0.24132591E+03</pdfrwt>
<totfact> 0.10056281E+04</totfact>
</mgrwt>
</event>
<event>
 4    1  0.6086918E-004  0.2111824E+03  0.7818608E-02  0.1140633E+00
          2   -1    0    0  501    0  0.00000000000E+00  0.00000000000E+00  0.33294297872E+03  0.33294297873E+03  0.25500000000E-02 0.  1.
         -2   -1    0    0    0  501 -0.00000000000E+00 -0.00000000000E+00 -0.33487719345E+02  0.33487719442E+02  0.25500000000E-02 0. -1.
    5000001    1    1    2    0    0  0.32032890411E+02 -0.64699374876E+02  0.14470295164E+03  0.17910907121E+03  0.77000000000E+02 0.  0.
   -5000001    1    1    2    0    0 -0.32032890411E+02  0.64699374876E+02  0.15475230774E+03  0.18732162696E+03  0.77000000000E+02 0.  0.
<mgrwt>
<rscale>  0 0.21118240E+03</rscale>
<asrwt>0</asrwt>
<pdfrwt beam="1">  1        2 0.51221999E-01 0.21118240E+03</pdfrwt>
<pdfrwt beam="2">  1       -2 0.51519566E-02 0.21118240E+03</pdfrwt>
<totfact> 0.17754967E+04</totfact>
</mgrwt>
</event>
<event>
 4    1  0.6086918E-004  0.2434421E+03  0.7818608E-02  0.1117521E+00
         -2   -1    0    0    0  501 -0.00000000000E+00  0.00000000000E+00  0.25439793494E+02  0.25439793621E+02  0.25500000000E-02 0. -1.
          2   -1    0    0  501    0  0.00000000000E+00 -0.00000000000E+00 -0.58239537280E+03  0.58239537281E+03  0.25500000000E-02 0.  1.
    5000001    1    1    2    0    0 -0.43117876799E+02 -0.80994545775E+02 -0.33247820750E+03  0.35339782994E+03  0.77000000000E+02 0.  0.
   -5000001    1    1    2    0    0  0.43117876799E+02  0.80994545775E+02 -0.22447737181E+03  0.25443733649E+03  0.77000000000E+02 0.  0.
<mgrwt>
<rscale>  0 0.24344213E+03</rscale>
<asrwt>0</asrwt>
<pdfrwt beam="1">  1        2 0.89599278E-01 0.24344213E+03</pdfrwt>
<pdfrwt beam="2">  1       -2 0.39138148E-02 0.24344213E+03</pdfrwt>
<totfact> 0.14655035E+04</totfact>
</mgrwt>
</event>
<event>
 4    1  0.6086918E-004  0.1751000E+03  0.7818608E-02  0.1172631E+00
          2   -1    0    0  501    0  0.00000000000E+00  0.00000000000E+00  0.90660091002E+02  0.90660091038E+02  0.25500000000E-02 0.  1.
         -2   -1    0    0    0  501 -0.00000000000E+00 -0.00000000000E+00 -0.84546639896E+02  0.84546639935E+02  0.25500000000E-02 0. -1.
    5000001    1    1    2    0    0 -0.14565232706E+02 -0.30743264031E+02  0.27127812579E+02  0.88443272793E+02  0.77000000000E+02 0.  0.
   -5000001    1    1    2    0    0  0.14565232706E+02  0.30743264031E+02 -0.21014361474E+02  0.86763458179E+02  0.77000000000E+02 0.  0.
<mgrwt>
<rscale>  0 0.17510004E+03</rscale>
<asrwt>0</asrwt>
<pdfrwt beam="1">  1        2 0.13947706E-01 0.17510004E+03</pdfrwt>
<pdfrwt beam="2">  1       -2 0.13007175E-01 0.17510004E+03</pdfrwt>
<totfact> 0.17531423E+04</totfact>
</mgrwt>
</event>
<event>
 4    1  0.6086918E-004  0.2572364E+03  0.7818608E-02  0.1108815E+00
         -2   -1    0    0    0  501 -0.00000000000E+00  0.00000000000E+00  0.10519633943E+02  0.10519634252E+02  0.25500000000E-02 0. -1.
          2   -1    0    0  501    0  0.00000000000E+00 -0.00000000000E+00 -0.15725491307E+04  0.15725491307E+04  0.25500000000E-02 0.  1.
    5000001    1    1    2    0    0 -0.10890063227E+02 -0.87266185019E+02 -0.45076839317E+03  0.46567706064E+03  0.77000000000E+02 0.  0.
   -5000001    1    1    2    0    0  0.10890063227E+02  0.87266185019E+02 -0.11112611036E+04  0.11173917043E+04  0.77000000000E+02 0.  0.
<mgrwt>
<rscale>  0 0.25723640E+03</rscale>
<asrwt>0</asrwt>
<pdfrwt beam="1">  1        2 0.24193045E+00 0.25723640E+03</pdfrwt>
<pdfrwt beam="2">  1       -2 0.16184065E-02 0.25723640E+03</pdfrwt>
<totfact> 0.13144401E+04</totfact>
</mgrwt>
</event>
<event>
 4    1  0.6086918E-004  0.3295662E+03  0.7818608E-02  0.1071329E+00
          2   -1    0    0  501    0  0.00000000000E+00  0.00000000000E+00  0.81727381630E+02  0.81727381670E+02  0.25500000000E-02 0.  1.
         -2   -1    0    0    0  501 -0.00000000000E+00 -0.00000000000E+00 -0.33224438270E+03  0.33224438271E+03  0.25500000000E-02 0. -1.
    5000001    1    1    2    0    0 -0.13160783723E+03  0.33285399949E+02 -0.19167725028E+03  0.24717950753E+03  0.77000000000E+02 0.  0.
   -5000001    1    1    2    0    0  0.13160783723E+03 -0.33285399949E+02 -0.58839750789E+02  0.16679225684E+03  0.77000000000E+02 0.  0.
<mgrwt>
<rscale>  0 0.32956616E+03</rscale>
<asrwt>0</asrwt>
<pdfrwt beam="1">  1        2 0.12573443E-01 0.32956616E+03</pdfrwt>
<pdfrwt beam="2">  1       -2 0.51114520E-01 0.32956616E+03</pdfrwt>
<totfact> 0.17794287E+03</totfact>
</mgrwt>
</event>
<event>
 4    1  0.6086918E-004  0.3298556E+03  0.7818608E-02  0.1071201E+00
          2   -1    0    0  501    0  0.00000000000E+00  0.00000000000E+00  0.68192093246E+03  0.68192093246E+03  0.25500000000E-02 0.  1.
         -2   -1    0    0    0  501 -0.00000000000E+00 -0.00000000000E+00 -0.39889063523E+02  0.39889063605E+02  0.25500000000E-02 0. -1.
    5000001    1    1    2    0    0  0.99684519254E+02 -0.54037940931E+02  0.12027856985E+03  0.18235415215E+03  0.77000000000E+02 0.  0.
   -5000001    1    1    2    0    0 -0.99684519254E+02  0.54037940931E+02  0.52175329908E+03  0.53945584392E+03  0.77000000000E+02 0.  0.
<mgrwt>
<rscale>  0 0.32985565E+03</rscale>
<asrwt>0</asrwt>
<pdfrwt beam="1">  1        2 0.10491091E+00 0.32985565E+03</pdfrwt>
<pdfrwt beam="2">  1       -2 0.61367790E-02 0.32985565E+03</pdfrwt>
<totfact> 0.62072379E+03</totfact>
</mgrwt>
</event>
<event>
 4    1  0.6086918E-004  0.1989413E+03  0.7818608E-02  0.1150635E+00
         -2   -1    0    0    0  501 -0.00000000000E+00  0.00000000000E+00  0.56412123316E+02  0.56412123374E+02  0.25500000000E-02 0. -1.
          2   -1    0    0  501    0  0.00000000000E+00 -0.00000000000E+00 -0.17539506828E+03  0.17539506830E+03  0.25500000000E-02 0.  1.
    5000001    1    1    2    0    0 -0.57058102245E+02  0.17903273791E+01 -0.90464340049E+02  0.13180147618E+03  0.77000000000E+02 0.  0.
   -5000001    1    1    2    0    0  0.57058102245E+02 -0.17903273791E+01 -0.28518604916E+02  0.10000571549E+03  0.77000000000E+02 0.  0.
<mgrwt>
<rscale>  0 0.19894128E+03</rscale>
<asrwt>0</asrwt>
<pdfrwt beam="1">  1        2 0.26983856E-01 0.19894128E+03</pdfrwt>
<pdfrwt beam="2">  1       -2 0.86787883E-02 0.19894128E+03</pdfrwt>
<totfact> 0.15839095E+04</totfact>
</mgrwt>
</event>
<event>
 4    1  0.6086918E-004  0.1953395E+03  0.7818608E-02  0.1153732E+00
         -2   -1    0    0    0  501 -0.00000000000E+00  0.00000000000E+00  0.16306144328E+03  0.16306144330E+03  0.25500000000E-02 0. -1.
          2   -1    0    0  501    0  0.00000000000E+00 -0.00000000000E+00 -0.58501740387E+02  0.58501740443E+02  0.25500000000E-02 0.  1.
    5000001    1    1    2    0    0  0.24739638054E+02  0.54463282349E+02  0.58704077099E+02  0.11381330100E+03  0.77000000000E+02 0.  0.
   -5000001    1    1    2    0    0 -0.24739638054E+02 -0.54463282349E+02  0.45855625795E+02  0.10774988275E+03  0.77000000000E+02 0.  0.
<mgrwt>
<rscale>  0 0.19533948E+03</rscale>
<asrwt>0</asrwt>
<pdfrwt beam="1">  1        2 0.90002678E-02 0.19533948E+03</pdfrwt>
<pdfrwt beam="2">  1       -2 0.25086376E-01 0.19533948E+03</pdfrwt>
<totfact> 0.99933919E+03</totfact>
</mgrwt>
</event>
<event>
 4    1  0.6086918E-004  0.2772110E+03  0.7818608E-02  0.1097222E+00
         -2   -1    0    0    0  501 -0.00000000000E+00  0.00000000000E+00  0.27136147005E+02  0.27136147125E+02  0.25500000000E-02 0. -1.
          2   -1    0    0  501    0  0.00000000000E+00 -0.00000000000E+00 -0.70796647881E+03  0.70796647882E+03  0.25500000000E-02 0.  1.
    5000001    1    1    2    0    0  0.57352785968E+02  0.85434399313E+02 -0.20277515299E+03  0.24007319991E+03  0.77000000000E+02 0.  0.
   -5000001    1    1    2    0    0 -0.57352785968E+02 -0.85434399313E+02 -0.47805517881E+03  0.49502942603E+03  0.77000000000E+02 0.  0.
<mgrwt>
<rscale>  0 0.27721098E+03</rscale>
<asrwt>0</asrwt>
<pdfrwt beam="1">  1        2 0.10891791E+00 0.27721098E+03</pdfrwt>
<pdfrwt beam="2">  1       -2 0.41747924E-02 0.27721098E+03</pdfrwt>
<totfact> 0.10617999E+04</totfact>
</mgrwt>
</event>
<event>
 4    1  0.6086918E-004  0.5138477E+03  0.7818608E-02  0.1010226E+00
          2   -1    0    0  501    0  0.00000000000E+00  0.00000000000E+00  0.15614651464E+04  0.15614651464E+04  0.25500000000E-02 0.  1.
         -2   -1    0    0    0  501 -0.00000000000E+00 -0.00000000000E+00 -0.42274319624E+02  0.42274319701E+02  0.25500000000E-02 0. -1.
    5000001    1    1    2    0    0 -0.88471885968E+02 -0.20492276330E+03  0.10757348037E+04  0.11013423543E+04  0.77000000000E+02 0.  0.
   -5000001    1    1    2    0    0  0.88471885968E+02  0.20492276330E+03  0.44345602308E+03  0.50239711179E+03  0.77000000000E+02 0.  0.
<mgrwt>
<rscale>  0 0.51384775E+03</rscale>
<asrwt>0</asrwt>
<pdfrwt beam="1">  1        2 0.24022546E+00 0.51384775E+03</pdfrwt>
<pdfrwt beam="2">  1       -2 0.65037401E-02 0.51384775E+03</pdfrwt>
<totfact> 0.16371827E+03</totfact>
</mgrwt>
</event>
<event>
 4    1  0.6086918E-004  0.3097438E+03  0.7818608E-02  0.1080469E+00
         -2   -1    0    0    0  501 -0.00000000000E+00  0.00000000000E+00  0.20019758264E+02  0.20019758426E+02  0.25500000000E-02 0. -1.
          2   -1    0    0  501    0  0.00000000000E+00 -0.00000000000E+00 -0.11980816176E+04  0.11980816176E+04  0.25500000000E-02 0.  1.
    5000001    1    1    2    0    0 -0.35963077626E+02 -0.12943436170E+03 -0.57677813772E+03  0.59720065061E+03  0.77000000000E+02 0.  0.
   -5000001    1    1    2    0    0  0.35963077626E+02  0.12943436170E+03 -0.60128372159E+03  0.62090072539E+03  0.77000000000E+02 0.  0.
<mgrwt>
<rscale>  0 0.30974379E+03</rscale>
<asrwt>0</asrwt>
<pdfrwt beam="1">  1        2 0.18432019E+00 0.30974379E+03</pdfrwt>
<pdfrwt beam="2">  1       -2 0.30799638E-02 0.30974379E+03</pdfrwt>
<totfact> 0.81746412E+03</totfact>
</mgrwt>
</event>
<event>
 4    1  0.6086918E-004  0.1678552E+03  0.7818608E-02  0.1180103E+00
          2   -1    0    0  501    0  0.00000000000E+00  0.00000000000E+00  0.17826277864E+04  0.17826277864E+04  0.25500000000E-02 0.  1.
         -2   -1    0    0    0  501 -0.00000000000E+00 -0.00000000000E+00 -0.39513830406E+01  0.39513838634E+01  0.25500000000E-02 0. -1.
    5000001    1    1    2    0    0  0.23918095336E+02 -0.23280931962E+02  0.89867099354E+03  0.90258109425E+03  0.77000000000E+02 0.  0.
   -5000001    1    1    2    0    0 -0.23918095336E+02  0.23280931962E+02  0.88000540986E+03  0.88399807605E+03  0.77000000000E+02 0.  0.
<mgrwt>
<rscale>  0 0.16785525E+03</rscale>
<asrwt>0</asrwt>
<pdfrwt beam="1">  1        2 0.27425041E+00 0.16785525E+03</pdfrwt>
<pdfrwt beam="2">  1       -2 0.60790518E-03 0.16785525E+03</pdfrwt>
<totfact> 0.41163325E+04</totfact>
</mgrwt>
</event>
<event>
 4    1  0.6086918E-004  0.1823449E+03  0.7818608E-02  0.1165553E+00
          2   -1    0    0  501    0  0.00000000000E+00  0.00000000000E+00  0.13553256145E+04  0.13553256145E+04  0.25500000000E-02 0.  1.
         -2   -1    0    0    0  501 -0.00000000000E+00 -0.00000000000E+00 -0.61331520473E+01  0.61331525774E+01  0.25500000000E-02 0. -1.
    5000001    1    1    2    0    0 -0.22386171866E+02  0.42870396717E+02  0.62484135413E+03  0.63142278185E+03  0.77000000000E+02 0.  0.
   -5000001    1    1    2    0    0  0.22386171866E+02 -0.42870396717E+02  0.72435110835E+03  0.73003598525E+03  0.77000000000E+02 0.  0.
<mgrwt>
<rscale>  0 0.18234493E+03</rscale>
<asrwt>0</asrwt>
<pdfrwt beam="1">  1        2 0.20851169E+00 0.18234493E+03</pdfrwt>
<pdfrwt beam="2">  1       -2 0.94356163E-03 0.18234493E+03</pdfrwt>
<totfact> 0.36933465E+04</totfact>
</mgrwt>
</event>
<event>
 4    1  0.6086918E-004  0.2877355E+03  0.7818608E-02  0.1091537E+00
         -2   -1    0    0    0  501 -0.00000000000E+00  0.00000000000E+00  0.67518698958E+02  0.67518699007E+02  0.25500000000E-02 0. -1.
          2   -1    0    0  501    0  0.00000000000E+00 -0.00000000000E+00 -0.30655106236E+03  0.30655106237E+03  0.25500000000E-02 0.  1.
    5000001    1    1    2    0    0 -0.98406197691E+02 -0.70273907543E+02 -0.10376858444E+03  0.17697209086E+03  0.77000000000E+02 0.  0.
   -5000001    1    1    2    0    0  0.98406197691E+02  0.70273907543E+02 -0.13526377895E+03  0.19709767051E+03  0.77000000000E+02 0.  0.
<mgrwt>
<rscale>  0 0.28773550E+03</rscale>
<asrwt>0</asrwt>
<pdfrwt beam="1">  1        2 0.47161701E-01 0.28773550E+03</pdfrwt>
<pdfrwt beam="2">  1       -2 0.10387492E-01 0.28773550E+03</pdfrwt>
<totfact> 0.66351349E+03</totfact>
</mgrwt>
</event>
<event>
 4    1  0.6086918E-004  0.2370062E+03  0.7818608E-02  0.1121803E+00
         -2   -1    0    0    0  501 -0.00000000000E+00  0.00000000000E+00  0.20820219175E+02  0.20820219331E+02  0.25500000000E-02 0. -1.
          2   -1    0    0  501    0  0.00000000000E+00 -0.00000000000E+00 -0.67448811058E+03  0.67448811058E+03  0.25500000000E-02 0.  1.
    5000001    1    1    2    0    0 -0.80188210495E+02 -0.19394601413E+02 -0.22074499531E+03  0.24791864113E+03  0.77000000000E+02 0.  0.
   -5000001    1    1    2    0    0  0.80188210495E+02  0.19394601413E+02 -0.43292289609E+03  0.44738968878E+03  0.77000000000E+02 0.  0.
<mgrwt>
<rscale>  0 0.23700625E+03</rscale>
<asrwt>0</asrwt>
<pdfrwt beam="1">  1        2 0.10376739E+00 0.23700625E+03</pdfrwt>
<pdfrwt beam="2">  1       -2 0.32031112E-02 0.23700625E+03</pdfrwt>
<totfact> 0.16623902E+04</totfact>
</mgrwt>
</event>
<event>
 4    1  0.6086918E-004  0.2413875E+03  0.7818608E-02  0.1118872E+00
          2   -1    0    0  501    0  0.00000000000E+00  0.00000000000E+00  0.22621052173E+04  0.22621052173E+04  0.25500000000E-02 0.  1.
         -2   -1    0    0    0  501 -0.00000000000E+00 -0.00000000000E+00 -0.64395689636E+01  0.64395694685E+01  0.25500000000E-02 0. -1.
    5000001    1    1    2    0    0 -0.92607608625E+02 -0.78094367589E+01  0.11192882100E+04  0.11257762893E+04  0.77000000000E+02 0.  0.
   -5000001    1    1    2    0    0  0.92607608625E+02  0.78094367589E+01  0.11363774384E+04  0.11427684975E+04  0.77000000000E+02 0.  0.
<mgrwt>
<rscale>  0 0.24138752E+03</rscale>
<asrwt>0</asrwt>
<pdfrwt beam="1">  1        2 0.34801651E+00 0.24138752E+03</pdfrwt>
<pdfrwt beam="2">  1       -2 0.99070203E-03 0.24138752E+03</pdfrwt>
<totfact> 0.11634720E+04</totfact>
</mgrwt>
</event>
<event>
 4    1  0.6086918E-004  0.3769697E+03  0.7818608E-02  0.1052059E+00
          2   -1    0    0  501    0  0.00000000000E+00  0.00000000000E+00  0.11658731593E+04  0.11658731593E+04  0.25500000000E-02 0.  1.
         -2   -1    0    0    0  501 -0.00000000000E+00 -0.00000000000E+00 -0.30472041825E+02  0.30472041932E+02  0.25500000000E-02 0. -1.
    5000001    1    1    2    0    0 -0.13046831096E+03  0.11016752320E+03  0.63416972691E+03  0.66125570384E+03  0.77000000000E+02 0.  0.
   -5000001    1    1    2    0    0  0.13046831096E+03 -0.11016752320E+03  0.50123139054E+03  0.53508949737E+03  0.77000000000E+02 0.  0.
<mgrwt>
<rscale>  0 0.37696968E+03</rscale>
<asrwt>0</asrwt>
<pdfrwt beam="1">  1        2 0.17936510E+00 0.37696968E+03</pdfrwt>
<pdfrwt beam="2">  1       -2 0.46880065E-02 0.37696968E+03</pdfrwt>
<totfact> 0.45338727E+03</totfact>
</mgrwt>
</event>
<event>
 4    1  0.6086918E-004  0.1886432E+03  0.7818608E-02  0.1159691E+00
         -2   -1    0    0    0  501 -0.00000000000E+00  0.00000000000E+00  0.31166108968E+02  0.31166109073E+02  0.25500000000E-02 0. -1.
          2   -1    0    0  501    0  0.00000000000E+00 -0.00000000000E+00 -0.28545635765E+03  0.28545635766E+03  0.25500000000E-02 0.  1.
    5000001    1    1    2    0    0  0.14279632355E+02  0.40712744362E+02 -0.18296686481E+03  0.20314356764E+03  0.77000000000E+02 0.  0.
   -5000001    1    1    2    0    0 -0.14279632355E+02 -0.40712744362E+02 -0.71323383874E+02  0.11347889910E+03  0.77000000000E+02 0.  0.
<mgrwt>
<rscale>  0 0.18864320E+03</rscale>
<asrwt>0</asrwt>
<pdfrwt beam="1">  1        2 0.43916361E-01 0.18864320E+03</pdfrwt>
<pdfrwt beam="2">  1       -2 0.47947862E-02 0.18864320E+03</pdfrwt>
<totfact> 0.23138562E+04</totfact>
</mgrwt>
</event>
<event>
 4    1  0.6086918E-004  0.1945785E+03  0.7818608E-02  0.1154395E+00
         -2   -1    0    0    0  501 -0.00000000000E+00  0.00000000000E+00  0.54611167955E+01  0.54611173908E+01  0.25500000000E-02 0. -1.
          2   -1    0    0  501    0  0.00000000000E+00 -0.00000000000E+00 -0.17331982292E+04  0.17331982292E+04  0.25500000000E-02 0.  1.
    5000001    1    1    2    0    0  0.49334128543E+02  0.24946567514E+02 -0.10596381503E+04  0.10638694454E+04  0.77000000000E+02 0.  0.
   -5000001    1    1    2    0    0 -0.49334128543E+02 -0.24946567514E+02 -0.66809896218E+03  0.67478990118E+03  0.77000000000E+02 0.  0.
<mgrwt>
<rscale>  0 0.19457850E+03</rscale>
<asrwt>0</asrwt>
<pdfrwt beam="1">  1        2 0.26664544E+00 0.19457850E+03</pdfrwt>
<pdfrwt beam="2">  1       -2 0.84017325E-03 0.19457850E+03</pdfrwt>
<totfact> 0.27704528E+04</totfact>
</mgrwt>
</event>
<event>
 4    1  0.6086918E-004  0.2167248E+03  0.7818608E-02  0.1136349E+00
         -2   -1    0    0    0  501 -0.00000000000E+00  0.00000000000E+00  0.40225071773E+01  0.40225079856E+01  0.25500000000E-02 0. -1.
          2   -1    0    0  501    0  0.00000000000E+00 -0.00000000000E+00 -0.29191765312E+04  0.29191765312E+04  0.25500000000E-02 0.  1.
    5000001    1    1    2    0    0 -0.54922742651E+02 -0.88966347267E+01 -0.21607378667E+04  0.21628251863E+04  0.77000000000E+02 0.  0.
   -5000001    1    1    2    0    0  0.54922742651E+02  0.88966347267E+01 -0.75441615723E+03  0.76037385282E+03  0.77000000000E+02 0.  0.
<mgrwt>
<rscale>  0 0.21672480E+03</rscale>
<asrwt>0</asrwt>
<pdfrwt beam="1">  1        2 0.44910239E+00 0.21672480E+03</pdfrwt>
<pdfrwt beam="2">  1       -2 0.61884965E-03 0.21672480E+03</pdfrwt>
<totfact> 0.99270723E+03</totfact>
</mgrwt>
</event>
<event>
 4    1  0.6086918E-004  0.1831079E+03  0.7818608E-02  0.1164829E+00
         -2   -1    0    0    0  501 -0.00000000000E+00  0.00000000000E+00  0.16332670631E+02  0.16332670830E+02  0.25500000000E-02 0. -1.
          2   -1    0    0  501    0  0.00000000000E+00 -0.00000000000E+00 -0.51321216622E+03  0.51321216623E+03  0.25500000000E-02 0.  1.
    5000001    1    1    2    0    0  0.16395088356E+02 -0.35485469582E+02 -0.16047840476E+03  0.18223703210E+03  0.77000000000E+02 0.  0.
   -5000001    1    1    2    0    0 -0.16395088356E+02  0.35485469582E+02 -0.33640109083E+03  0.34730780496E+03  0.77000000000E+02 0.  0.
<mgrwt>
<rscale>  0 0.18310790E+03</rscale>
<asrwt>0</asrwt>
<pdfrwt beam="1">  1        2 0.78955706E-01 0.18310790E+03</pdfrwt>
<pdfrwt beam="2">  1       -2 0.25127190E-02 0.18310790E+03</pdfrwt>
<totfact> 0.32017533E+04</totfact>
</mgrwt>
</event>
<event>
 4    1  0.6086918E-004  0.4805261E+03  0.7818608E-02  0.1018991E+00
         -2   -1    0    0    0  501 -0.00000000000E+00  0.00000000000E+00  0.26903948881E+02  0.26903949001E+02  0.25500000000E-02 0. -1.
          2   -1    0    0  501    0  0.00000000000E+00 -0.00000000000E+00 -0.21456456288E+04  0.21456456288E+04  0.25500000000E-02 0.  1.
    5000001    1    1    2    0    0  0.11042734532E+03 -0.19057993400E+03 -0.13184010777E+04  0.13388895815E+04  0.77000000000E+02 0.  0.
   -5000001    1    1    2    0    0 -0.11042734532E+03  0.19057993400E+03 -0.80034060225E+03  0.83365999630E+03  0.77000000000E+02 0.  0.
<mgrwt>
<rscale>  0 0.48052613E+03</rscale>
<asrwt>0</asrwt>
<pdfrwt beam="1">  1        2 0.33009920E+00 0.48052613E+03</pdfrwt>
<pdfrwt beam="2">  1       -2 0.41390707E-02 0.48052613E+03</pdfrwt>
<totfact> 0.15984679E+03</totfact>
</mgrwt>
</event>
<event>
 4    1  0.6086918E-004  0.2731522E+03  0.7818608E-02  0.1099489E+00
         -2   -1    0    0    0  501 -0.00000000000E+00  0.00000000000E+00  0.69249217803E+01  0.69249222498E+01  0.25500000000E-02 0. -1.
          2   -1    0    0  501    0  0.00000000000E+00 -0.00000000000E+00 -0.26936087302E+04  0.26936087302E+04  0.25500000000E-02 0.  1.
    5000001    1    1    2    0    0 -0.79449436078E+02  0.47303221923E+02 -0.70458926624E+03  0.71479006834E+03  0.77000000000E+02 0.  0.
   -5000001    1    1    2    0    0  0.79449436078E+02 -0.47303221923E+02 -0.19820945421E+04  0.19857435841E+04  0.77000000000E+02 0.  0.
<mgrwt>
<rscale>  0 0.27315219E+03</rscale>
<asrwt>0</asrwt>
<pdfrwt beam="1">  1        2 0.41440051E+00 0.27315219E+03</pdfrwt>
<pdfrwt beam="2">  1       -2 0.10653748E-02 0.27315219E+03</pdfrwt>
<totfact> 0.60884313E+03</totfact>
</mgrwt>
</event>
<event>
 4    1  0.6086918E-004  0.2027530E+03  0.7818608E-02  0.1147437E+00
          2   -1    0    0  501    0  0.00000000000E+00  0.00000000000E+00  0.69055121043E+03  0.69055121044E+03  0.25500000000E-02 0.  1.
         -2   -1    0    0    0  501 -0.00000000000E+00 -0.00000000000E+00 -0.14882601555E+02  0.14882601773E+02  0.25500000000E-02 0. -1.
    5000001    1    1    2    0    0 -0.43524004874E+02 -0.12598039597E+02  0.17115013940E+03  0.19306584322E+03  0.77000000000E+02 0.  0.
   -5000001    1    1    2    0    0  0.43524004874E+02  0.12598039597E+02  0.50451846948E+03  0.51236796899E+03  0.77000000000E+02 0.  0.
<mgrwt>
<rscale>  0 0.20275304E+03</rscale>
<asrwt>0</asrwt>
<pdfrwt beam="1">  1        2 0.10623866E+00 0.20275304E+03</pdfrwt>
<pdfrwt beam="2">  1       -2 0.22896307E-02 0.20275304E+03</pdfrwt>
<totfact> 0.26290612E+04</totfact>
</mgrwt>
</event>
<event>
 4    1  0.6086918E-004  0.2061332E+03  0.7818608E-02  0.1144665E+00
          2   -1    0    0  501    0  0.00000000000E+00  0.00000000000E+00  0.29545126466E+03  0.29545126468E+03  0.25500000000E-02 0.  1.
         -2   -1    0    0    0  501 -0.00000000000E+00 -0.00000000000E+00 -0.35954235417E+02  0.35954235507E+02  0.25500000000E-02 0. -1.
    5000001    1    1    2    0    0 -0.63234768341E+02  0.24878633999E+02  0.14377742222E+03  0.17668766085E+03  0.77000000000E+02 0.  0.
   -5000001    1    1    2    0    0  0.63234768341E+02 -0.24878633999E+02  0.11571960703E+03  0.15471783933E+03  0.77000000000E+02 0.  0.
<mgrwt>
<rscale>  0 0.20613320E+03</rscale>
<asrwt>0</asrwt>
<pdfrwt beam="1">  1        2 0.45454041E-01 0.20613320E+03</pdfrwt>
<pdfrwt beam="2">  1       -2 0.55314208E-02 0.20613320E+03</pdfrwt>
<totfact> 0.18083312E+04</totfact>
</mgrwt>
</event>
<event>
 4    1  0.6086918E-004  0.4112631E+03  0.7818608E-02  0.1039948E+00
         -2   -1    0    0    0  501 -0.00000000000E+00  0.00000000000E+00  0.29549980186E+03  0.29549980187E+03  0.25500000000E-02 0. -1.
          2   -1    0    0  501    0  0.00000000000E+00 -0.00000000000E+00 -0.14309432050E+03  0.14309432052E+03  0.25500000000E-02 0.  1.
    5000001    1    1    2    0    0 -0.72009418627E+02 -0.11503713039E+03 -0.66624553583E+02  0.16966652257E+03  0.77000000000E+02 0.  0.
   -5000001    1    1    2    0    0  0.72009418627E+02  0.11503713039E+03  0.21903003495E+03  0.26892759983E+03  0.77000000000E+02 0.  0.
<mgrwt>
<rscale>  0 0.41126314E+03</rscale>
<asrwt>0</asrwt>
<pdfrwt beam="1">  1        2 0.22014511E-01 0.41126314E+03</pdfrwt>
<pdfrwt beam="2">  1       -2 0.45461508E-01 0.41126314E+03</pdfrwt>
<totfact> 0.11626783E+03</totfact>
</mgrwt>
</event>
<event>
 4    1  0.6086918E-004  0.3231221E+03  0.7818608E-02  0.1074221E+00
         -2   -1    0    0    0  501 -0.00000000000E+00  0.00000000000E+00  0.43502512235E+02  0.43502512309E+02  0.25500000000E-02 0. -1.
          2   -1    0    0  501    0  0.00000000000E+00 -0.00000000000E+00 -0.60001061426E+03  0.60001061426E+03  0.25500000000E-02 0.  1.
    5000001    1    1    2    0    0  0.86333811885E+02 -0.10587225133E+03 -0.20085202001E+03  0.25481953343E+03  0.77000000000E+02 0.  0.
   -5000001    1    1    2    0    0 -0.86333811885E+02  0.10587225133E+03 -0.35565608202E+03  0.38869359314E+03  0.77000000000E+02 0.  0.
<mgrwt>
<rscale>  0 0.32312208E+03</rscale>
<asrwt>0</asrwt>
<pdfrwt beam="1">  1        2 0.92309319E-01 0.32312208E+03</pdfrwt>
<pdfrwt beam="2">  1       -2 0.66926946E-02 0.32312208E+03</pdfrwt>
<totfact> 0.63173215E+03</totfact>
</mgrwt>
</event>
<event>
 4    1  0.6086918E-004  0.3082360E+03  0.7818608E-02  0.1081194E+00
         -2   -1    0    0    0  501 -0.00000000000E+00  0.00000000000E+00  0.83674354821E+01  0.83674358707E+01  0.25500000000E-02 0. -1.
          2   -1    0    0  501    0  0.00000000000E+00 -0.00000000000E+00 -0.28386669646E+04  0.28386669646E+04  0.25500000000E-02 0.  1.
    5000001    1    1    2    0    0 -0.12696799588E+03 -0.22214553337E+01 -0.17957082511E+04  0.18018387636E+04  0.77000000000E+02 0.  0.
   -5000001    1    1    2    0    0  0.12696799588E+03  0.22214553337E+01 -0.10345912780E+04  0.10451956369E+04  0.77000000000E+02 0.  0.
<mgrwt>
<rscale>  0 0.30823603E+03</rscale>
<asrwt>0</asrwt>
<pdfrwt beam="1">  1        2 0.43671722E+00 0.30823603E+03</pdfrwt>
<pdfrwt beam="2">  1       -2 0.12873001E-02 0.30823603E+03</pdfrwt>
<totfact> 0.38115144E+03</totfact>
</mgrwt>
</event>
<event>
 4    1  0.6086918E-004  0.8559802E+03  0.7818608E-02  0.9482345E-01
          2   -1    0    0  501    0  0.00000000000E+00  0.00000000000E+00  0.76720259656E+03  0.76720259657E+03  0.25500000000E-02 0.  1.
         -2   -1    0    0    0  501 -0.00000000000E+00 -0.00000000000E+00 -0.23875770843E+03  0.23875770844E+03  0.25500000000E-02 0. -1.
    5000001    1    1    2    0    0  0.99773176134E+02  0.39018148324E+03  0.40839715122E+03  0.57871712405E+03  0.77000000000E+02 0.  0.
   -5000001    1    1    2    0    0 -0.99773176134E+02 -0.39018148324E+03  0.12004773692E+03  0.42724318096E+03  0.77000000000E+02 0.  0.
<mgrwt>
<rscale>  0 0.85598022E+03</rscale>
<asrwt>0</asrwt>
<pdfrwt beam="1">  1        2 0.11803117E+00 0.85598022E+03</pdfrwt>
<pdfrwt beam="2">  1       -2 0.36731955E-01 0.85598022E+03</pdfrwt>
<totfact> 0.25506763E+02</totfact>
</mgrwt>
</event>
<event>
 4    1  0.6086918E-004  0.2933624E+03  0.7818608E-02  0.1088607E+00
          2   -1    0    0  501    0  0.00000000000E+00  0.00000000000E+00  0.61073170686E+03  0.61073170686E+03  0.25500000000E-02 0.  1.
         -2   -1    0    0    0  501 -0.00000000000E+00 -0.00000000000E+00 -0.35228855967E+02  0.35228856059E+02  0.25500000000E-02 0. -1.
    5000001    1    1    2    0    0  0.20452171144E+02  0.12080266612E+03  0.23496024594E+03  0.27594726420E+03  0.77000000000E+02 0.  0.
   -5000001    1    1    2    0    0 -0.20452171144E+02 -0.12080266612E+03  0.34054260495E+03  0.37001329872E+03  0.77000000000E+02 0.  0.
<mgrwt>
<rscale>  0 0.29336243E+03</rscale>
<asrwt>0</asrwt>
<pdfrwt beam="1">  1        2 0.93958712E-01 0.29336243E+03</pdfrwt>
<pdfrwt beam="2">  1       -2 0.54198247E-02 0.29336243E+03</pdfrwt>
<totfact> 0.85383408E+03</totfact>
</mgrwt>
</event>
<event>
 4    1  0.6086918E-004  0.5349514E+03  0.7818608E-02  0.1005038E+00
         -2   -1    0    0    0  501 -0.00000000000E+00  0.00000000000E+00  0.22901435897E+03  0.22901435899E+03  0.25500000000E-02 0. -1.
          2   -1    0    0  501    0  0.00000000000E+00 -0.00000000000E+00 -0.31239634093E+03  0.31239634094E+03  0.25500000000E-02 0.  1.
    5000001    1    1    2    0    0  0.23103084025E+03  0.56432822624E+02 -0.13799420825E+03  0.28553688751E+03  0.77000000000E+02 0.  0.
   -5000001    1    1    2    0    0 -0.23103084025E+03 -0.56432822624E+02  0.54612226300E+02  0.25587381241E+03  0.77000000000E+02 0.  0.
<mgrwt>
<rscale>  0 0.53495139E+03</rscale>
<asrwt>0</asrwt>
<pdfrwt beam="1">  1        2 0.48060975E-01 0.53495139E+03</pdfrwt>
<pdfrwt beam="2">  1       -2 0.35232979E-01 0.53495139E+03</pdfrwt>
<totfact> 0.79716929E+02</totfact>
</mgrwt>
</event>
<event>
 4    1  0.6086918E-004  0.2617727E+03  0.7818608E-02  0.1106083E+00
         -2   -1    0    0    0  501 -0.00000000000E+00  0.00000000000E+00  0.10295554878E+02  0.10295555194E+02  0.25500000000E-02 0. -1.
          2   -1    0    0  501    0  0.00000000000E+00 -0.00000000000E+00 -0.16639444712E+04  0.16639444712E+04  0.25500000000E-02 0.  1.
    5000001    1    1    2    0    0  0.95734051057E+02 -0.36198476118E+02 -0.65438808733E+03  0.66680439939E+03  0.77000000000E+02 0.  0.
   -5000001    1    1    2    0    0 -0.95734051057E+02  0.36198476118E+02 -0.99926082897E+03  0.10074356270E+04  0.77000000000E+02 0.  0.
<mgrwt>
<rscale>  0 0.26177266E+03</rscale>
<asrwt>0</asrwt>
<pdfrwt beam="1">  1        2 0.25599124E+00 0.26177266E+03</pdfrwt>
<pdfrwt beam="2">  1       -2 0.15839329E-02 0.26177266E+03</pdfrwt>
<totfact> 0.12143033E+04</totfact>
</mgrwt>
</event>
<event>
 4    1  0.6086918E-004  0.5337861E+03  0.7818608E-02  0.1005318E+00
         -2   -1    0    0    0  501 -0.00000000000E+00  0.00000000000E+00  0.31070421518E+02  0.31070421623E+02  0.25500000000E-02 0. -1.
          2   -1    0    0  501    0  0.00000000000E+00 -0.00000000000E+00 -0.22925950659E+04  0.22925950659E+04  0.25500000000E-02 0.  1.
    5000001    1    1    2    0    0  0.43952595916E+02  0.25150533799E+03 -0.11776736336E+04  0.12074895250E+04  0.77000000000E+02 0.  0.
   -5000001    1    1    2    0    0 -0.43952595916E+02 -0.25150533799E+03 -0.10838510108E+04  0.11161759625E+04  0.77000000000E+02 0.  0.
<mgrwt>
<rscale>  0 0.53378608E+03</rscale>
<asrwt>0</asrwt>
<pdfrwt beam="1">  1        2 0.35270680E+00 0.53378608E+03</pdfrwt>
<pdfrwt beam="2">  1       -2 0.47800666E-02 0.53378608E+03</pdfrwt>
<totfact> 0.10613715E+03</totfact>
</mgrwt>
</event>
<event>
 4    1  0.6086918E-004  0.1734537E+03  0.7818608E-02  0.1174293E+00
         -2   -1    0    0    0  501 -0.00000000000E+00  0.00000000000E+00  0.45455460594E+01  0.45455467747E+01  0.25500000000E-02 0. -1.
          2   -1    0    0  501    0  0.00000000000E+00 -0.00000000000E+00 -0.16547066406E+04  0.16547066406E+04  0.25500000000E-02 0.  1.
    5000001    1    1    2    0    0  0.29614462008E+02 -0.24636905476E+02 -0.72541420714E+03  0.73050582844E+03  0.77000000000E+02 0.  0.
   -5000001    1    1    2    0    0 -0.29614462008E+02  0.24636905476E+02 -0.92474688736E+03  0.92874635889E+03  0.77000000000E+02 0.  0.
<mgrwt>
<rscale>  0 0.17345369E+03</rscale>
<asrwt>0</asrwt>
<pdfrwt beam="1">  1        2 0.25456977E+00 0.17345369E+03</pdfrwt>
<pdfrwt beam="2">  1       -2 0.69931616E-03 0.17345369E+03</pdfrwt>
<totfact> 0.39325416E+04</totfact>
</mgrwt>
</event>
<event>
 4    1  0.6086918E-004  0.1987134E+03  0.7818608E-02  0.1150829E+00
         -2   -1    0    0    0  501 -0.00000000000E+00  0.00000000000E+00  0.13095156281E+02  0.13095156529E+02  0.25500000000E-02 0. -1.
          2   -1    0    0  501    0  0.00000000000E+00 -0.00000000000E+00 -0.75384807381E+03  0.75384807381E+03  0.25500000000E-02 0.  1.
    5000001    1    1    2    0    0 -0.48860908746E+02  0.35188814449E+02 -0.30164651665E+03  0.31708872902E+03  0.77000000000E+02 0.  0.
   -5000001    1    1    2    0    0  0.48860908746E+02 -0.35188814449E+02 -0.43910640088E+03  0.44985450132E+03  0.77000000000E+02 0.  0.
<mgrwt>
<rscale>  0 0.19871345E+03</rscale>
<asrwt>0</asrwt>
<pdfrwt beam="1">  1        2 0.11597659E+00 0.19871345E+03</pdfrwt>
<pdfrwt beam="2">  1       -2 0.20146400E-02 0.19871345E+03</pdfrwt>
<totfact> 0.28467669E+04</totfact>
</mgrwt>
</event>
<event>
 4    1  0.6086918E-004  0.2127654E+03  0.7818608E-02  0.1139395E+00
         -2   -1    0    0    0  501 -0.00000000000E+00  0.00000000000E+00  0.35748994373E+02  0.35748994464E+02  0.25500000000E-02 0. -1.
          2   -1    0    0  501    0  0.00000000000E+00 -0.00000000000E+00 -0.31657621433E+03  0.31657621434E+03  0.25500000000E-02 0.  1.
    5000001    1    1    2    0    0 -0.37110254832E+02 -0.56895782182E+02 -0.18648248573E+03  0.21288264027E+03  0.77000000000E+02 0.  0.
   -5000001    1    1    2    0    0  0.37110254832E+02  0.56895782182E+02 -0.94344734229E+02  0.13944256854E+03  0.77000000000E+02 0.  0.
<mgrwt>
<rscale>  0 0.21276542E+03</rscale>
<asrwt>0</asrwt>
<pdfrwt beam="1">  1        2 0.48704031E-01 0.21276542E+03</pdfrwt>
<pdfrwt beam="2">  1       -2 0.54998455E-02 0.21276542E+03</pdfrwt>
<totfact> 0.16978650E+04</totfact>
</mgrwt>
</event>
<event>
 4    1  0.6086918E-004  0.1731846E+03  0.7818608E-02  0.1174567E+00
          2   -1    0    0  501    0  0.00000000000E+00  0.00000000000E+00  0.67670527921E+03  0.67670527922E+03  0.25500000000E-02 0.  1.
         -2   -1    0    0    0  501 -0.00000000000E+00 -0.00000000000E+00 -0.11080485578E+02  0.11080485871E+02  0.25500000000E-02 0. -1.
    5000001    1    1    2    0    0 -0.15099337761E+02 -0.10006629276E+02  0.47272198922E+03  0.47929448330E+03  0.77000000000E+02 0.  0.
   -5000001    1    1    2    0    0  0.15099337761E+02  0.10006629276E+02  0.19290280441E+03  0.20849128178E+03  0.77000000000E+02 0.  0.
<mgrwt>
<rscale>  0 0.17318456E+03</rscale>
<asrwt>0</asrwt>
<pdfrwt beam="1">  1        2 0.10410853E+00 0.17318456E+03</pdfrwt>
<pdfrwt beam="2">  1       -2 0.17046898E-02 0.17318456E+03</pdfrwt>
<totfact> 0.40921963E+04</totfact>
</mgrwt>
</event>
<event>
 4    1  0.6086918E-004  0.2842687E+03  0.7818608E-02  0.1093380E+00
         -2   -1    0    0    0  501 -0.00000000000E+00  0.00000000000E+00  0.18549994538E+02  0.18549994713E+02  0.25500000000E-02 0. -1.
          2   -1    0    0  501    0  0.00000000000E+00 -0.00000000000E+00 -0.10890661339E+04  0.10890661339E+04  0.25500000000E-02 0.  1.
    5000001    1    1    2    0    0  0.11932808919E+03 -0.49267776409E+01 -0.54739632866E+03  0.56553974806E+03  0.77000000000E+02 0.  0.
   -5000001    1    1    2    0    0 -0.11932808919E+03  0.49267776409E+01 -0.52311981075E+03  0.54207638060E+03  0.77000000000E+02 0.  0.
<mgrwt>
<rscale>  0 0.28426868E+03</rscale>
<asrwt>0</asrwt>
<pdfrwt beam="1">  1        2 0.16754859E+00 0.28426868E+03</pdfrwt>
<pdfrwt beam="2">  1       -2 0.28538462E-02 0.28426868E+03</pdfrwt>
<totfact> 0.10575297E+04</totfact>
</mgrwt>
</event>
<event>
 4    1  0.6086918E-004  0.1764746E+03  0.7818608E-02  0.1171259E+00
         -2   -1    0    0    0  501 -0.00000000000E+00  0.00000000000E+00  0.51343984798E+02  0.51343984861E+02  0.25500000000E-02 0. -1.
          2   -1    0    0  501    0  0.00000000000E+00 -0.00000000000E+00 -0.15164037246E+03  0.15164037248E+03  0.25500000000E-02 0.  1.
    5000001    1    1    2    0    0 -0.35044981048E+02  0.24139062209E+02 -0.57947317375E+02  0.10534579542E+03  0.77000000000E+02 0.  0.
   -5000001    1    1    2    0    0  0.35044981048E+02 -0.24139062209E+02 -0.42349070288E+02  0.97638561927E+02  0.77000000000E+02 0.  0.
<mgrwt>
<rscale>  0 0.17647460E+03</rscale>
<asrwt>0</asrwt>
<pdfrwt beam="1">  1        2 0.23329288E-01 0.17647460E+03</pdfrwt>
<pdfrwt beam="2">  1       -2 0.78990746E-02 0.17647460E+03</pdfrwt>
<totfact> 0.21351684E+04</totfact>
</mgrwt>
</event>
<event>
 4    1  0.6086918E-004  0.2078517E+03  0.7818608E-02  0.1143279E+00
          2   -1    0    0  501    0  0.00000000000E+00  0.00000000000E+00  0.15542752951E+03  0.15542752953E+03  0.25500000000E-02 0.  1.
         -2   -1    0    0    0  501 -0.00000000000E+00 -0.00000000000E+00 -0.69489496776E+02  0.69489496823E+02  0.25500000000E-02 0. -1.
    5000001    1    1    2    0    0 -0.50102031667E+01 -0.45127306411E+02 -0.14392724124E+02  0.90541296806E+02  0.77000000000E+02 0.  0.
   -5000001    1    1    2    0    0  0.50102031667E+01  0.45127306411E+02  0.10033075686E+03  0.13437572955E+03  0.77000000000E+02 0.  0.
<mgrwt>
<rscale>  0 0.20785169E+03</rscale>
<asrwt>0</asrwt>
<pdfrwt beam="1">  1        2 0.23911927E-01 0.20785169E+03</pdfrwt>
<pdfrwt beam="2">  1       -2 0.10690692E-01 0.20785169E+03</pdfrwt>
<totfact> 0.13075448E+04</totfact>
</mgrwt>
</event>
<event>
 4    1  0.6086918E-004  0.2993690E+03  0.7818608E-02  0.1085556E+00
          2   -1    0    0  501    0  0.00000000000E+00  0.00000000000E+00  0.25589271432E+04  0.25589271432E+04  0.25500000000E-02 0.  1.
         -2   -1    0    0    0  501 -0.00000000000E+00 -0.00000000000E+00 -0.87557981354E+01  0.87557985067E+01  0.25500000000E-02 0. -1.
    5000001    1    1    2    0    0 -0.45205856197E+02 -0.11036266211E+03  0.16821955408E+04  0.16881748500E+04  0.77000000000E+02 0.  0.
   -5000001    1    1    2    0    0  0.45205856197E+02  0.11036266211E+03  0.86797580420E+03  0.87950809166E+03  0.77000000000E+02 0.  0.
<mgrwt>
<rscale>  0 0.29936900E+03</rscale>
<asrwt>0</asrwt>
<pdfrwt beam="1">  1        2 0.39368087E+00 0.29936900E+03</pdfrwt>
<pdfrwt beam="2">  1       -2 0.13470467E-02 0.29936900E+03</pdfrwt>
<totfact> 0.51363307E+03</totfact>
</mgrwt>
</event>
<event>
 4    1  0.6086918E-004  0.1857358E+03  0.7818608E-02  0.1162365E+00
          2   -1    0    0  501    0  0.00000000000E+00  0.00000000000E+00  0.24324608470E+04  0.24324608470E+04  0.25500000000E-02 0.  1.
         -2   -1    0    0    0  501 -0.00000000000E+00 -0.00000000000E+00 -0.35455650892E+01  0.35455660062E+01  0.25500000000E-02 0. -1.
    5000001    1    1    2    0    0 -0.26317411701E+01  0.18373112198E+02  0.57853449865E+03  0.58393121465E+03  0.77000000000E+02 0.  0.
   -5000001    1    1    2    0    0  0.26317411701E+01 -0.18373112198E+02  0.18503807833E+04  0.18520751984E+04  0.77000000000E+02 0.  0.
<mgrwt>
<rscale>  0 0.18573583E+03</rscale>
<asrwt>0</asrwt>
<pdfrwt beam="1">  1        2 0.37422554E+00 0.18573583E+03</pdfrwt>
<pdfrwt beam="2">  1       -2 0.54547047E-03 0.18573583E+03</pdfrwt>
<totfact> 0.22112111E+04</totfact>
</mgrwt>
</event>
<event>
 4    1  0.6086918E-004  0.3205427E+03  0.7818608E-02  0.1075400E+00
          2   -1    0    0  501    0  0.00000000000E+00  0.00000000000E+00  0.17788181229E+03  0.17788181230E+03  0.25500000000E-02 0.  1.
         -2   -1    0    0    0  501 -0.00000000000E+00 -0.00000000000E+00 -0.14440437462E+03  0.14440437465E+03  0.25500000000E-02 0. -1.
    5000001    1    1    2    0    0 -0.10605276257E+03 -0.89118420784E+02  0.40714392663E+02  0.16363356362E+03  0.77000000000E+02 0.  0.
   -5000001    1    1    2    0    0  0.10605276257E+03  0.89118420784E+02 -0.72369550022E+01  0.15865262333E+03  0.77000000000E+02 0.  0.
<mgrwt>
<rscale>  0 0.32054274E+03</rscale>
<asrwt>0</asrwt>
<pdfrwt beam="1">  1        2 0.27366433E-01 0.32054274E+03</pdfrwt>
<pdfrwt beam="2">  1       -2 0.22216058E-01 0.32054274E+03</pdfrwt>
<totfact> 0.34051447E+03</totfact>
</mgrwt>
</event>
<event>
 4    1  0.6086918E-004  0.2581512E+03  0.7818608E-02  0.1108259E+00
         -2   -1    0    0    0  501 -0.00000000000E+00  0.00000000000E+00  0.30102640071E+02  0.30102640179E+02  0.25500000000E-02 0. -1.
          2   -1    0    0  501    0  0.00000000000E+00 -0.00000000000E+00 -0.55345686784E+03  0.55345686785E+03  0.25500000000E-02 0.  1.
    5000001    1    1    2    0    0 -0.32290870211E+02  0.95465331955E+02 -0.20746279612E+03  0.24315867592E+03  0.77000000000E+02 0.  0.
   -5000001    1    1    2    0    0  0.32290870211E+02 -0.95465331955E+02 -0.31589143166E+03  0.34040083210E+03  0.77000000000E+02 0.  0.
<mgrwt>
<rscale>  0 0.25815122E+03</rscale>
<asrwt>0</asrwt>
<pdfrwt beam="1">  1        2 0.85147203E-01 0.25815122E+03</pdfrwt>
<pdfrwt beam="2">  1       -2 0.46311758E-02 0.25815122E+03</pdfrwt>
<totfact> 0.12089777E+04</totfact>
</mgrwt>
</event>
<event>
 4    1  0.6086918E-004  0.2266537E+03  0.7818608E-02  0.1129017E+00
         -2   -1    0    0    0  501 -0.00000000000E+00  0.00000000000E+00  0.19104881306E+03  0.19104881308E+03  0.25500000000E-02 0. -1.
          2   -1    0    0  501    0  0.00000000000E+00 -0.00000000000E+00 -0.67223524040E+02  0.67223524088E+02  0.25500000000E-02 0.  1.
    5000001    1    1    2    0    0  0.96801679098E+00 -0.82791323682E+02  0.70638146341E+02  0.13331949614E+03  0.77000000000E+02 0.  0.
   -5000001    1    1    2    0    0 -0.96801679098E+00  0.82791323682E+02  0.53187142682E+02  0.12495284102E+03  0.77000000000E+02 0.  0.
<mgrwt>
<rscale>  0 0.22665370E+03</rscale>
<asrwt>0</asrwt>
<pdfrwt beam="1">  1        2 0.10342081E-01 0.22665370E+03</pdfrwt>
<pdfrwt beam="2">  1       -2 0.29392125E-01 0.22665370E+03</pdfrwt>
<totfact> 0.63991428E+03</totfact>
</mgrwt>
</event>
<event>
 4    1  0.6086918E-004  0.1801808E+03  0.7818608E-02  0.1167628E+00
         -2   -1    0    0    0  501 -0.00000000000E+00  0.00000000000E+00  0.52099046396E+02  0.52099046459E+02  0.25500000000E-02 0. -1.
          2   -1    0    0  501    0  0.00000000000E+00 -0.00000000000E+00 -0.15578549991E+03  0.15578549993E+03  0.25500000000E-02 0.  1.
    5000001    1    1    2    0    0  0.38972439364E+02 -0.11069291837E+02 -0.78800046924E+02  0.11738751061E+03  0.77000000000E+02 0.  0.
   -5000001    1    1    2    0    0 -0.38972439364E+02  0.11069291837E+02 -0.24886406586E+02  0.90497035777E+02  0.77000000000E+02 0.  0.
<mgrwt>
<rscale>  0 0.18018075E+03</rscale>
<asrwt>0</asrwt>
<pdfrwt beam="1">  1        2 0.23967000E-01 0.18018075E+03</pdfrwt>
<pdfrwt beam="2">  1       -2 0.80152380E-02 0.18018075E+03</pdfrwt>
<totfact> 0.20290411E+04</totfact>
</mgrwt>
</event>
<event>
 4    1  0.6086918E-004  0.1897511E+03  0.7818608E-02  0.1158686E+00
          2   -1    0    0  501    0  0.00000000000E+00  0.00000000000E+00  0.15905727531E+03  0.15905727533E+03  0.25500000000E-02 0.  1.
         -2   -1    0    0    0  501 -0.00000000000E+00 -0.00000000000E+00 -0.56591994585E+02  0.56591994642E+02  0.25500000000E-02 0. -1.
    5000001    1    1    2    0    0  0.35754643745E+02  0.14877467794E+02  0.61636657055E+01  0.86410209884E+02  0.77000000000E+02 0.  0.
   -5000001    1    1    2    0    0 -0.35754643745E+02 -0.14877467794E+02  0.96301615022E+02  0.12923906009E+03  0.77000000000E+02 0.  0.
<mgrwt>
<rscale>  0 0.18975108E+03</rscale>
<asrwt>0</asrwt>
<pdfrwt beam="1">  1        2 0.24470350E-01 0.18975108E+03</pdfrwt>
<pdfrwt beam="2">  1       -2 0.87064608E-02 0.18975108E+03</pdfrwt>
<totfact> 0.17502538E+04</totfact>
</mgrwt>
</event>
<event>
 4    1  0.6086918E-004  0.2979458E+03  0.7818608E-02  0.1086272E+00
         -2   -1    0    0    0  501 -0.00000000000E+00  0.00000000000E+00  0.84624881620E+02  0.84624881659E+02  0.25500000000E-02 0. -1.
          2   -1    0    0  501    0  0.00000000000E+00 -0.00000000000E+00 -0.26225052341E+03  0.26225052342E+03  0.25500000000E-02 0.  1.
    5000001    1    1    2    0    0 -0.11363550584E+03 -0.10917670476E+02 -0.22629046740E+02  0.13954675730E+03  0.77000000000E+02 0.  0.
   -5000001    1    1    2    0    0  0.11363550584E+03  0.10917670476E+02 -0.15499659505E+03  0.20732864779E+03  0.77000000000E+02 0.  0.
<mgrwt>
<rscale>  0 0.29794576E+03</rscale>
<asrwt>0</asrwt>
<pdfrwt beam="1">  1        2 0.40346234E-01 0.29794576E+03</pdfrwt>
<pdfrwt beam="2">  1       -2 0.13019213E-01 0.29794576E+03</pdfrwt>
<totfact> 0.54603787E+03</totfact>
</mgrwt>
</event>
<event>
 4    1  0.6086918E-004  0.4110622E+03  0.7818608E-02  0.1040015E+00
         -2   -1    0    0    0  501 -0.00000000000E+00  0.00000000000E+00  0.30365335471E+02  0.30365335578E+02  0.25500000000E-02 0. -1.
          2   -1    0    0  501    0  0.00000000000E+00 -0.00000000000E+00 -0.13911597529E+04  0.13911597529E+04  0.25500000000E-02 0.  1.
    5000001    1    1    2    0    0  0.18057007568E+03  0.58822109610E+02 -0.62588953788E+03  0.65858356071E+03  0.77000000000E+02 0.  0.
   -5000001    1    1    2    0    0 -0.18057007568E+03 -0.58822109610E+02 -0.73490487951E+03  0.76294152773E+03  0.77000000000E+02 0.  0.
<mgrwt>
<rscale>  0 0.41106220E+03</rscale>
<asrwt>0</asrwt>
<pdfrwt beam="1">  1        2 0.21402453E+00 0.41106220E+03</pdfrwt>
<pdfrwt beam="2">  1       -2 0.46715912E-02 0.41106220E+03</pdfrwt>
<totfact> 0.33989810E+03</totfact>
</mgrwt>
</event>
<event>
 4    1  0.6086918E-004  0.2453835E+03  0.7818608E-02  0.1116258E+00
          2   -1    0    0  501    0  0.00000000000E+00  0.00000000000E+00  0.71083190113E+03  0.71083190113E+03  0.25500000000E-02 0.  1.
         -2   -1    0    0    0  501 -0.00000000000E+00 -0.00000000000E+00 -0.21176968088E+02  0.21176968241E+02  0.25500000000E-02 0. -1.
    5000001    1    1    2    0    0  0.54120733362E+02  0.76971680145E+02  0.29575794757E+03  0.31977407161E+03  0.77000000000E+02 0.  0.
   -5000001    1    1    2    0    0 -0.54120733362E+02 -0.76971680145E+02  0.39389698547E+03  0.41223479776E+03  0.77000000000E+02 0.  0.
<mgrwt>
<rscale>  0 0.24538349E+03</rscale>
<asrwt>0</asrwt>
<pdfrwt beam="1">  1        2 0.10935876E+00 0.24538349E+03</pdfrwt>
<pdfrwt beam="2">  1       -2 0.32579950E-02 0.24538349E+03</pdfrwt>
<totfact> 0.15241576E+04</totfact>
</mgrwt>
</event>
<event>
 4    1  0.6086918E-004  0.3481447E+03  0.7818608E-02  0.1063379E+00
         -2   -1    0    0    0  501 -0.00000000000E+00  0.00000000000E+00  0.94384498445E+01  0.94384501890E+01  0.25500000000E-02 0. -1.
          2   -1    0    0  501    0  0.00000000000E+00 -0.00000000000E+00 -0.32103990983E+04  0.32103990983E+04  0.25500000000E-02 0.  1.
    5000001    1    1    2    0    0 -0.43404940696E+02 -0.14373095876E+03 -0.19960781127E+04  0.20031972967E+04  0.77000000000E+02 0.  0.
   -5000001    1    1    2    0    0  0.43404940696E+02  0.14373095876E+03 -0.12048825357E+04  0.12166402518E+04  0.77000000000E+02 0.  0.
<mgrwt>
<rscale>  0 0.34814475E+03</rscale>
<asrwt>0</asrwt>
<pdfrwt beam="1">  1        2 0.49390668E+00 0.34814475E+03</pdfrwt>
<pdfrwt beam="2">  1       -2 0.14520718E-02 0.34814475E+03</pdfrwt>
<totfact> 0.19039632E+03</totfact>
</mgrwt>
</event>
<event>
 4    1  0.6086918E-004  0.2723459E+03  0.7818608E-02  0.1099944E+00
          2   -1    0    0  501    0  0.00000000000E+00  0.00000000000E+00  0.57953638433E+03  0.57953638434E+03  0.25500000000E-02 0.  1.
         -2   -1    0    0    0  501 -0.00000000000E+00 -0.00000000000E+00 -0.31996391360E+02  0.31996391462E+02  0.25500000000E-02 0. -1.
    5000001    1    1    2    0    0  0.51835758764E+01 -0.10013599166E+03  0.16015968666E+03  0.20404463118E+03  0.77000000000E+02 0.  0.
   -5000001    1    1    2    0    0 -0.51835758764E+01  0.10013599166E+03  0.38738030632E+03  0.40748814462E+03  0.77000000000E+02 0.  0.
<mgrwt>
<rscale>  0 0.27234591E+03</rscale>
<asrwt>0</asrwt>
<pdfrwt beam="1">  1        2 0.89159436E-01 0.27234591E+03</pdfrwt>
<pdfrwt beam="2">  1       -2 0.49225222E-02 0.27234591E+03</pdfrwt>
<totfact> 0.10479494E+04</totfact>
</mgrwt>
</event>
<event>
 4    1  0.6086918E-004  0.2543450E+03  0.7818608E-02  0.1110589E+00
         -2   -1    0    0    0  501 -0.00000000000E+00  0.00000000000E+00  0.67763911076E+02  0.67763911124E+02  0.25500000000E-02 0. -1.
          2   -1    0    0  501    0  0.00000000000E+00 -0.00000000000E+00 -0.23866463906E+03  0.23866463907E+03  0.25500000000E-02 0.  1.
    5000001    1    1    2    0    0  0.45456845282E+02 -0.74793401816E+02 -0.24214223648E+02  0.11906177542E+03  0.77000000000E+02 0.  0.
   -5000001    1    1    2    0    0 -0.45456845282E+02  0.74793401816E+02 -0.14668650434E+03  0.18736677478E+03  0.77000000000E+02 0.  0.
<mgrwt>
<rscale>  0 0.25434504E+03</rscale>
<asrwt>0</asrwt>
<pdfrwt beam="1">  1        2 0.36717636E-01 0.25434504E+03</pdfrwt>
<pdfrwt beam="2">  1       -2 0.10425217E-01 0.25434504E+03</pdfrwt>
<totfact> 0.85975479E+03</totfact>
</mgrwt>
</event>
<event>
 4    1  0.6086918E-004  0.3778867E+03  0.7818608E-02  0.1051718E+00
         -2   -1    0    0    0  501 -0.00000000000E+00  0.00000000000E+00  0.65196234424E+02  0.65196234474E+02  0.25500000000E-02 0. -1.
          2   -1    0    0  501    0  0.00000000000E+00 -0.00000000000E+00 -0.54757128847E+03  0.54757128848E+03  0.25500000000E-02 0.  1.
    5000001    1    1    2    0    0 -0.16812056094E+03 -0.38798857866E+02 -0.23981951590E+03  0.30530685316E+03  0.77000000000E+02 0.  0.
   -5000001    1    1    2    0    0  0.16812056094E+03  0.38798857866E+02 -0.24255553815E+03  0.30746066979E+03  0.77000000000E+02 0.  0.
<mgrwt>
<rscale>  0 0.37788668E+03</rscale>
<asrwt>0</asrwt>
<pdfrwt beam="1">  1        2 0.84241734E-01 0.37788668E+03</pdfrwt>
<pdfrwt beam="2">  1       -2 0.10030190E-01 0.37788668E+03</pdfrwt>
<totfact> 0.37251986E+03</totfact>
</mgrwt>
</event>
<event>
 4    1  0.6086918E-004  0.9465996E+03  0.7818608E-02  0.9369134E-01
          2   -1    0    0  501    0  0.00000000000E+00  0.00000000000E+00  0.11159629159E+04  0.11159629159E+04  0.25500000000E-02 0.  1.
         -2   -1    0    0    0  501 -0.00000000000E+00 -0.00000000000E+00 -0.20073487857E+03  0.20073487859E+03  0.25500000000E-02 0. -1.
    5000001    1    1    2    0    0  0.88540102389E+02  0.45528759287E+03  0.38196818510E+03  0.60576797239E+03  0.77000000000E+02 0.  0.
   -5000001    1    1    2    0    0 -0.88540102389E+02 -0.45528759287E+03  0.53325985223E+03  0.71092982210E+03  0.77000000000E+02 0.  0.
<mgrwt>
<rscale>  0 0.94659956E+03</rscale>
<asrwt>0</asrwt>
<pdfrwt beam="1">  1        2 0.17168660E+00 0.94659956E+03</pdfrwt>
<pdfrwt beam="2">  1       -2 0.30882290E-01 0.94659956E+03</pdfrwt>
<totfact> 0.20672200E+02</totfact>
</mgrwt>
</event>
<event>
 4    1  0.6086918E-004  0.1891530E+03  0.7818608E-02  0.1159227E+00
         -2   -1    0    0    0  501 -0.00000000000E+00  0.00000000000E+00  0.50681836938E+02  0.50681837002E+02  0.25500000000E-02 0. -1.
          2   -1    0    0  501    0  0.00000000000E+00 -0.00000000000E+00 -0.17648763357E+03  0.17648763359E+03  0.25500000000E-02 0.  1.
    5000001    1    1    2    0    0 -0.15783929824E+02  0.46843239768E+02 -0.91633649586E+02  0.12949574236E+03  0.77000000000E+02 0.  0.
   -5000001    1    1    2    0    0  0.15783929824E+02 -0.46843239768E+02 -0.34172147045E+02  0.97673728230E+02  0.77000000000E+02 0.  0.
<mgrwt>
<rscale>  0 0.18915303E+03</rscale>
<asrwt>0</asrwt>
<pdfrwt beam="1">  1        2 0.27151943E-01 0.18915303E+03</pdfrwt>
<pdfrwt beam="2">  1       -2 0.77972058E-02 0.18915303E+03</pdfrwt>
<totfact> 0.18516599E+04</totfact>
</mgrwt>
</event>
<event>
 4    1  0.6086918E-004  0.5774391E+03  0.7818608E-02  0.9953351E-01
          2   -1    0    0  501    0  0.00000000000E+00  0.00000000000E+00  0.10749051111E+04  0.10749051111E+04  0.25500000000E-02 0.  1.
         -2   -1    0    0    0  501 -0.00000000000E+00 -0.00000000000E+00 -0.77550076728E+02  0.77550076770E+02  0.25500000000E-02 0. -1.
    5000001    1    1    2    0    0 -0.84643503456E+02  0.19058023343E+03  0.13096925827E+03  0.25800638493E+03  0.77000000000E+02 0.  0.
   -5000001    1    1    2    0    0  0.84643503456E+02 -0.19058023343E+03  0.86638577608E+03  0.89444880292E+03  0.77000000000E+02 0.  0.
<mgrwt>
<rscale>  0 0.57743908E+03</rscale>
<asrwt>0</asrwt>
<pdfrwt beam="1">  1        2 0.16537000E+00 0.57743908E+03</pdfrwt>
<pdfrwt beam="2">  1       -2 0.11930782E-01 0.57743908E+03</pdfrwt>
<totfact> 0.11711514E+03</totfact>
</mgrwt>
</event>
<event>
 4    1  0.6086918E-004  0.2006459E+03  0.7818608E-02  0.1149195E+00
         -2   -1    0    0    0  501 -0.00000000000E+00  0.00000000000E+00  0.41901829339E+02  0.41901829417E+02  0.25500000000E-02 0. -1.
          2   -1    0    0  501    0  0.00000000000E+00 -0.00000000000E+00 -0.24019696042E+03  0.24019696043E+03  0.25500000000E-02 0.  1.
    5000001    1    1    2    0    0  0.54627407258E+02 -0.11154452165E+01 -0.14683186969E+03  0.17456802627E+03  0.77000000000E+02 0.  0.
   -5000001    1    1    2    0    0 -0.54627407258E+02  0.11154452165E+01 -0.51463261393E+02  0.10753076357E+03  0.77000000000E+02 0.  0.
<mgrwt>
<rscale>  0 0.20064588E+03</rscale>
<asrwt>0</asrwt>
<pdfrwt beam="1">  1        2 0.36953378E-01 0.20064588E+03</pdfrwt>
<pdfrwt beam="2">  1       -2 0.64464354E-02 0.20064588E+03</pdfrwt>
<totfact> 0.17837513E+04</totfact>
</mgrwt>
</event>
<event>
 4    1  0.6086918E-004  0.2091602E+03  0.7818608E-02  0.1142233E+00
         -2   -1    0    0    0  501 -0.00000000000E+00  0.00000000000E+00  0.55500883392E+02  0.55500883451E+02  0.25500000000E-02 0. -1.
          2   -1    0    0  501    0  0.00000000000E+00 -0.00000000000E+00 -0.19705990100E+03  0.19705990102E+03  0.25500000000E-02 0.  1.
    5000001    1    1    2    0    0 -0.30357895260E+02  0.58794907801E+02 -0.10107680639E+03  0.14326187133E+03  0.77000000000E+02 0.  0.
   -5000001    1    1    2    0    0  0.30357895260E+02 -0.58794907801E+02 -0.40482211226E+02  0.10929891314E+03  0.77000000000E+02 0.  0.
<mgrwt>
<rscale>  0 0.20916021E+03</rscale>
<asrwt>0</asrwt>
<pdfrwt beam="1">  1        2 0.30316908E-01 0.20916021E+03</pdfrwt>
<pdfrwt beam="2">  1       -2 0.85385975E-02 0.20916021E+03</pdfrwt>
<totfact> 0.14348502E+04</totfact>
</mgrwt>
</event>
<event>
 4    1  0.6086918E-004  0.2083325E+03  0.7818608E-02  0.1142893E+00
          2   -1    0    0  501    0  0.00000000000E+00  0.00000000000E+00  0.11410492074E+04  0.11410492074E+04  0.25500000000E-02 0.  1.
         -2   -1    0    0    0  501 -0.00000000000E+00 -0.00000000000E+00 -0.95093292830E+01  0.95093296249E+01  0.25500000000E-02 0. -1.
    5000001    1    1    2    0    0 -0.39838233454E+02 -0.57341592047E+02  0.60341751916E+03  0.61230453653E+03  0.77000000000E+02 0.  0.
   -5000001    1    1    2    0    0  0.39838233454E+02  0.57341592047E+02  0.52812235893E+03  0.53825400047E+03  0.77000000000E+02 0.  0.
<mgrwt>
<rscale>  0 0.20833255E+03</rscale>
<asrwt>0</asrwt>
<pdfrwt beam="1">  1        2 0.17554594E+00 0.20833255E+03</pdfrwt>
<pdfrwt beam="2">  1       -2 0.14629745E-02 0.20833255E+03</pdfrwt>
<totfact> 0.25981328E+04</totfact>
</mgrwt>
</event>
<event>
 4    1  0.6086918E-004  0.1730481E+03  0.7818608E-02  0.1174706E+00
         -2   -1    0    0    0  501 -0.00000000000E+00  0.00000000000E+00  0.29379534793E+02  0.29379534904E+02  0.25500000000E-02 0. -1.
          2   -1    0    0  501    0  0.00000000000E+00 -0.00000000000E+00 -0.25481733307E+03  0.25481733309E+03  0.25500000000E-02 0.  1.
    5000001    1    1    2    0    0  0.27152464887E+02 -0.23359562883E+02 -0.85509749067E+02  0.12051490660E+03  0.77000000000E+02 0.  0.
   -5000001    1    1    2    0    0 -0.27152464887E+02  0.23359562883E+02 -0.13992804921E+03  0.16368196139E+03  0.77000000000E+02 0.  0.
<mgrwt>
<rscale>  0 0.17304814E+03</rscale>
<asrwt>0</asrwt>
<pdfrwt beam="1">  1        2 0.39202665E-01 0.17304814E+03</pdfrwt>
<pdfrwt beam="2">  1       -2 0.45199286E-02 0.17304814E+03</pdfrwt>
<totfact> 0.28337432E+04</totfact>
</mgrwt>
</event>
<event>
 4    1  0.6086918E-004  0.1945632E+03  0.7818608E-02  0.1154409E+00
          2   -1    0    0  501    0  0.00000000000E+00  0.00000000000E+00  0.11170112589E+04  0.11170112589E+04  0.25500000000E-02 0.  1.
         -2   -1    0    0    0  501 -0.00000000000E+00 -0.00000000000E+00 -0.84723476922E+01  0.84723480760E+01  0.25500000000E-02 0. -1.
    5000001    1    1    2    0    0 -0.29150678769E+02 -0.40623991502E+02  0.36820108194E+03  0.37947477847E+03  0.77000000000E+02 0.  0.
   -5000001    1    1    2    0    0  0.29150678769E+02  0.40623991502E+02  0.74033782929E+03  0.74600882853E+03  0.77000000000E+02 0.  0.
<mgrwt>
<rscale>  0 0.19456318E+03</rscale>
<asrwt>0</asrwt>
<pdfrwt beam="1">  1        2 0.17184778E+00 0.19456318E+03</pdfrwt>
<pdfrwt beam="2">  1       -2 0.13034389E-02 0.19456318E+03</pdfrwt>
<totfact> 0.31577515E+04</totfact>
</mgrwt>
</event>
<event>
 4    1  0.6086918E-004  0.1963508E+03  0.7818608E-02  0.1152855E+00
         -2   -1    0    0    0  501 -0.00000000000E+00  0.00000000000E+00  0.11642431631E+03  0.11642431634E+03  0.25500000000E-02 0. -1.
          2   -1    0    0  501    0  0.00000000000E+00 -0.00000000000E+00 -0.82786866582E+02  0.82786866621E+02  0.25500000000E-02 0.  1.
    5000001    1    1    2    0    0 -0.56009164852E+02 -0.18456476540E+02  0.32263377954E+02  0.10221347089E+03  0.77000000000E+02 0.  0.
   -5000001    1    1    2    0    0  0.56009164852E+02  0.18456476540E+02  0.13740717723E+01  0.96997712071E+02  0.77000000000E+02 0.  0.
<mgrwt>
<rscale>  0 0.19635075E+03</rscale>
<asrwt>0</asrwt>
<pdfrwt beam="1">  1        2 0.12736441E-01 0.19635075E+03</pdfrwt>
<pdfrwt beam="2">  1       -2 0.17911433E-01 0.19635075E+03</pdfrwt>
<totfact> 0.11642395E+04</totfact>
</mgrwt>
</event>
<event>
 4    1  0.6086918E-004  0.4604285E+03  0.7818608E-02  0.1024657E+00
         -2   -1    0    0    0  501 -0.00000000000E+00  0.00000000000E+00  0.39063618994E+02  0.39063619078E+02  0.25500000000E-02 0. -1.
          2   -1    0    0  501    0  0.00000000000E+00 -0.00000000000E+00 -0.13567253619E+04  0.13567253619E+04  0.25500000000E-02 0.  1.
    5000001    1    1    2    0    0  0.28168928628E+02  0.21502938870E+03 -0.64002674106E+03  0.68014289367E+03  0.77000000000E+02 0.  0.
   -5000001    1    1    2    0    0 -0.28168928628E+02 -0.21502938870E+03 -0.67763500181E+03  0.71564608727E+03  0.77000000000E+02 0.  0.
<mgrwt>
<rscale>  0 0.46042851E+03</rscale>
<asrwt>0</asrwt>
<pdfrwt beam="1">  1        2 0.20872694E+00 0.46042851E+03</pdfrwt>
<pdfrwt beam="2">  1       -2 0.60097886E-02 0.46042851E+03</pdfrwt>
<totfact> 0.24060893E+03</totfact>
</mgrwt>
</event>
<event>
 4    1  0.6086918E-004  0.2816379E+03  0.7818608E-02  0.1094798E+00
          2   -1    0    0  501    0  0.00000000000E+00  0.00000000000E+00  0.44823383342E+02  0.44823383414E+02  0.25500000000E-02 0.  1.
         -2   -1    0    0    0  501 -0.00000000000E+00 -0.00000000000E+00 -0.44240242181E+03  0.44240242182E+03  0.25500000000E-02 0. -1.
    5000001    1    1    2    0    0 -0.10787712221E+03  0.27093410964E+02 -0.13113350173E+03  0.18840520611E+03  0.77000000000E+02 0.  0.
   -5000001    1    1    2    0    0  0.10787712221E+03 -0.27093410964E+02 -0.26644553674E+03  0.29882059912E+03  0.77000000000E+02 0.  0.
<mgrwt>
<rscale>  0 0.28163788E+03</rscale>
<asrwt>0</asrwt>
<pdfrwt beam="1">  1        2 0.68959054E-02 0.28163788E+03</pdfrwt>
<pdfrwt beam="2">  1       -2 0.68061908E-01 0.28163788E+03</pdfrwt>
<totfact> 0.20841107E+03</totfact>
</mgrwt>
</event>
<event>
 4    1  0.6086918E-004  0.2621323E+03  0.7818608E-02  0.1105869E+00
          2   -1    0    0  501    0  0.00000000000E+00  0.00000000000E+00  0.23269209896E+04  0.23269209896E+04  0.25500000000E-02 0.  1.
         -2   -1    0    0    0  501 -0.00000000000E+00 -0.00000000000E+00 -0.73824323294E+01  0.73824327698E+01  0.25500000000E-02 0. -1.
    5000001    1    1    2    0    0  0.56577710024E+02 -0.81887860968E+02  0.14860735204E+04  0.14913920233E+04  0.77000000000E+02 0.  0.
   -5000001    1    1    2    0    0 -0.56577710024E+02  0.81887860968E+02  0.83346503685E+03  0.84291139908E+03  0.77000000000E+02 0.  0.
<mgrwt>
<rscale>  0 0.26213231E+03</rscale>
<asrwt>0</asrwt>
<pdfrwt beam="1">  1        2 0.35798833E+00 0.26213231E+03</pdfrwt>
<pdfrwt beam="2">  1       -2 0.11357573E-02 0.26213231E+03</pdfrwt>
<totfact> 0.88179136E+03</totfact>
</mgrwt>
</event>
<event>
 4    1  0.6086918E-004  0.3353693E+03  0.7818608E-02  0.1068786E+00
          2   -1    0    0  501    0  0.00000000000E+00  0.00000000000E+00  0.76541259593E+03  0.76541259593E+03  0.25500000000E-02 0.  1.
         -2   -1    0    0    0  501 -0.00000000000E+00 -0.00000000000E+00 -0.36735937392E+02  0.36735937480E+02  0.25500000000E-02 0. -1.
    5000001    1    1    2    0    0 -0.13102547249E+03  0.69658591657E+01  0.53300860261E+03  0.55429537982E+03  0.77000000000E+02 0.  0.
   -5000001    1    1    2    0    0  0.13102547249E+03 -0.69658591657E+01  0.19566805592E+03  0.24785315359E+03  0.77000000000E+02 0.  0.
<mgrwt>
<rscale>  0 0.33536934E+03</rscale>
<asrwt>0</asrwt>
<pdfrwt beam="1">  1        2 0.11775577E+00 0.33536934E+03</pdfrwt>
<pdfrwt beam="2">  1       -2 0.56516832E-02 0.33536934E+03</pdfrwt>
<totfact> 0.61113098E+03</totfact>
</mgrwt>
</event>
<event>
 4    1  0.6086918E-004  0.2333589E+03  0.7818608E-02  0.1124298E+00
          2   -1    0    0  501    0  0.00000000000E+00  0.00000000000E+00  0.62321529715E+02  0.62321529767E+02  0.25500000000E-02 0.  1.
         -2   -1    0    0    0  501 -0.00000000000E+00 -0.00000000000E+00 -0.21844927235E+03  0.21844927236E+03  0.25500000000E-02 0. -1.
    5000001    1    1    2    0    0  0.35463821467E+02 -0.59260321318E+02 -0.14303095763E+03  0.17651153831E+03  0.77000000000E+02 0.  0.
   -5000001    1    1    2    0    0 -0.35463821467E+02  0.59260321318E+02 -0.13096785008E+02  0.10425926383E+03  0.77000000000E+02 0.  0.
<mgrwt>
<rscale>  0 0.23335889E+03</rscale>
<asrwt>0</asrwt>
<pdfrwt beam="1">  1        2 0.95879277E-02 0.23335889E+03</pdfrwt>
<pdfrwt beam="2">  1       -2 0.33607580E-01 0.23335889E+03</pdfrwt>
<totfact> 0.55110455E+03</totfact>
</mgrwt>
</event>
<event>
 4    1  0.6086918E-004  0.1729980E+03  0.7818608E-02  0.1174757E+00
         -2   -1    0    0    0  501 -0.00000000000E+00  0.00000000000E+00  0.10207641491E+02  0.10207641810E+02  0.25500000000E-02 0. -1.
          2   -1    0    0  501    0  0.00000000000E+00 -0.00000000000E+00 -0.73298806114E+03  0.73298806114E+03  0.25500000000E-02 0.  1.
    5000001    1    1    2    0    0  0.11592838799E+02  0.36518588090E+02 -0.40101540204E+03  0.41013455580E+03  0.77000000000E+02 0.  0.
   -5000001    1    1    2    0    0 -0.11592838799E+02 -0.36518588090E+02 -0.32176501760E+03  0.33306114715E+03  0.77000000000E+02 0.  0.
<mgrwt>
<rscale>  0 0.17299803E+03</rscale>
<asrwt>0</asrwt>
<pdfrwt beam="1">  1        2 0.11276735E+00 0.17299803E+03</pdfrwt>
<pdfrwt beam="2">  1       -2 0.15704070E-02 0.17299803E+03</pdfrwt>
<totfact> 0.41881008E+04</totfact>
</mgrwt>
</event>
<event>
 4    1  0.6086918E-004  0.2940929E+03  0.7818608E-02  0.1088231E+00
         -2   -1    0    0    0  501 -0.00000000000E+00  0.00000000000E+00  0.16637759568E+02  0.16637759763E+02  0.25500000000E-02 0. -1.
          2   -1    0    0  501    0  0.00000000000E+00 -0.00000000000E+00 -0.12996134481E+04  0.12996134481E+04  0.25500000000E-02 0.  1.
    5000001    1    1    2    0    0 -0.61262487303E+02 -0.10926136682E+03 -0.64858927672E+03  0.66504750846E+03  0.77000000000E+02 0.  0.
   -5000001    1    1    2    0    0  0.61262487303E+02  0.10926136682E+03 -0.63438641185E+03  0.65120369945E+03  0.77000000000E+02 0.  0.
<mgrwt>
<rscale>  0 0.29409288E+03</rscale>
<asrwt>0</asrwt>
<pdfrwt beam="1">  1        2 0.19994045E+00 0.29409288E+03</pdfrwt>
<pdfrwt beam="2">  1       -2 0.25596564E-02 0.29409288E+03</pdfrwt>
<totfact> 0.94304527E+03</totfact>
</mgrwt>
</event>
<event>
 4    1  0.6086918E-004  0.2220753E+03  0.7818608E-02  0.1132345E+00
          2   -1    0    0  501    0  0.00000000000E+00  0.00000000000E+00  0.66791697323E+03  0.66791697324E+03  0.25500000000E-02 0.  1.
         -2   -1    0    0    0  501 -0.00000000000E+00 -0.00000000000E+00 -0.18459414588E+02  0.18459414764E+02  0.25500000000E-02 0. -1.
    5000001    1    1    2    0    0 -0.20061173629E+02 -0.76190679736E+02  0.36765399705E+03  0.38380454910E+03  0.77000000000E+02 0.  0.
   -5000001    1    1    2    0    0  0.20061173629E+02  0.76190679736E+02  0.28180356159E+03  0.30257183890E+03  0.77000000000E+02 0.  0.
<mgrwt>
<rscale>  0 0.22207527E+03</rscale>
<asrwt>0</asrwt>
<pdfrwt beam="1">  1        2 0.10275646E+00 0.22207527E+03</pdfrwt>
<pdfrwt beam="2">  1       -2 0.28399098E-02 0.22207527E+03</pdfrwt>
<totfact> 0.20033957E+04</totfact>
</mgrwt>
</event>
<event>
 4    1  0.6086918E-004  0.2769893E+03  0.7818608E-02  0.1097345E+00
         -2   -1    0    0    0  501 -0.00000000000E+00  0.00000000000E+00  0.13137240239E+02  0.13137240486E+02  0.25500000000E-02 0.  1.
          2   -1    0    0  501    0  0.00000000000E+00 -0.00000000000E+00 -0.14600307095E+04  0.14600307095E+04  0.25500000000E-02 0. -1.
    5000001    1    1    2    0    0  0.10636384796E+03 -0.39575851933E+02 -0.82606184399E+03  0.83736890694E+03  0.77000000000E+02 0.  0.
   -5000001    1    1    2    0    0 -0.10636384796E+03  0.39575851933E+02 -0.62083162527E+03  0.63579904305E+03  0.77000000000E+02 0.  0.
<mgrwt>
<rscale>  0 0.27698935E+03</rscale>
<asrwt>0</asrwt>
<pdfrwt beam="1">  1        2 0.22461998E+00 0.27698935E+03</pdfrwt>
<pdfrwt beam="2">  1       -2 0.20211151E-02 0.27698935E+03</pdfrwt>
<totfact> 0.10914172E+04</totfact>
</mgrwt>
</event>
<event>
 4    1  0.6086918E-004  0.3012795E+03  0.7818608E-02  0.1084603E+00
         -2   -1    0    0    0  501 -0.00000000000E+00  0.00000000000E+00  0.13646051252E+02  0.13646051491E+02  0.25500000000E-02 0. -1.
          2   -1    0    0  501    0  0.00000000000E+00 -0.00000000000E+00 -0.16629231811E+04  0.16629231811E+04  0.25500000000E-02 0.  1.
    5000001    1    1    2    0    0  0.43133880152E+02  0.80918327688E+02 -0.13332965317E+04  0.13386623730E+04  0.77000000000E+02 0.  0.
   -5000001    1    1    2    0    0 -0.43133880152E+02 -0.80918327688E+02 -0.31598059817E+03  0.33790685964E+03  0.77000000000E+02 0.  0.
<mgrwt>
<rscale>  0 0.30127951E+03</rscale>
<asrwt>0</asrwt>
<pdfrwt beam="1">  1        2 0.25583417E+00 0.30127951E+03</pdfrwt>
<pdfrwt beam="2">  1       -2 0.20993938E-02 0.30127951E+03</pdfrwt>
<totfact> 0.80547012E+03</totfact>
</mgrwt>
</event>
<event>
 4    1  0.6086918E-004  0.3700517E+03  0.7818608E-02  0.1054673E+00
         -2   -1    0    0    0  501 -0.00000000000E+00  0.00000000000E+00  0.18917489378E+03  0.18917489380E+03  0.25500000000E-02 0. -1.
          2   -1    0    0  501    0  0.00000000000E+00 -0.00000000000E+00 -0.18096778342E+03  0.18096778344E+03  0.25500000000E-02 0.  1.
    5000001    1    1    2    0    0 -0.16205438869E+03  0.41335648418E+02 -0.14212159843E+02  0.18466522740E+03  0.77000000000E+02 0.  0.
   -5000001    1    1    2    0    0  0.16205438869E+03 -0.41335648418E+02  0.22419270206E+02  0.18547744984E+03  0.77000000000E+02 0.  0.
<mgrwt>
<rscale>  0 0.37005168E+03</rscale>
<asrwt>0</asrwt>
<pdfrwt beam="1">  1        2 0.27841197E-01 0.37005168E+03</pdfrwt>
<pdfrwt beam="2">  1       -2 0.29103830E-01 0.37005168E+03</pdfrwt>
<totfact> 0.20718702E+03</totfact>
</mgrwt>
</event>
<event>
 4    1  0.6086918E-004  0.2829233E+03  0.7818608E-02  0.1094103E+00
         -2   -1    0    0    0  501 -0.00000000000E+00  0.00000000000E+00  0.20070698950E+02  0.20070699112E+02  0.25500000000E-02 0. -1.
          2   -1    0    0  501    0  0.00000000000E+00 -0.00000000000E+00 -0.99704529341E+03  0.99704529342E+03  0.25500000000E-02 0.  1.
    5000001    1    1    2    0    0 -0.11020060183E+03 -0.32424435173E+02 -0.38142561328E+03  0.40572159803E+03  0.77000000000E+02 0.  0.
   -5000001    1    1    2    0    0  0.11020060183E+03  0.32424435173E+02 -0.59554898118E+03  0.61139439450E+03  0.77000000000E+02 0.  0.
<mgrwt>
<rscale>  0 0.28292328E+03</rscale>
<asrwt>0</asrwt>
<pdfrwt beam="1">  1        2 0.15339155E+00 0.28292328E+03</pdfrwt>
<pdfrwt beam="2">  1       -2 0.30878006E-02 0.28292328E+03</pdfrwt>
<totfact> 0.10682398E+04</totfact>
</mgrwt>
</event>
<event>
 4    1  0.6086918E-004  0.3263259E+03  0.7818608E-02  0.1072774E+00
         -2   -1    0    0    0  501 -0.00000000000E+00  0.00000000000E+00  0.51882099816E+01  0.51882106082E+01  0.25500000000E-02 0. -1.
          2   -1    0    0  501    0  0.00000000000E+00 -0.00000000000E+00 -0.51312782742E+04  0.51312782742E+04  0.25500000000E-02 0.  1.
    5000001    1    1    2    0    0 -0.28904464608E+02 -0.12218135480E+03 -0.36681661817E+04  0.36711218842E+04  0.77000000000E+02 0.  0.
   -5000001    1    1    2    0    0  0.28904464608E+02  0.12218135480E+03 -0.14579238825E+04  0.14653446007E+04  0.77000000000E+02 0.  0.
<mgrwt>
<rscale>  0 0.32632592E+03</rscale>
<asrwt>0</asrwt>
<pdfrwt beam="1">  1        2 0.78942336E+00 0.32632592E+03</pdfrwt>
<pdfrwt beam="2">  1       -2 0.79819031E-03 0.32632592E+03</pdfrwt>
<totfact> 0.10031656E+02</totfact>
</mgrwt>
</event>
<event>
 4    1  0.6086918E-004  0.2001968E+03  0.7818608E-02  0.1149573E+00
          2   -1    0    0  501    0  0.00000000000E+00  0.00000000000E+00  0.13841649908E+03  0.13841649910E+03  0.25500000000E-02 0.  1.
         -2   -1    0    0    0  501 -0.00000000000E+00 -0.00000000000E+00 -0.72387971461E+02  0.72387971506E+02  0.25500000000E-02 0. -1.
    5000001    1    1    2    0    0  0.55221571140E+02 -0.48464024568E+01  0.66607330782E+02  0.11592431173E+03  0.77000000000E+02 0.  0.
   -5000001    1    1    2    0    0 -0.55221571140E+02  0.48464024568E+01 -0.57880316432E+00  0.94880158880E+02  0.77000000000E+02 0.  0.
<mgrwt>
<rscale>  0 0.20019680E+03</rscale>
<asrwt>0</asrwt>
<pdfrwt beam="1">  1        2 0.21294846E-01 0.20019680E+03</pdfrwt>
<pdfrwt beam="2">  1       -2 0.11136611E-01 0.20019680E+03</pdfrwt>
<totfact> 0.13920788E+04</totfact>
</mgrwt>
</event>
<event>
 4    1  0.6086918E-004  0.2114029E+03  0.7818608E-02  0.1140460E+00
         -2   -1    0    0    0  501 -0.00000000000E+00  0.00000000000E+00  0.55671806940E+02  0.55671806998E+02  0.25500000000E-02 0. -1.
          2   -1    0    0  501    0  0.00000000000E+00 -0.00000000000E+00 -0.20069034234E+03  0.20069034236E+03  0.25500000000E-02 0.  1.
    5000001    1    1    2    0    0 -0.45621480482E+02 -0.84297194325E+01 -0.50841641628E+01  0.90040148691E+02  0.77000000000E+02 0.  0.
   -5000001    1    1    2    0    0  0.45621480482E+02  0.84297194325E+01 -0.13993437124E+03  0.16632200066E+03  0.77000000000E+02 0.  0.
<mgrwt>
<rscale>  0 0.21140288E+03</rscale>
<asrwt>0</asrwt>
<pdfrwt beam="1">  1        2 0.30875437E-01 0.21140288E+03</pdfrwt>
<pdfrwt beam="2">  1       -2 0.85648935E-02 0.21140288E+03</pdfrwt>
<totfact> 0.14007948E+04</totfact>
</mgrwt>
</event>
<event>
 4    1  0.6086918E-004  0.1619832E+03  0.7818608E-02  0.1186476E+00
          2   -1    0    0  501    0  0.00000000000E+00  0.00000000000E+00  0.13745053291E+04  0.13745053291E+04  0.25500000000E-02 0.  1.
         -2   -1    0    0    0  501 -0.00000000000E+00 -0.00000000000E+00 -0.47723619657E+01  0.47723626470E+01  0.25500000000E-02 0. -1.
    5000001    1    1    2    0    0  0.17444330445E+02  0.17406207007E+02  0.72601817737E+03  0.73050576629E+03  0.77000000000E+02 0.  0.
   -5000001    1    1    2    0    0 -0.17444330445E+02 -0.17406207007E+02  0.64371478979E+03  0.64877192549E+03  0.77000000000E+02 0.  0.
<mgrwt>
<rscale>  0 0.16198318E+03</rscale>
<asrwt>0</asrwt>
<pdfrwt beam="1">  1        2 0.21146252E+00 0.16198318E+03</pdfrwt>
<pdfrwt beam="2">  1       -2 0.73420901E-03 0.16198318E+03</pdfrwt>
<totfact> 0.51225047E+04</totfact>
</mgrwt>
</event>
<event>
 4    1  0.6086918E-004  0.2352085E+03  0.7818608E-02  0.1123027E+00
          2   -1    0    0  501    0  0.00000000000E+00  0.00000000000E+00  0.13026808325E+04  0.13026808325E+04  0.25500000000E-02 0.  1.
         -2   -1    0    0    0  501 -0.00000000000E+00 -0.00000000000E+00 -0.10617153065E+02  0.10617153371E+02  0.25500000000E-02 0. -1.
    5000001    1    1    2    0    0  0.32838571731E+02  0.62761232763E+02  0.34615749157E+03  0.36162321980E+03  0.77000000000E+02 0.  0.
   -5000001    1    1    2    0    0 -0.32838571731E+02 -0.62761232763E+02  0.94590618783E+03  0.95167476603E+03  0.77000000000E+02 0.  0.
<mgrwt>
<rscale>  0 0.23520852E+03</rscale>
<asrwt>0</asrwt>
<pdfrwt beam="1">  1        2 0.20041242E+00 0.23520852E+03</pdfrwt>
<pdfrwt beam="2">  1       -2 0.16334083E-02 0.23520852E+03</pdfrwt>
<totfact> 0.18068158E+04</totfact>
</mgrwt>
</event>
<event>
 4    1  0.6086918E-004  0.2197562E+03  0.7818608E-02  0.1134065E+00
          2   -1    0    0  501    0  0.00000000000E+00  0.00000000000E+00  0.19474755313E+04  0.19474755313E+04  0.25500000000E-02 0.  1.
         -2   -1    0    0    0  501 -0.00000000000E+00 -0.00000000000E+00 -0.61994061149E+01  0.61994066393E+01  0.25500000000E-02 0. -1.
    5000001    1    1    2    0    0 -0.68649393040E+02  0.25418725714E+02  0.72149975397E+03  0.72928029300E+03  0.77000000000E+02 0.  0.
   -5000001    1    1    2    0    0  0.68649393040E+02 -0.25418725714E+02  0.12197763712E+04  0.12243946450E+04  0.77000000000E+02 0.  0.
<mgrwt>
<rscale>  0 0.21975616E+03</rscale>
<asrwt>0</asrwt>
<pdfrwt beam="1">  1        2 0.29961168E+00 0.21975616E+03</pdfrwt>
<pdfrwt beam="2">  1       -2 0.95375465E-03 0.21975616E+03</pdfrwt>
<totfact> 0.17950422E+04</totfact>
</mgrwt>
</event>
<event>
 4    1  0.6086918E-004  0.2746722E+03  0.7818608E-02  0.1098635E+00
         -2   -1    0    0    0  501 -0.00000000000E+00  0.00000000000E+00  0.17927543240E+02  0.17927543421E+02  0.25500000000E-02 0. -1.
          2   -1    0    0  501    0  0.00000000000E+00 -0.00000000000E+00 -0.10520800519E+04  0.10520800520E+04  0.25500000000E-02 0.  1.
    5000001    1    1    2    0    0 -0.10577418391E+03 -0.18010109574E+02 -0.66385581523E+03  0.67686489453E+03  0.77000000000E+02 0.  0.
   -5000001    1    1    2    0    0  0.10577418391E+03  0.18010109574E+02 -0.37029669348E+03  0.39314270085E+03  0.77000000000E+02 0.  0.
<mgrwt>
<rscale>  0 0.27467225E+03</rscale>
<asrwt>0</asrwt>
<pdfrwt beam="1">  1        2 0.16185842E+00 0.27467225E+03</pdfrwt>
<pdfrwt beam="2">  1       -2 0.27580844E-02 0.27467225E+03</pdfrwt>
<totfact> 0.11691612E+04</totfact>
</mgrwt>
</event>
<event>
 4    1  0.6086918E-004  0.2535391E+03  0.7818608E-02  0.1111088E+00
         -2   -1    0    0    0  501 -0.00000000000E+00  0.00000000000E+00  0.17538369771E+02  0.17538369957E+02  0.25500000000E-02 0. -1.
          2   -1    0    0  501    0  0.00000000000E+00 -0.00000000000E+00 -0.91630626824E+03  0.91630626825E+03  0.25500000000E-02 0.  1.
    5000001    1    1    2    0    0  0.84823053514E+02 -0.27918550391E+01 -0.64905391415E+03  0.65909235190E+03  0.77000000000E+02 0.  0.
   -5000001    1    1    2    0    0 -0.84823053514E+02  0.27918550391E+01 -0.24971398433E+03  0.27475228630E+03  0.77000000000E+02 0.  0.
<mgrwt>
<rscale>  0 0.25353910E+03</rscale>
<asrwt>0</asrwt>
<pdfrwt beam="1">  1        2 0.14097016E+00 0.25353910E+03</pdfrwt>
<pdfrwt beam="2">  1       -2 0.26982115E-02 0.25353910E+03</pdfrwt>
<totfact> 0.14606305E+04</totfact>
</mgrwt>
</event>
<event>
 4    1  0.6086918E-004  0.1877465E+03  0.7818608E-02  0.1160510E+00
         -2   -1    0    0    0  501 -0.00000000000E+00  0.00000000000E+00  0.70897917405E+01  0.70897921991E+01  0.25500000000E-02 0. -1.
          2   -1    0    0  501    0  0.00000000000E+00 -0.00000000000E+00 -0.12429399659E+04  0.12429399659E+04  0.25500000000E-02 0.  1.
    5000001    1    1    2    0    0  0.10726697139E+02 -0.44245503919E+02 -0.80747085715E+03  0.81241055618E+03  0.77000000000E+02 0.  0.
   -5000001    1    1    2    0    0 -0.10726697139E+02  0.44245503919E+02 -0.42837931705E+03  0.43761920196E+03  0.77000000000E+02 0.  0.
<mgrwt>
<rscale>  0 0.18774649E+03</rscale>
<asrwt>0</asrwt>
<pdfrwt beam="1">  1        2 0.19122136E+00 0.18774649E+03</pdfrwt>
<pdfrwt beam="2">  1       -2 0.10907382E-02 0.18774649E+03</pdfrwt>
<totfact> 0.34595391E+04</totfact>
</mgrwt>
</event>
<event>
 4    1  0.6086918E-004  0.1903979E+03  0.7818608E-02  0.1158103E+00
         -2   -1    0    0    0  501 -0.00000000000E+00  0.00000000000E+00  0.56616251396E+01  0.56616257139E+01  0.25500000000E-02 0. -1.
          2   -1    0    0  501    0  0.00000000000E+00 -0.00000000000E+00 -0.16007493182E+04  0.16007493182E+04  0.25500000000E-02 0.  1.
    5000001    1    1    2    0    0 -0.53730097252E+02 -0.14713698907E+02 -0.84408340656E+03  0.84941698447E+03  0.77000000000E+02 0.  0.
   -5000001    1    1    2    0    0  0.53730097252E+02  0.14713698907E+02 -0.75100428646E+03  0.75699395940E+03  0.77000000000E+02 0.  0.
<mgrwt>
<rscale>  0 0.19039793E+03</rscale>
<asrwt>0</asrwt>
<pdfrwt beam="1">  1        2 0.24626877E+00 0.19039793E+03</pdfrwt>
<pdfrwt beam="2">  1       -2 0.87102057E-03 0.19039793E+03</pdfrwt>
<totfact> 0.30797066E+04</totfact>
</mgrwt>
</event>
<event>
 4    1  0.6086918E-004  0.2595629E+03  0.7818608E-02  0.1107406E+00
         -2   -1    0    0    0  501 -0.00000000000E+00  0.00000000000E+00  0.56321934794E+02  0.56321934852E+02  0.25500000000E-02 0. -1.
          2   -1    0    0  501    0  0.00000000000E+00 -0.00000000000E+00 -0.29905266348E+03  0.29905266349E+03  0.25500000000E-02 0.  1.
    5000001    1    1    2    0    0 -0.70870821941E+01 -0.10421692739E+03 -0.12366856634E+03  0.17926045016E+03  0.77000000000E+02 0.  0.
   -5000001    1    1    2    0    0  0.70870821941E+01  0.10421692739E+03 -0.11906216235E+03  0.17611414819E+03  0.77000000000E+02 0.  0.
<mgrwt>
<rscale>  0 0.25956290E+03</rscale>
<asrwt>0</asrwt>
<pdfrwt beam="1">  1        2 0.46008101E-01 0.25956290E+03</pdfrwt>
<pdfrwt beam="2">  1       -2 0.86649132E-02 0.25956290E+03</pdfrwt>
<totfact> 0.90432913E+03</totfact>
</mgrwt>
</event>
<event>
 4    1  0.6086918E-004  0.2548071E+03  0.7818608E-02  0.1110304E+00
          2   -1    0    0  501    0  0.00000000000E+00  0.00000000000E+00  0.70924688963E+03  0.70924688963E+03  0.25500000000E-02 0.  1.
         -2   -1    0    0    0  501 -0.00000000000E+00 -0.00000000000E+00 -0.22885772814E+02  0.22885772956E+02  0.25500000000E-02 0. -1.
    5000001    1    1    2    0    0 -0.11962347009E+02 -0.94097085860E+02  0.44698934076E+03  0.46338518542E+03  0.77000000000E+02 0.  0.
   -5000001    1    1    2    0    0  0.11962347009E+02  0.94097085860E+02  0.23937177605E+03  0.26874747717E+03  0.77000000000E+02 0.  0.
<mgrwt>
<rscale>  0 0.25480709E+03</rscale>
<asrwt>0</asrwt>
<pdfrwt beam="1">  1        2 0.10911489E+00 0.25480709E+03</pdfrwt>
<pdfrwt beam="2">  1       -2 0.35208888E-02 0.25480709E+03</pdfrwt>
<totfact> 0.13635363E+04</totfact>
</mgrwt>
</event>
<event>
 4    1  0.6086918E-004  0.2758143E+03  0.7818608E-02  0.1097997E+00
         -2   -1    0    0    0  501 -0.00000000000E+00  0.00000000000E+00  0.18824046361E+02  0.18824046533E+02  0.25500000000E-02 0.  1.
          2   -1    0    0  501    0  0.00000000000E+00 -0.00000000000E+00 -0.10103240115E+04  0.10103240115E+04  0.25500000000E-02 0. -1.
    5000001    1    1    2    0    0 -0.87687100572E+02 -0.72089751817E+02 -0.44253125645E+03  0.46330213992E+03  0.77000000000E+02 0.  0.
   -5000001    1    1    2    0    0  0.87687100572E+02  0.72089751817E+02 -0.54896870870E+03  0.56584591813E+03  0.77000000000E+02 0.  0.
<mgrwt>
<rscale>  0 0.27581433E+03</rscale>
<asrwt>0</asrwt>
<pdfrwt beam="1">  1        2 0.15543442E+00 0.27581433E+03</pdfrwt>
<pdfrwt beam="2">  1       -2 0.28960079E-02 0.27581433E+03</pdfrwt>
<totfact> 0.11525890E+04</totfact>
</mgrwt>
</event>
<event>
 4    1  0.6086918E-004  0.2818747E+03  0.7818608E-02  0.1094669E+00
         -2   -1    0    0    0  501 -0.00000000000E+00  0.00000000000E+00  0.39691879070E+02  0.39691879152E+02  0.25500000000E-02 0. -1.
          2   -1    0    0  501    0  0.00000000000E+00 -0.00000000000E+00 -0.50043840411E+03  0.50043840411E+03  0.25500000000E-02 0.  1.
    5000001    1    1    2    0    0 -0.99170739519E+02  0.36261082405E+02 -0.12925564357E+03  0.18380893087E+03  0.77000000000E+02 0.  0.
   -5000001    1    1    2    0    0  0.99170739519E+02 -0.36261082405E+02 -0.33149088147E+03  0.35632135239E+03  0.77000000000E+02 0.  0.
<mgrwt>
<rscale>  0 0.28187473E+03</rscale>
<asrwt>0</asrwt>
<pdfrwt beam="1">  1        2 0.76990519E-01 0.28187473E+03</pdfrwt>
<pdfrwt beam="2">  1       -2 0.61064433E-02 0.28187473E+03</pdfrwt>
<totfact> 0.89183174E+03</totfact>
</mgrwt>
</event>
<event>
 4    1  0.6086918E-004  0.3010370E+03  0.7818608E-02  0.1084723E+00
          2   -1    0    0  501    0  0.00000000000E+00  0.00000000000E+00  0.33306267390E+02  0.33306267488E+02  0.25500000000E-02 0.  1.
         -2   -1    0    0    0  501 -0.00000000000E+00 -0.00000000000E+00 -0.68022705435E+03  0.68022705435E+03  0.25500000000E-02 0. -1.
    5000001    1    1    2    0    0  0.63651866420E+01  0.10315237278E+03 -0.13916066820E+03  0.18967239964E+03  0.77000000000E+02 0.  0.
   -5000001    1    1    2    0    0 -0.63651866420E+01 -0.10315237278E+03 -0.50776011875E+03  0.52386092220E+03  0.77000000000E+02 0.  0.
<mgrwt>
<rscale>  0 0.30103704E+03</rscale>
<asrwt>0</asrwt>
<pdfrwt beam="1">  1        2 0.51240417E-02 0.30103704E+03</pdfrwt>
<pdfrwt beam="2">  1       -2 0.10465031E+00 0.30103704E+03</pdfrwt>
<totfact> 0.11755322E+03</totfact>
</mgrwt>
</event>
<event>
 4    1  0.6086918E-004  0.2077105E+03  0.7818608E-02  0.1143392E+00
         -2   -1    0    0    0  501 -0.00000000000E+00  0.00000000000E+00  0.39595303624E+03  0.39595303624E+03  0.25500000000E-02 0. -1.
          2   -1    0    0  501    0  0.00000000000E+00 -0.00000000000E+00 -0.27240378788E+02  0.27240378908E+02  0.25500000000E-02 0.  1.
    5000001    1    1    2    0    0  0.60169851845E+02  0.35162636497E+02  0.18496291848E+03  0.21212520664E+03  0.77000000000E+02 0.  0.
   -5000001    1    1    2    0    0 -0.60169851845E+02 -0.35162636497E+02  0.18374973896E+03  0.21106820851E+03  0.77000000000E+02 0.  0.
<mgrwt>
<rscale>  0 0.20771048E+03</rscale>
<asrwt>0</asrwt>
<pdfrwt beam="1">  1        2 0.41908273E-02 0.20771048E+03</pdfrwt>
<pdfrwt beam="2">  1       -2 0.60915856E-01 0.20771048E+03</pdfrwt>
<totfact> 0.49916223E+03</totfact>
</mgrwt>
</event>
<event>
 4    1  0.6086918E-004  0.1766389E+03  0.7818608E-02  0.1171096E+00
          2   -1    0    0  501    0  0.00000000000E+00  0.00000000000E+00  0.17027991918E+04  0.17027991918E+04  0.25500000000E-02 0.  1.
         -2   -1    0    0    0  501 -0.00000000000E+00 -0.00000000000E+00 -0.45808859983E+01  0.45808867080E+01  0.25500000000E-02 0. -1.
    5000001    1    1    2    0    0  0.21627816017E+02 -0.23346144979E+02  0.11323266808E+04  0.11353878267E+04  0.77000000000E+02 0.  0.
   -5000001    1    1    2    0    0 -0.21627816017E+02  0.23346144979E+02  0.56589162495E+03  0.57199225178E+03  0.77000000000E+02 0.  0.
<mgrwt>
<rscale>  0 0.17663895E+03</rscale>
<asrwt>0</asrwt>
<pdfrwt beam="1">  1        2 0.26196930E+00 0.17663895E+03</pdfrwt>
<pdfrwt beam="2">  1       -2 0.70475122E-03 0.17663895E+03</pdfrwt>
<totfact> 0.36764860E+04</totfact>
</mgrwt>
</event>
<event>
 4    1  0.6086918E-004  0.2291307E+03  0.7818608E-02  0.1127253E+00
          2   -1    0    0  501    0  0.00000000000E+00  0.00000000000E+00  0.98622509696E+03  0.98622509696E+03  0.25500000000E-02 0.  1.
         -2   -1    0    0    0  501 -0.00000000000E+00 -0.00000000000E+00 -0.13308546658E+02  0.13308546902E+02  0.25500000000E-02 0. -1.
    5000001    1    1    2    0    0 -0.13243512302E+02  0.82220882832E+02  0.41604300883E+03  0.43122667982E+03  0.77000000000E+02 0.  0.
   -5000001    1    1    2    0    0  0.13243512302E+02 -0.82220882832E+02  0.55687354147E+03  0.56830696404E+03  0.77000000000E+02 0.  0.
<mgrwt>
<rscale>  0 0.22913073E+03</rscale>
<asrwt>0</asrwt>
<pdfrwt beam="1">  1        2 0.15172693E+00 0.22913073E+03</pdfrwt>
<pdfrwt beam="2">  1       -2 0.20474689E-02 0.22913073E+03</pdfrwt>
<totfact> 0.19745043E+04</totfact>
</mgrwt>
</event>
<event>
 4    1  0.6086918E-004  0.2515581E+03  0.7818608E-02  0.1112324E+00
         -2   -1    0    0    0  501 -0.00000000000E+00  0.00000000000E+00  0.36187166867E+02  0.36187166957E+02  0.25500000000E-02 0. -1.
          2   -1    0    0  501    0  0.00000000000E+00 -0.00000000000E+00 -0.43718160629E+03  0.43718160630E+03  0.25500000000E-02 0.  1.
    5000001    1    1    2    0    0  0.80023400377E+02  0.53490009781E+02 -0.15339944080E+03  0.19678748484E+03  0.77000000000E+02 0.  0.
   -5000001    1    1    2    0    0 -0.80023400377E+02 -0.53490009781E+02 -0.24759499863E+03  0.27658128841E+03  0.77000000000E+02 0.  0.
<mgrwt>
<rscale>  0 0.25155806E+03</rscale>
<asrwt>0</asrwt>
<pdfrwt beam="1">  1        2 0.67258705E-01 0.25155806E+03</pdfrwt>
<pdfrwt beam="2">  1       -2 0.55672568E-02 0.25155806E+03</pdfrwt>
<totfact> 0.11874923E+04</totfact>
</mgrwt>
</event>
<event>
 4    1  0.6086918E-004  0.2544127E+03  0.7818608E-02  0.1110547E+00
         -2   -1    0    0    0  501 -0.00000000000E+00  0.00000000000E+00  0.37096882761E+02  0.37096882848E+02  0.25500000000E-02 0. -1.
          2   -1    0    0  501    0  0.00000000000E+00 -0.00000000000E+00 -0.43619445410E+03  0.43619445411E+03  0.25500000000E-02 0.  1.
    5000001    1    1    2    0    0  0.86105779213E+02  0.25780011216E+02 -0.28628163720E+03  0.30978216538E+03  0.77000000000E+02 0.  0.
   -5000001    1    1    2    0    0 -0.86105779213E+02 -0.25780011216E+02 -0.11281593414E+03  0.16350917157E+03  0.77000000000E+02 0.  0.
<mgrwt>
<rscale>  0 0.25441269E+03</rscale>
<asrwt>0</asrwt>
<pdfrwt beam="1">  1        2 0.67106835E-01 0.25441269E+03</pdfrwt>
<pdfrwt beam="2">  1       -2 0.57072131E-02 0.25441269E+03</pdfrwt>
<totfact> 0.11467547E+04</totfact>
</mgrwt>
</event>
<event>
 4    1  0.6086918E-004  0.2253573E+03  0.7818608E-02  0.1129951E+00
          2   -1    0    0  501    0  0.00000000000E+00  0.00000000000E+00  0.23524687000E+04  0.23524687000E+04  0.25500000000E-02 0.  1.
         -2   -1    0    0    0  501 -0.00000000000E+00 -0.00000000000E+00 -0.53970857174E+01  0.53970863198E+01  0.25500000000E-02 0. -1.
    5000001    1    1    2    0    0  0.11146462230E+02 -0.81012593863E+02  0.12672300425E+04  0.12721982018E+04  0.77000000000E+02 0.  0.
   -5000001    1    1    2    0    0 -0.11146462230E+02  0.81012593863E+02  0.10798415718E+04  0.10856675845E+04  0.77000000000E+02 0.  0.
<mgrwt>
<rscale>  0 0.22535728E+03</rscale>
<asrwt>0</asrwt>
<pdfrwt beam="1">  1        2 0.36191882E+00 0.22535728E+03</pdfrwt>
<pdfrwt beam="2">  1       -2 0.83031965E-03 0.22535728E+03</pdfrwt>
<totfact> 0.13423598E+04</totfact>
</mgrwt>
</event>
<event>
 4    1  0.6086918E-004  0.1943723E+03  0.7818608E-02  0.1154576E+00
          2   -1    0    0  501    0  0.00000000000E+00  0.00000000000E+00  0.16464044041E+04  0.16464044041E+04  0.25500000000E-02 0.  1.
         -2   -1    0    0    0  501 -0.00000000000E+00 -0.00000000000E+00 -0.57368355186E+01  0.57368360854E+01  0.25500000000E-02 0. -1.
    5000001    1    1    2    0    0  0.99131867588E+00 -0.57237191637E+02  0.95175875659E+03  0.95658288170E+03  0.77000000000E+02 0.  0.
   -5000001    1    1    2    0    0 -0.99131867588E+00  0.57237191637E+02  0.68890881195E+03  0.69555835845E+03  0.77000000000E+02 0.  0.
<mgrwt>
<rscale>  0 0.19437234E+03</rscale>
<asrwt>0</asrwt>
<pdfrwt beam="1">  1        2 0.25329304E+00 0.19437234E+03</pdfrwt>
<pdfrwt beam="2">  1       -2 0.88258992E-03 0.19437234E+03</pdfrwt>
<totfact> 0.28636760E+04</totfact>
</mgrwt>
</event>
<event>
 4    1  0.6086918E-004  0.3493399E+03  0.7818608E-02  0.1062886E+00
          2   -1    0    0  501    0  0.00000000000E+00  0.00000000000E+00  0.17276493193E+03  0.17276493195E+03  0.25500000000E-02 0.  1.
         -2   -1    0    0    0  501 -0.00000000000E+00 -0.00000000000E+00 -0.17659598808E+03  0.17659598810E+03  0.25500000000E-02 0. -1.
    5000001    1    1    2    0    0  0.55698745378E+01  0.92360440239E+02  0.12465874257E+03  0.17329245951E+03  0.77000000000E+02 0.  0.
   -5000001    1    1    2    0    0 -0.55698745378E+01 -0.92360440239E+02 -0.12848979871E+03  0.17606846054E+03  0.77000000000E+02 0.  0.
<mgrwt>
<rscale>  0 0.34933991E+03</rscale>
<asrwt>0</asrwt>
<pdfrwt beam="1">  1        2 0.26579220E-01 0.34933991E+03</pdfrwt>
<pdfrwt beam="2">  1       -2 0.27168614E-01 0.34933991E+03</pdfrwt>
<totfact> 0.24689920E+03</totfact>
</mgrwt>
</event>
<event>
 4    1  0.6086918E-004  0.2422191E+03  0.7818608E-02  0.1118323E+00
          2   -1    0    0  501    0  0.00000000000E+00  0.00000000000E+00  0.25359256495E+04  0.25359256495E+04  0.25500000000E-02 0.  1.
         -2   -1    0    0    0  501 -0.00000000000E+00 -0.00000000000E+00 -0.57838912133E+01  0.57838917754E+01  0.25500000000E-02 0. -1.
    5000001    1    1    2    0    0 -0.90545365107E+01  0.93021820562E+02  0.12455095170E+04  0.12513824359E+04  0.77000000000E+02 0.  0.
   -5000001    1    1    2    0    0  0.90545365107E+01 -0.93021820562E+02  0.12846322412E+04  0.12903271054E+04  0.77000000000E+02 0.  0.
<mgrwt>
<rscale>  0 0.24221906E+03</rscale>
<asrwt>0</asrwt>
<pdfrwt beam="1">  1        2 0.39014201E+00 0.24221906E+03</pdfrwt>
<pdfrwt beam="2">  1       -2 0.88983038E-03 0.24221906E+03</pdfrwt>
<totfact> 0.96719343E+03</totfact>
</mgrwt>
</event>
<event>
 4    1  0.6086918E-004  0.2051390E+03  0.7818608E-02  0.1145474E+00
         -2   -1    0    0    0  501 -0.00000000000E+00  0.00000000000E+00  0.43793958869E+02  0.43793958943E+02  0.25500000000E-02 0. -1.
          2   -1    0    0  501    0  0.00000000000E+00 -0.00000000000E+00 -0.24022718160E+03  0.24022718162E+03  0.25500000000E-02 0.  1.
    5000001    1    1    2    0    0  0.55884057084E+02  0.27464203201E+02 -0.61215984463E+02  0.11642038931E+03  0.77000000000E+02 0.  0.
   -5000001    1    1    2    0    0 -0.55884057084E+02 -0.27464203201E+02 -0.13521723827E+03  0.16760075125E+03  0.77000000000E+02 0.  0.
<mgrwt>
<rscale>  0 0.20513897E+03</rscale>
<asrwt>0</asrwt>
<pdfrwt beam="1">  1        2 0.36958027E-01 0.20513897E+03</pdfrwt>
<pdfrwt beam="2">  1       -2 0.67375323E-02 0.20513897E+03</pdfrwt>
<totfact> 0.16691437E+04</totfact>
</mgrwt>
</event>
<event>
 4    1  0.6086918E-004  0.2721964E+03  0.7818608E-02  0.1100029E+00
         -2   -1    0    0    0  501 -0.00000000000E+00  0.00000000000E+00  0.14068567024E+02  0.14068567255E+02  0.25500000000E-02 0. -1.
          2   -1    0    0  501    0  0.00000000000E+00 -0.00000000000E+00 -0.13166031854E+04  0.13166031854E+04  0.25500000000E-02 0.  1.
    5000001    1    1    2    0    0 -0.84959788520E+02 -0.58528452543E+02 -0.86714266544E+03  0.87664653518E+03  0.77000000000E+02 0.  0.
   -5000001    1    1    2    0    0  0.84959788520E+02  0.58528452543E+02 -0.43539195298E+03  0.45402521752E+03  0.77000000000E+02 0.  0.
<mgrwt>
<rscale>  0 0.27219640E+03</rscale>
<asrwt>0</asrwt>
<pdfrwt beam="1">  1        2 0.20255424E+00 0.27219640E+03</pdfrwt>
<pdfrwt beam="2">  1       -2 0.21643960E-02 0.27219640E+03</pdfrwt>
<totfact> 0.11805346E+04</totfact>
</mgrwt>
</event>
<event>
 4    1  0.6086918E-004  0.5337518E+03  0.7818608E-02  0.1005326E+00
          2   -1    0    0  501    0  0.00000000000E+00  0.00000000000E+00  0.85867004262E+03  0.85867004262E+03  0.25500000000E-02 0.  1.
         -2   -1    0    0    0  501 -0.00000000000E+00 -0.00000000000E+00 -0.82945430526E+02  0.82945430565E+02  0.25500000000E-02 0. -1.
    5000001    1    1    2    0    0  0.23003006491E+03 -0.95346069250E+02  0.28668814351E+03  0.38745812072E+03  0.77000000000E+02 0.  0.
   -5000001    1    1    2    0    0 -0.23003006491E+03  0.95346069250E+02  0.48903646858E+03  0.55415735247E+03  0.77000000000E+02 0.  0.
<mgrwt>
<rscale>  0 0.53375184E+03</rscale>
<asrwt>0</asrwt>
<pdfrwt beam="1">  1        2 0.13210308E+00 0.53375184E+03</pdfrwt>
<pdfrwt beam="2">  1       -2 0.12760836E-01 0.53375184E+03</pdfrwt>
<totfact> 0.14453330E+03</totfact>
</mgrwt>
</event>
<event>
 4    1  0.6086918E-004  0.2630254E+03  0.7818608E-02  0.1105339E+00
         -2   -1    0    0    0  501 -0.00000000000E+00  0.00000000000E+00  0.10349227789E+03  0.10349227793E+03  0.25500000000E-02 0. -1.
          2   -1    0    0  501    0  0.00000000000E+00 -0.00000000000E+00 -0.16711963266E+03  0.16711963267E+03  0.25500000000E-02 0.  1.
    5000001    1    1    2    0    0 -0.56162941432E+02 -0.20759192987E+02 -0.12257008029E+03  0.15664496374E+03  0.77000000000E+02 0.  0.
   -5000001    1    1    2    0    0  0.56162941432E+02  0.20759192987E+02  0.58942725527E+02  0.11396694686E+03  0.77000000000E+02 0.  0.
<mgrwt>
<rscale>  0 0.26302541E+03</rscale>
<asrwt>0</asrwt>
<pdfrwt beam="1">  1        2 0.25710713E-01 0.26302541E+03</pdfrwt>
<pdfrwt beam="2">  1       -2 0.15921889E-01 0.26302541E+03</pdfrwt>
<totfact> 0.63907723E+03</totfact>
</mgrwt>
</event>
<event>
 4    1  0.6086918E-004  0.1731632E+03  0.7818608E-02  0.1174589E+00
         -2   -1    0    0    0  501 -0.00000000000E+00  0.00000000000E+00  0.18513097546E+02  0.18513097722E+02  0.25500000000E-02 0. -1.
          2   -1    0    0  501    0  0.00000000000E+00 -0.00000000000E+00 -0.40492249026E+03  0.40492249027E+03  0.25500000000E-02 0.  1.
    5000001    1    1    2    0    0  0.25058657389E+02 -0.30635229616E+02 -0.19554503464E+03  0.21385348764E+03  0.77000000000E+02 0.  0.
   -5000001    1    1    2    0    0 -0.25058657389E+02  0.30635229616E+02 -0.19086435807E+03  0.20958210035E+03  0.77000000000E+02 0.  0.
<mgrwt>
<rscale>  0 0.17316316E+03</rscale>
<asrwt>0</asrwt>
<pdfrwt beam="1">  1        2 0.62295761E-01 0.17316316E+03</pdfrwt>
<pdfrwt beam="2">  1       -2 0.28481692E-02 0.17316316E+03</pdfrwt>
<totfact> 0.34327885E+04</totfact>
</mgrwt>
</event>
<event>
 4    1  0.6086918E-004  0.2623232E+03  0.7818608E-02  0.1105755E+00
         -2   -1    0    0    0  501 -0.00000000000E+00  0.00000000000E+00  0.23163850584E+02  0.23163850724E+02  0.25500000000E-02 0. -1.
          2   -1    0    0  501    0  0.00000000000E+00 -0.00000000000E+00 -0.74268176137E+03  0.74268176138E+03  0.25500000000E-02 0.  1.
    5000001    1    1    2    0    0  0.66461184120E+02 -0.37207339116E+02 -0.57573869172E+03  0.58583744863E+03  0.77000000000E+02 0.  0.
   -5000001    1    1    2    0    0 -0.66461184120E+02  0.37207339116E+02 -0.14377921907E+03  0.18000816347E+03  0.77000000000E+02 0.  0.
<mgrwt>
<rscale>  0 0.26232323E+03</rscale>
<asrwt>0</asrwt>
<pdfrwt beam="1">  1        2 0.11425871E+00 0.26232323E+03</pdfrwt>
<pdfrwt beam="2">  1       -2 0.35636699E-02 0.26232323E+03</pdfrwt>
<totfact> 0.12671536E+04</totfact>
</mgrwt>
</event>
<event>
 4    1  0.6086918E-004  0.2903410E+03  0.7818608E-02  0.1090171E+00
         -2   -1    0    0    0  501 -0.00000000000E+00  0.00000000000E+00  0.70068920755E+01  0.70068925396E+01  0.25500000000E-02 0. -1.
          2   -1    0    0  501    0  0.00000000000E+00 -0.00000000000E+00 -0.30076779243E+04  0.30076779243E+04  0.25500000000E-02 0.  1.
    5000001    1    1    2    0    0  0.38460276856E+01 -0.11865664805E+03 -0.11636740526E+04  0.11722459182E+04  0.77000000000E+02 0.  0.
   -5000001    1    1    2    0    0 -0.38460276856E+01  0.11865664805E+03 -0.18369969796E+04  0.18424388986E+04  0.77000000000E+02 0.  0.
<mgrwt>
<rscale>  0 0.29034101E+03</rscale>
<asrwt>0</asrwt>
<pdfrwt beam="1">  1        2 0.46271865E+00 0.29034101E+03</pdfrwt>
<pdfrwt beam="2">  1       -2 0.10779858E-02 0.29034101E+03</pdfrwt>
<totfact> 0.39365147E+03</totfact>
</mgrwt>
</event>
<event>
 4    1  0.6086918E-004  0.2912049E+03  0.7818608E-02  0.1089722E+00
         -2   -1    0    0    0  501 -0.00000000000E+00  0.00000000000E+00  0.74997861377E+01  0.74997865712E+01  0.25500000000E-02 0. -1.
          2   -1    0    0  501    0  0.00000000000E+00 -0.00000000000E+00 -0.28267572336E+04  0.28267572336E+04  0.25500000000E-02 0.  1.
    5000001    1    1    2    0    0  0.12042052228E+03  0.25282499517E+02 -0.12983295662E+04  0.13064183746E+04  0.77000000000E+02 0.  0.
   -5000001    1    1    2    0    0 -0.12042052228E+03 -0.25282499517E+02 -0.15209278812E+04  0.15278386456E+04  0.77000000000E+02 0.  0.
<mgrwt>
<rscale>  0 0.29120491E+03</rscale>
<asrwt>0</asrwt>
<pdfrwt beam="1">  1        2 0.43488488E+00 0.29120491E+03</pdfrwt>
<pdfrwt beam="2">  1       -2 0.11538155E-02 0.29120491E+03</pdfrwt>
<totfact> 0.45489608E+03</totfact>
</mgrwt>
</event>
<event>
 4    1  0.6086918E-004  0.1999915E+03  0.7818608E-02  0.1149746E+00
         -2   -1    0    0    0  501 -0.00000000000E+00  0.00000000000E+00  0.13490878035E+02  0.13490878276E+02  0.25500000000E-02 0. -1.
          2   -1    0    0  501    0  0.00000000000E+00 -0.00000000000E+00 -0.74117880361E+03  0.74117880362E+03  0.25500000000E-02 0.  1.
    5000001    1    1    2    0    0 -0.79619995015E+01  0.49088837727E+02 -0.21304305780E+03  0.23192553095E+03  0.77000000000E+02 0.  0.
   -5000001    1    1    2    0    0  0.79619995015E+01 -0.49088837727E+02 -0.51464486777E+03  0.52274415095E+03  0.77000000000E+02 0.  0.
<mgrwt>
<rscale>  0 0.19999153E+03</rscale>
<asrwt>0</asrwt>
<pdfrwt beam="1">  1        2 0.11402748E+00 0.19999153E+03</pdfrwt>
<pdfrwt beam="2">  1       -2 0.20755203E-02 0.19999153E+03</pdfrwt>
<totfact> 0.27840319E+04</totfact>
</mgrwt>
</event>
<event>
 4    1  0.6086918E-004  0.2549780E+03  0.7818608E-02  0.1110199E+00
         -2   -1    0    0    0  501 -0.00000000000E+00  0.00000000000E+00  0.11994963755E+02  0.11994964026E+02  0.25500000000E-02 0. -1.
          2   -1    0    0  501    0  0.00000000000E+00 -0.00000000000E+00 -0.13550220518E+04  0.13550220518E+04  0.25500000000E-02 0.  1.
    5000001    1    1    2    0    0  0.87476315136E+02  0.46551382346E+01 -0.94753869548E+03  0.95468966448E+03  0.77000000000E+02 0.  0.
   -5000001    1    1    2    0    0 -0.87476315136E+02 -0.46551382346E+01 -0.39548839258E+03  0.41232735137E+03  0.77000000000E+02 0.  0.
<mgrwt>
<rscale>  0 0.25497796E+03</rscale>
<asrwt>0</asrwt>
<pdfrwt beam="1">  1        2 0.20846481E+00 0.25497796E+03</pdfrwt>
<pdfrwt beam="2">  1       -2 0.18453801E-02 0.25497796E+03</pdfrwt>
<totfact> 0.14189651E+04</totfact>
</mgrwt>
</event>
<event>
 4    1  0.6086918E-004  0.4420860E+03  0.7818608E-02  0.1030109E+00
         -2   -1    0    0    0  501 -0.00000000000E+00  0.00000000000E+00  0.10305480660E+03  0.10305480664E+03  0.25500000000E-02 0. -1.
          2   -1    0    0  501    0  0.00000000000E+00 -0.00000000000E+00 -0.47411678889E+03  0.47411678890E+03  0.25500000000E-02 0.  1.
    5000001    1    1    2    0    0  0.73791739000E+02  0.14142835159E+03 -0.12900996421E+02  0.17760246362E+03  0.77000000000E+02 0.  0.
   -5000001    1    1    2    0    0 -0.73791739000E+02 -0.14142835159E+03 -0.35816098586E+03  0.39956913191E+03  0.77000000000E+02 0.  0.
<mgrwt>
<rscale>  0 0.44208603E+03</rscale>
<asrwt>0</asrwt>
<pdfrwt beam="1">  1        2 0.72941043E-01 0.44208603E+03</pdfrwt>
<pdfrwt beam="2">  1       -2 0.15854586E-01 0.44208603E+03</pdfrwt>
<totfact> 0.20753740E+03</totfact>
</mgrwt>
</event>
<event>
 4    1  0.6086918E-004  0.2358971E+03  0.7818608E-02  0.1122557E+00
         -2   -1    0    0    0  501 -0.00000000000E+00  0.00000000000E+00  0.72738334681E+03  0.72738334681E+03  0.25500000000E-02 0. -1.
          2   -1    0    0  501    0  0.00000000000E+00 -0.00000000000E+00 -0.19125904769E+02  0.19125904939E+02  0.25500000000E-02 0.  1.
    5000001    1    1    2    0    0  0.67714236760E+01  0.83121724169E+02  0.25267568854E+03  0.27700013861E+03  0.77000000000E+02 0.  0.
   -5000001    1    1    2    0    0 -0.67714236760E+01 -0.83121724169E+02  0.45558175350E+03  0.46950911315E+03  0.77000000000E+02 0.  0.
<mgrwt>
<rscale>  0 0.23589714E+03</rscale>
<asrwt>0</asrwt>
<pdfrwt beam="1">  1        2 0.29424466E-02 0.23589714E+03</pdfrwt>
<pdfrwt beam="2">  1       -2 0.11190514E+00 0.23589714E+03</pdfrwt>
<totfact> 0.20971542E+03</totfact>
</mgrwt>
</event>
<event>
 4    1  0.6086918E-004  0.3060762E+03  0.7818608E-02  0.1082242E+00
          2   -1    0    0  501    0  0.00000000000E+00  0.00000000000E+00  0.29229436101E+03  0.29229436102E+03  0.25500000000E-02 0.  1.
         -2   -1    0    0    0  501 -0.00000000000E+00 -0.00000000000E+00 -0.80126958839E+02  0.80126958880E+02  0.25500000000E-02 0. -1.
    5000001    1    1    2    0    0  0.12717857635E+03 -0.93984813823E+01  0.63428723893E+02  0.16191023670E+03  0.77000000000E+02 0.  0.
   -5000001    1    1    2    0    0 -0.12717857635E+03  0.93984813823E+01  0.14873867828E+03  0.21051108320E+03  0.77000000000E+02 0.  0.
<mgrwt>
<rscale>  0 0.30607619E+03</rscale>
<asrwt>0</asrwt>
<pdfrwt beam="1">  1        2 0.44968364E-01 0.30607619E+03</pdfrwt>
<pdfrwt beam="2">  1       -2 0.12327224E-01 0.30607619E+03</pdfrwt>
<totfact> 0.53126616E+03</totfact>
</mgrwt>
</event>
<event>
 4    1  0.6086918E-004  0.2036758E+03  0.7818608E-02  0.1146674E+00
          2   -1    0    0  501    0  0.00000000000E+00  0.00000000000E+00  0.26470412226E+03  0.26470412227E+03  0.25500000000E-02 0.  1.
         -2   -1    0    0    0  501 -0.00000000000E+00 -0.00000000000E+00 -0.39179431414E+02  0.39179431497E+02  0.25500000000E-02 0. -1.
    5000001    1    1    2    0    0 -0.23689477337E+02 -0.58434659307E+02  0.80549169080E+02  0.12803503186E+03  0.77000000000E+02 0.  0.
   -5000001    1    1    2    0    0  0.23689477337E+02  0.58434659307E+02  0.14497552176E+03  0.17584852190E+03  0.77000000000E+02 0.  0.
<mgrwt>
<rscale>  0 0.20367579E+03</rscale>
<asrwt>0</asrwt>
<pdfrwt beam="1">  1        2 0.40723710E-01 0.20367579E+03</pdfrwt>
<pdfrwt beam="2">  1       -2 0.60276050E-02 0.20367579E+03</pdfrwt>
<totfact> 0.17828951E+04</totfact>
</mgrwt>
</event>
<event>
 4    1  0.6086918E-004  0.2745802E+03  0.7818608E-02  0.1098686E+00
         -2   -1    0    0    0  501 -0.00000000000E+00  0.00000000000E+00  0.14834949084E+03  0.14834949086E+03  0.25500000000E-02 0. -1.
          2   -1    0    0  501    0  0.00000000000E+00 -0.00000000000E+00 -0.12705516518E+03  0.12705516521E+03  0.25500000000E-02 0.  1.
    5000001    1    1    2    0    0 -0.78494849222E+01  0.11197785101E+03  0.28558991655E+02  0.13908727309E+03  0.77000000000E+02 0.  0.
   -5000001    1    1    2    0    0  0.78494849222E+01 -0.11197785101E+03 -0.72646659966E+01  0.13631738298E+03  0.77000000000E+02 0.  0.
<mgrwt>
<rscale>  0 0.27458018E+03</rscale>
<asrwt>0</asrwt>
<pdfrwt beam="1">  1        2 0.19546949E-01 0.27458018E+03</pdfrwt>
<pdfrwt beam="2">  1       -2 0.22822999E-01 0.27458018E+03</pdfrwt>
<totfact> 0.47309362E+03</totfact>
</mgrwt>
</event>
<event>
 4    1  0.6086918E-004  0.2042369E+03  0.7818608E-02  0.1146213E+00
          2   -1    0    0  501    0  0.00000000000E+00  0.00000000000E+00  0.25845327804E+04  0.25845327804E+04  0.25500000000E-02 0.  1.
         -2   -1    0    0    0  501 -0.00000000000E+00 -0.00000000000E+00 -0.40348388690E+01  0.40348396748E+01  0.25500000000E-02 0. -1.
    5000001    1    1    2    0    0 -0.22901061034E+02 -0.63042321214E+02  0.12980774093E+04  0.13020878439E+04  0.77000000000E+02 0.  0.
   -5000001    1    1    2    0    0  0.22901061034E+02  0.63042321214E+02  0.12824205322E+04  0.12864797761E+04  0.77000000000E+02 0.  0.
<mgrwt>
<rscale>  0 0.20423687E+03</rscale>
<asrwt>0</asrwt>
<pdfrwt beam="1">  1        2 0.39762145E+00 0.20423687E+03</pdfrwt>
<pdfrwt beam="2">  1       -2 0.62074291E-03 0.20423687E+03</pdfrwt>
<totfact> 0.15241129E+04</totfact>
</mgrwt>
</event>
<event>
 4    1  0.6086918E-004  0.1991204E+03  0.7818608E-02  0.1150483E+00
          2   -1    0    0  501    0  0.00000000000E+00  0.00000000000E+00  0.97138535262E+03  0.97138535262E+03  0.25500000000E-02 0.  1.
         -2   -1    0    0    0  501 -0.00000000000E+00 -0.00000000000E+00 -0.10204221520E+02  0.10204221839E+02  0.25500000000E-02 0. -1.
    5000001    1    1    2    0    0 -0.21080586976E+02 -0.41805739147E+02  0.68922050237E+03  0.69508705344E+03  0.77000000000E+02 0.  0.
   -5000001    1    1    2    0    0  0.21080586976E+02  0.41805739147E+02  0.27196062872E+03  0.28650252101E+03  0.77000000000E+02 0.  0.
<mgrwt>
<rscale>  0 0.19912038E+03</rscale>
<asrwt>0</asrwt>
<pdfrwt beam="1">  1        2 0.14944388E+00 0.19912038E+03</pdfrwt>
<pdfrwt beam="2">  1       -2 0.15698804E-02 0.19912038E+03</pdfrwt>
<totfact> 0.29472323E+04</totfact>
</mgrwt>
</event>
<event>
 4    1  0.6086918E-004  0.4209662E+03  0.7818608E-02  0.1036752E+00
          2   -1    0    0  501    0  0.00000000000E+00  0.00000000000E+00  0.21626636395E+04  0.21626636395E+04  0.25500000000E-02 0.  1.
         -2   -1    0    0    0  501 -0.00000000000E+00 -0.00000000000E+00 -0.20485451185E+02  0.20485451344E+02  0.25500000000E-02 0. -1.
    5000001    1    1    2    0    0  0.91914942713E+02  0.15572688182E+03  0.14617645233E+04  0.14749182147E+04  0.77000000000E+02 0.  0.
   -5000001    1    1    2    0    0 -0.91914942713E+02 -0.15572688182E+03  0.68041366503E+03  0.70823087618E+03  0.77000000000E+02 0.  0.
<mgrwt>
<rscale>  0 0.42096622E+03</rscale>
<asrwt>0</asrwt>
<pdfrwt beam="1">  1        2 0.33271736E+00 0.42096622E+03</pdfrwt>
<pdfrwt beam="2">  1       -2 0.31516090E-02 0.42096622E+03</pdfrwt>
<totfact> 0.23765593E+03</totfact>
</mgrwt>
</event>
<event>
 4    1  0.6086918E-004  0.2458184E+03  0.7818608E-02  0.1115976E+00
         -2   -1    0    0    0  501 -0.00000000000E+00  0.00000000000E+00  0.45285253042E+03  0.45285253042E+03  0.25500000000E-02 0. -1.
          2   -1    0    0  501    0  0.00000000000E+00 -0.00000000000E+00 -0.33358926360E+02  0.33358926458E+02  0.25500000000E-02 0.  1.
    5000001    1    1    2    0    0 -0.59084573606E+01 -0.79732900367E+02  0.31413629893E+03  0.33317091646E+03  0.77000000000E+02 0.  0.
   -5000001    1    1    2    0    0  0.59084573606E+01  0.79732900367E+02  0.10535730513E+03  0.15304054042E+03  0.77000000000E+02 0.  0.
<mgrwt>
<rscale>  0 0.24581842E+03</rscale>
<asrwt>0</asrwt>
<pdfrwt beam="1">  1        2 0.51321430E-02 0.24581842E+03</pdfrwt>
<pdfrwt beam="2">  1       -2 0.69669613E-01 0.24581842E+03</pdfrwt>
<totfact> 0.29016060E+03</totfact>
</mgrwt>
</event>
<event>
 4    1  0.6086918E-004  0.4542843E+03  0.7818608E-02  0.1026452E+00
         -2   -1    0    0    0  501 -0.00000000000E+00  0.00000000000E+00  0.27601168981E+02  0.27601169099E+02  0.25500000000E-02 0. -1.
          2   -1    0    0  501    0  0.00000000000E+00 -0.00000000000E+00 -0.18692522343E+04  0.18692522343E+04  0.25500000000E-02 0.  1.
    5000001    1    1    2    0    0  0.18713614277E+03 -0.15093995552E+02 -0.13469857185E+04  0.13621847490E+04  0.77000000000E+02 0.  0.
   -5000001    1    1    2    0    0 -0.18713614277E+03  0.15093995552E+02 -0.49466534686E+03  0.53466865442E+03  0.77000000000E+02 0.  0.
<mgrwt>
<rscale>  0 0.45428426E+03</rscale>
<asrwt>0</asrwt>
<pdfrwt beam="1">  1        2 0.28757717E+00 0.45428426E+03</pdfrwt>
<pdfrwt beam="2">  1       -2 0.42463352E-02 0.45428426E+03</pdfrwt>
<totfact> 0.21670952E+03</totfact>
</mgrwt>
</event>
<event>
 4    1  0.6086918E-004  0.3514146E+03  0.7818608E-02  0.1062036E+00
          2   -1    0    0  501    0  0.00000000000E+00  0.00000000000E+00  0.79553401162E+03  0.79553401163E+03  0.25500000000E-02 0. -1.
         -2   -1    0    0    0  501 -0.00000000000E+00 -0.00000000000E+00 -0.38807954899E+02  0.38807954983E+02  0.25500000000E-02 0.  1.
    5000001    1    1    2    0    0 -0.49517187551E+02 -0.13082676364E+03  0.55245242136E+03  0.57506545002E+03  0.77000000000E+02 0.  0.
   -5000001    1    1    2    0    0  0.49517187551E+02  0.13082676364E+03  0.20427363537E+03  0.25927651659E+03  0.77000000000E+02 0.  0.
<mgrwt>
<rscale>  0 0.35141456E+03</rscale>
<asrwt>0</asrwt>
<pdfrwt beam="1">  1        2 0.12238984E+00 0.35141456E+03</pdfrwt>
<pdfrwt beam="2">  1       -2 0.59704548E-02 0.35141456E+03</pdfrwt>
<totfact> 0.53514326E+03</totfact>
</mgrwt>
</event>
<event>
 4    1  0.6086918E-004  0.1965330E+03  0.7818608E-02  0.1152698E+00
         -2   -1    0    0    0  501 -0.00000000000E+00  0.00000000000E+00  0.15694940499E+02  0.15694940706E+02  0.25500000000E-02 0. -1.
          2   -1    0    0  501    0  0.00000000000E+00 -0.00000000000E+00 -0.61524959134E+03  0.61524959135E+03  0.25500000000E-02 0.  1.
    5000001    1    1    2    0    0  0.20795868764E+02 -0.44733283757E+02 -0.18430328027E+03  0.20574312613E+03  0.77000000000E+02 0.  0.
   -5000001    1    1    2    0    0 -0.20795868764E+02  0.44733283757E+02 -0.41525137057E+03  0.42520140592E+03  0.77000000000E+02 0.  0.
<mgrwt>
<rscale>  0 0.19653301E+03</rscale>
<asrwt>0</asrwt>
<pdfrwt beam="1">  1        2 0.94653765E-01 0.19653301E+03</pdfrwt>
<pdfrwt beam="2">  1       -2 0.24146067E-02 0.19653301E+03</pdfrwt>
<totfact> 0.27795283E+04</totfact>
</mgrwt>
</event>
<event>
 4    1  0.6086918E-004  0.2027658E+03  0.7818608E-02  0.1147426E+00
         -2   -1    0    0    0  501 -0.00000000000E+00  0.00000000000E+00  0.26798069917E+02  0.26798070038E+02  0.25500000000E-02 0. -1.
          2   -1    0    0  501    0  0.00000000000E+00 -0.00000000000E+00 -0.38355343919E+03  0.38355343920E+03  0.25500000000E-02 0.  1.
    5000001    1    1    2    0    0 -0.36037193010E+02  0.35887491739E+02 -0.26334956883E+03  0.27904943424E+03  0.77000000000E+02 0.  0.
   -5000001    1    1    2    0    0  0.36037193010E+02 -0.35887491739E+02 -0.93405800436E+02  0.13130207500E+03  0.77000000000E+02 0.  0.
<mgrwt>
<rscale>  0 0.20276580E+03</rscale>
<asrwt>0</asrwt>
<pdfrwt beam="1">  1        2 0.59008218E-01 0.20276580E+03</pdfrwt>
<pdfrwt beam="2">  1       -2 0.41227803E-02 0.20276580E+03</pdfrwt>
<totfact> 0.21278112E+04</totfact>
</mgrwt>
</event>
<event>
 4    1  0.6086918E-004  0.5451554E+03  0.7818608E-02  0.1002622E+00
         -2   -1    0    0    0  501 -0.00000000000E+00  0.00000000000E+00  0.11264906325E+03  0.11264906328E+03  0.25500000000E-02 0. -1.
          2   -1    0    0  501    0  0.00000000000E+00 -0.00000000000E+00 -0.65955804382E+03  0.65955804383E+03  0.25500000000E-02 0.  1.
    5000001    1    1    2    0    0 -0.39601683053E+02 -0.23478027218E+03 -0.42653718916E+03  0.49452304621E+03  0.77000000000E+02 0.  0.
   -5000001    1    1    2    0    0  0.39601683053E+02  0.23478027218E+03 -0.12037179141E+03  0.27768406089E+03  0.77000000000E+02 0.  0.
<mgrwt>
<rscale>  0 0.54515538E+03</rscale>
<asrwt>0</asrwt>
<pdfrwt beam="1">  1        2 0.10147047E+00 0.54515538E+03</pdfrwt>
<pdfrwt beam="2">  1       -2 0.17330626E-01 0.54515538E+03</pdfrwt>
<totfact> 0.12121151E+03</totfact>
</mgrwt>
</event>
<event>
 4    1  0.6086918E-004  0.2149244E+03  0.7818608E-02  0.1137725E+00
          2   -1    0    0  501    0  0.00000000000E+00  0.00000000000E+00  0.55506656174E+03  0.55506656175E+03  0.25500000000E-02 0.  1.
         -2   -1    0    0    0  501 -0.00000000000E+00 -0.00000000000E+00 -0.20804940968E+02  0.20804941125E+02  0.25500000000E-02 0. -1.
    5000001    1    1    2    0    0  0.73496563807E+02 -0.67415200520E+01  0.23199735691E+03  0.25534088313E+03  0.77000000000E+02 0.  0.
   -5000001    1    1    2    0    0 -0.73496563807E+02  0.67415200520E+01  0.30226426387E+03  0.32053061975E+03  0.77000000000E+02 0.  0.
<mgrwt>
<rscale>  0 0.21492442E+03</rscale>
<asrwt>0</asrwt>
<pdfrwt beam="1">  1        2 0.85394847E-01 0.21492442E+03</pdfrwt>
<pdfrwt beam="2">  1       -2 0.32007605E-02 0.21492442E+03</pdfrwt>
<totfact> 0.20751599E+04</totfact>
</mgrwt>
</event>
<event>
 4    1  0.6086918E-004  0.2567603E+03  0.7818608E-02  0.1109105E+00
          2   -1    0    0  501    0  0.00000000000E+00  0.00000000000E+00  0.78764325515E+03  0.78764325515E+03  0.25500000000E-02 0.  1.
         -2   -1    0    0    0  501 -0.00000000000E+00 -0.00000000000E+00 -0.20925030989E+02  0.20925031145E+02  0.25500000000E-02 0. -1.
    5000001    1    1    2    0    0 -0.88958490423E+02 -0.41350519849E+02  0.28737655704E+03  0.31326947513E+03  0.77000000000E+02 0.  0.
   -5000001    1    1    2    0    0  0.88958490423E+02  0.41350519849E+02  0.47934166712E+03  0.49529881117E+03  0.77000000000E+02 0.  0.
<mgrwt>
<rscale>  0 0.25676027E+03</rscale>
<asrwt>0</asrwt>
<pdfrwt beam="1">  1        2 0.12117588E+00 0.25676027E+03</pdfrwt>
<pdfrwt beam="2">  1       -2 0.32192358E-02 0.25676027E+03</pdfrwt>
<totfact> 0.13692160E+04</totfact>
</mgrwt>
</event>
<event>
 4    1  0.6086918E-004  0.1918291E+03  0.7818608E-02  0.1156822E+00
          2   -1    0    0  501    0  0.00000000000E+00  0.00000000000E+00  0.38437469448E+03  0.38437469449E+03  0.25500000000E-02 0.  1.
         -2   -1    0    0    0  501 -0.00000000000E+00 -0.00000000000E+00 -0.23933933188E+02  0.23933933323E+02  0.25500000000E-02 0. -1.
    5000001    1    1    2    0    0 -0.28759627170E+02 -0.41358917874E+02  0.12259643112E+03  0.15328588052E+03  0.77000000000E+02 0.  0.
   -5000001    1    1    2    0    0  0.28759627170E+02  0.41358917874E+02  0.23784433017E+03  0.25502274730E+03  0.77000000000E+02 0.  0.
<mgrwt>
<rscale>  0 0.19182907E+03</rscale>
<asrwt>0</asrwt>
<pdfrwt beam="1">  1        2 0.59134565E-01 0.19182907E+03</pdfrwt>
<pdfrwt beam="2">  1       -2 0.36821438E-02 0.19182907E+03</pdfrwt>
<totfact> 0.25031981E+04</totfact>
</mgrwt>
</event>
<event>
 4    1  0.6086918E-004  0.3266797E+03  0.7818608E-02  0.1072616E+00
          2   -1    0    0  501    0  0.00000000000E+00  0.00000000000E+00  0.47944062637E+03  0.47944062638E+03  0.25500000000E-02 0.  1.
         -2   -1    0    0    0  501 -0.00000000000E+00 -0.00000000000E+00 -0.55647991888E+02  0.55647991947E+02  0.25500000000E-02 0. -1.
    5000001    1    1    2    0    0 -0.56800702621E+02 -0.12580358003E+03  0.14440024901E+03  0.21408711424E+03  0.77000000000E+02 0.  0.
   -5000001    1    1    2    0    0  0.56800702621E+02  0.12580358003E+03  0.27939238547E+03  0.32100150409E+03  0.77000000000E+02 0.  0.
<mgrwt>
<rscale>  0 0.32667971E+03</rscale>
<asrwt>0</asrwt>
<pdfrwt beam="1">  1        2 0.73760097E-01 0.32667971E+03</pdfrwt>
<pdfrwt beam="2">  1       -2 0.85612295E-02 0.32667971E+03</pdfrwt>
<totfact> 0.55549714E+03</totfact>
</mgrwt>
</event>
<event>
 4    1  0.6086918E-004  0.4716082E+03  0.7818608E-02  0.1021467E+00
         -2   -1    0    0    0  501 -0.00000000000E+00  0.00000000000E+00  0.24344484188E+02  0.24344484322E+02  0.25500000000E-02 0. -1.
          2   -1    0    0  501    0  0.00000000000E+00 -0.00000000000E+00 -0.22840316237E+04  0.22840316237E+04  0.25500000000E-02 0.  1.
    5000001    1    1    2    0    0  0.13956612449E+03  0.13958662635E+03 -0.62326220373E+03  0.65829165570E+03  0.77000000000E+02 0.  0.
   -5000001    1    1    2    0    0 -0.13956612449E+03 -0.13958662635E+03 -0.16364249358E+04  0.16500844524E+04  0.77000000000E+02 0.  0.
<mgrwt>
<rscale>  0 0.47160819E+03</rscale>
<asrwt>0</asrwt>
<pdfrwt beam="1">  1        2 0.35138931E+00 0.47160819E+03</pdfrwt>
<pdfrwt beam="2">  1       -2 0.37453071E-02 0.47160819E+03</pdfrwt>
<totfact> 0.15668868E+03</totfact>
</mgrwt>
</event>
<event>
 4    1  0.6086918E-004  0.3605886E+03  0.7818608E-02  0.1058351E+00
         -2   -1    0    0    0  501 -0.00000000000E+00  0.00000000000E+00  0.66176910401E+03  0.66176910402E+03  0.25500000000E-02 0. -1.
          2   -1    0    0  501    0  0.00000000000E+00 -0.00000000000E+00 -0.49119915712E+02  0.49119915779E+02  0.25500000000E-02 0.  1.
    5000001    1    1    2    0    0  0.11234989682E+03 -0.10484512288E+03  0.41362107512E+03  0.44791337655E+03  0.77000000000E+02 0.  0.
   -5000001    1    1    2    0    0 -0.11234989682E+03  0.10484512288E+03  0.19902811318E+03  0.26297564325E+03  0.77000000000E+02 0.  0.
<mgrwt>
<rscale>  0 0.36058864E+03</rscale>
<asrwt>0</asrwt>
<pdfrwt beam="1">  1        2 0.75569100E-02 0.36058864E+03</pdfrwt>
<pdfrwt beam="2">  1       -2 0.10181063E+00 0.36058864E+03</pdfrwt>
<totfact> 0.75666161E+02</totfact>
</mgrwt>
</event>
<event>
 4    1  0.6086918E-004  0.3187350E+03  0.7818608E-02  0.1076233E+00
         -2   -1    0    0    0  501 -0.00000000000E+00  0.00000000000E+00  0.80192344438E+01  0.80192348492E+01  0.25500000000E-02 0. -1.
          2   -1    0    0  501    0  0.00000000000E+00 -0.00000000000E+00 -0.31671355740E+04  0.31671355740E+04  0.25500000000E-02 0.  1.
    5000001    1    1    2    0    0 -0.13747425600E+03  0.19256493963E+01 -0.13425349149E+04  0.13517514109E+04  0.77000000000E+02 0.  0.
   -5000001    1    1    2    0    0  0.13747425600E+03 -0.19256493963E+01 -0.18165814246E+04  0.18234033979E+04  0.77000000000E+02 0.  0.
<mgrwt>
<rscale>  0 0.31873502E+03</rscale>
<asrwt>0</asrwt>
<pdfrwt beam="1">  1        2 0.48725063E+00 0.31873502E+03</pdfrwt>
<pdfrwt beam="2">  1       -2 0.12337309E-02 0.31873502E+03</pdfrwt>
<totfact> 0.25813643E+03</totfact>
</mgrwt>
</event>
<event>
 4    1  0.6086918E-004  0.1616497E+03  0.7818608E-02  0.1186847E+00
          2   -1    0    0  501    0  0.00000000000E+00  0.00000000000E+00  0.12243681505E+04  0.12243681505E+04  0.25500000000E-02 0.  1.
         -2   -1    0    0    0  501 -0.00000000000E+00 -0.00000000000E+00 -0.53355345781E+01  0.53355351875E+01  0.25500000000E-02 0. -1.
    5000001    1    1    2    0    0 -0.13898116726E+02 -0.20259871100E+02  0.60801488795E+03  0.61336345179E+03  0.77000000000E+02 0.  0.
   -5000001    1    1    2    0    0  0.13898116726E+02  0.20259871100E+02  0.61101772797E+03  0.61634023390E+03  0.77000000000E+02 0.  0.
<mgrwt>
<rscale>  0 0.16164973E+03</rscale>
<asrwt>0</asrwt>
<pdfrwt beam="1">  1        2 0.18836438E+00 0.16164973E+03</pdfrwt>
<pdfrwt beam="2">  1       -2 0.82085130E-03 0.16164973E+03</pdfrwt>
<totfact> 0.52690800E+04</totfact>
</mgrwt>
</event>
<event>
 4    1  0.6086918E-004  0.2702808E+03  0.7818608E-02  0.1101119E+00
          2   -1    0    0  501    0  0.00000000000E+00  0.00000000000E+00  0.28296871837E+03  0.28296871838E+03  0.25500000000E-02 0.  1.
         -2   -1    0    0    0  501 -0.00000000000E+00 -0.00000000000E+00 -0.64540450912E+02  0.64540450962E+02  0.25500000000E-02 0. -1.
    5000001    1    1    2    0    0 -0.41305522287E+02 -0.67294914262E+02  0.88018879188E+01  0.11064006909E+03  0.77000000000E+02 0.  0.
   -5000001    1    1    2    0    0  0.41305522287E+02  0.67294914262E+02  0.20962637953E+03  0.23686910025E+03  0.77000000000E+02 0.  0.
<mgrwt>
<rscale>  0 0.27028081E+03</rscale>
<asrwt>0</asrwt>
<pdfrwt beam="1">  1        2 0.43533649E-01 0.27028081E+03</pdfrwt>
<pdfrwt beam="2">  1       -2 0.99293003E-02 0.27028081E+03</pdfrwt>
<totfact> 0.77527641E+03</totfact>
</mgrwt>
</event>
<event>
 4    1  0.6086918E-004  0.2401854E+03  0.7818608E-02  0.1119669E+00
          2   -1    0    0  501    0  0.00000000000E+00  0.00000000000E+00  0.10847241035E+03  0.10847241038E+03  0.25500000000E-02 0.  1.
         -2   -1    0    0    0  501 -0.00000000000E+00 -0.00000000000E+00 -0.13295778608E+03  0.13295778610E+03  0.25500000000E-02 0. -1.
    5000001    1    1    2    0    0  0.65048408436E+01 -0.50782322731E+02  0.64784061284E+02  0.11290319682E+03  0.77000000000E+02 0.  0.
   -5000001    1    1    2    0    0 -0.65048408436E+01  0.50782322731E+02 -0.89269437010E+02  0.12852699966E+03  0.77000000000E+02 0.  0.
<mgrwt>
<rscale>  0 0.24018536E+03</rscale>
<asrwt>0</asrwt>
<pdfrwt beam="1">  1        2 0.16688063E-01 0.24018536E+03</pdfrwt>
<pdfrwt beam="2">  1       -2 0.20455044E-01 0.24018536E+03</pdfrwt>
<totfact> 0.68279767E+03</totfact>
</mgrwt>
</event>
<event>
 4    1  0.6086918E-004  0.2608370E+03  0.7818608E-02  0.1106641E+00
          2   -1    0    0  501    0  0.00000000000E+00  0.00000000000E+00  0.10579821567E+03  0.10579821570E+03  0.25500000000E-02 0.  1.
         -2   -1    0    0    0  501 -0.00000000000E+00 -0.00000000000E+00 -0.16076813693E+03  0.16076813695E+03  0.25500000000E-02 0. -1.
    5000001    1    1    2    0    0  0.80422317600E+02 -0.43784659818E+02 -0.80539988846E+02  0.14422390720E+03  0.77000000000E+02 0.  0.
   -5000001    1    1    2    0    0 -0.80422317600E+02  0.43784659818E+02  0.25570067580E+02  0.12234244545E+03  0.77000000000E+02 0.  0.
<mgrwt>
<rscale>  0 0.26083698E+03</rscale>
<asrwt>0</asrwt>
<pdfrwt beam="1">  1        2 0.16276649E-01 0.26083698E+03</pdfrwt>
<pdfrwt beam="2">  1       -2 0.24733559E-01 0.26083698E+03</pdfrwt>
<totfact> 0.50734374E+03</totfact>
</mgrwt>
</event>
<event>
 4    1  0.6086918E-004  0.3176193E+03  0.7818608E-02  0.1076750E+00
         -2   -1    0    0    0  501 -0.00000000000E+00  0.00000000000E+00  0.18018425677E+02  0.18018425857E+02  0.25500000000E-02 0. -1.
          2   -1    0    0  501    0  0.00000000000E+00 -0.00000000000E+00 -0.13997060419E+04  0.13997060419E+04  0.25500000000E-02 0.  1.
    5000001    1    1    2    0    0 -0.67149167267E+02 -0.12157574642E+03 -0.68481112420E+03  0.70298289354E+03  0.77000000000E+02 0.  0.
   -5000001    1    1    2    0    0  0.67149167267E+02  0.12157574642E+03 -0.69687649198E+03  0.71474157418E+03  0.77000000000E+02 0.  0.
<mgrwt>
<rscale>  0 0.31761927E+03</rscale>
<asrwt>0</asrwt>
<pdfrwt beam="1">  1        2 0.21533931E+00 0.31761927E+03</pdfrwt>
<pdfrwt beam="2">  1       -2 0.27720666E-02 0.31761927E+03</pdfrwt>
<totfact> 0.73870778E+03</totfact>
</mgrwt>
</event>
<event>
 4    1  0.6086918E-004  0.2221810E+03  0.7818608E-02  0.1132267E+00
         -2   -1    0    0    0  501 -0.00000000000E+00  0.00000000000E+00  0.25669231232E+02  0.25669231359E+02  0.25500000000E-02 0. -1.
          2   -1    0    0  501    0  0.00000000000E+00 -0.00000000000E+00 -0.48077382144E+03  0.48077382145E+03  0.25500000000E-02 0.  1.
    5000001    1    1    2    0    0 -0.32088854363E+01 -0.76257740023E+02 -0.17234734836E+03  0.20361274112E+03  0.77000000000E+02 0.  0.
   -5000001    1    1    2    0    0  0.32088854363E+01  0.76257740023E+02 -0.28275724186E+03  0.30283031169E+03  0.77000000000E+02 0.  0.
<mgrwt>
<rscale>  0 0.22218096E+03</rscale>
<asrwt>0</asrwt>
<pdfrwt beam="1">  1        2 0.73965196E-01 0.22218096E+03</pdfrwt>
<pdfrwt beam="2">  1       -2 0.39491129E-02 0.22218096E+03</pdfrwt>
<totfact> 0.17852914E+04</totfact>
</mgrwt>
</event>
<event>
 4    1  0.6086918E-004  0.1833698E+03  0.7818608E-02  0.1164581E+00
          2   -1    0    0  501    0  0.00000000000E+00  0.00000000000E+00  0.14875039766E+04  0.14875039767E+04  0.25500000000E-02 0.  1.
         -2   -1    0    0    0  501 -0.00000000000E+00 -0.00000000000E+00 -0.56511612479E+01  0.56511618233E+01  0.25500000000E-02 0. -1.
    5000001    1    1    2    0    0  0.13800549346E+02  0.47777476160E+02  0.75717721929E+03  0.76270537156E+03  0.77000000000E+02 0.  0.
   -5000001    1    1    2    0    0 -0.13800549346E+02 -0.47777476160E+02  0.72467559611E+03  0.73044976692E+03  0.77000000000E+02 0.  0.
<mgrwt>
<rscale>  0 0.18336985E+03</rscale>
<asrwt>0</asrwt>
<pdfrwt beam="1">  1        2 0.22884659E+00 0.18336985E+03</pdfrwt>
<pdfrwt beam="2">  1       -2 0.86941015E-03 0.18336985E+03</pdfrwt>
<totfact> 0.35331677E+04</totfact>
</mgrwt>
</event>
<event>
 4    1  0.6086918E-004  0.5542925E+03  0.7818608E-02  0.1000505E+00
          2   -1    0    0  501    0  0.00000000000E+00  0.00000000000E+00  0.29964837152E+03  0.29964837153E+03  0.25500000000E-02 0.  1.
         -2   -1    0    0    0  501 -0.00000000000E+00 -0.00000000000E+00 -0.25633388219E+03  0.25633388220E+03  0.25500000000E-02 0. -1.
    5000001    1    1    2    0    0  0.11082921288E+03 -0.19393892222E+03 -0.12364849462E+03  0.26667090243E+03  0.77000000000E+02 0.  0.
   -5000001    1    1    2    0    0 -0.11082921288E+03  0.19393892222E+03  0.16696298395E+03  0.28931135130E+03  0.77000000000E+02 0.  0.
<mgrwt>
<rscale>  0 0.55429245E+03</rscale>
<asrwt>0</asrwt>
<pdfrwt beam="1">  1        2 0.46099750E-01 0.55429245E+03</pdfrwt>
<pdfrwt beam="2">  1       -2 0.39435982E-01 0.55429245E+03</pdfrwt>
<totfact> 0.67256250E+02</totfact>
</mgrwt>
</event>
<event>
 4    1  0.6086918E-004  0.2899142E+03  0.7818608E-02  0.1090394E+00
          2   -1    0    0  501    0  0.00000000000E+00  0.00000000000E+00  0.10848659832E+03  0.10848659835E+03  0.25500000000E-02 0.  1.
         -2   -1    0    0    0  501 -0.00000000000E+00 -0.00000000000E+00 -0.19368809385E+03  0.19368809387E+03  0.25500000000E-02 0. -1.
    5000001    1    1    2    0    0 -0.10125430488E+03 -0.37912657932E+01 -0.11493863825E+03  0.17148381415E+03  0.77000000000E+02 0.  0.
   -5000001    1    1    2    0    0  0.10125430488E+03  0.37912657932E+01  0.29737142712E+02  0.13069087807E+03  0.77000000000E+02 0.  0.
<mgrwt>
<rscale>  0 0.28991421E+03</rscale>
<asrwt>0</asrwt>
<pdfrwt beam="1">  1        2 0.16690246E-01 0.28991421E+03</pdfrwt>
<pdfrwt beam="2">  1       -2 0.29798168E-01 0.28991421E+03</pdfrwt>
<totfact> 0.35432873E+03</totfact>
</mgrwt>
</event>
<event>
 4    1  0.6086918E-004  0.1616732E+03  0.7818608E-02  0.1186821E+00
         -2   -1    0    0    0  501 -0.00000000000E+00  0.00000000000E+00  0.49664823400E+03  0.49664823400E+03  0.25500000000E-02 0. -1.
          2   -1    0    0  501    0  0.00000000000E+00 -0.00000000000E+00 -0.13157315000E+02  0.13157315247E+02  0.25500000000E-02 0.  1.
    5000001    1    1    2    0    0 -0.12505310207E+02 -0.15207182765E+02  0.28829454659E+03  0.29904913774E+03  0.77000000000E+02 0.  0.
   -5000001    1    1    2    0    0  0.12505310207E+02  0.15207182765E+02  0.19519637241E+03  0.21075641151E+03  0.77000000000E+02 0.  0.
<mgrwt>
<rscale>  0 0.16167322E+03</rscale>
<asrwt>0</asrwt>
<pdfrwt beam="1">  1        2 0.20242025E-02 0.16167322E+03</pdfrwt>
<pdfrwt beam="2">  1       -2 0.76407414E-01 0.16167322E+03</pdfrwt>
<totfact> 0.81089993E+03</totfact>
</mgrwt>
</event>
<event>
 4    1  0.6086918E-004  0.1711534E+03  0.7818608E-02  0.1176650E+00
          2   -1    0    0  501    0  0.00000000000E+00  0.00000000000E+00  0.26434764020E+04  0.26434764020E+04  0.25500000000E-02 0.  1.
         -2   -1    0    0    0  501 -0.00000000000E+00 -0.00000000000E+00 -0.27703555572E+01  0.27703567308E+01  0.25500000000E-02 0. -1.
    5000001    1    1    2    0    0  0.35936990744E+02 -0.94448366559E+01  0.12631278770E+04  0.12660180512E+04  0.77000000000E+02 0.  0.
   -5000001    1    1    2    0    0 -0.35936990744E+02  0.94448366559E+01  0.13775781694E+04  0.13802287076E+04  0.77000000000E+02 0.  0.
<mgrwt>
<rscale>  0 0.17115339E+03</rscale>
<asrwt>0</asrwt>
<pdfrwt beam="1">  1        2 0.40668741E+00 0.17115339E+03</pdfrwt>
<pdfrwt beam="2">  1       -2 0.42620996E-03 0.17115339E+03</pdfrwt>
<totfact> 0.24075333E+04</totfact>
</mgrwt>
</event>
<event>
 4    1  0.6086918E-004  0.2174982E+03  0.7818608E-02  0.1135762E+00
         -2   -1    0    0    0  501 -0.00000000000E+00  0.00000000000E+00  0.18364233636E+02  0.18364233813E+02  0.25500000000E-02 0. -1.
          2   -1    0    0  501    0  0.00000000000E+00 -0.00000000000E+00 -0.64398938888E+03  0.64398938888E+03  0.25500000000E-02 0.  1.
    5000001    1    1    2    0    0 -0.76467033930E+02  0.59725326434E+01 -0.30121901840E+03  0.32022613177E+03  0.77000000000E+02 0.  0.
   -5000001    1    1    2    0    0  0.76467033930E+02 -0.59725326434E+01 -0.32440613685E+03  0.34212749093E+03  0.77000000000E+02 0.  0.
<mgrwt>
<rscale>  0 0.21749825E+03</rscale>
<asrwt>0</asrwt>
<pdfrwt beam="1">  1        2 0.99075273E-01 0.21749825E+03</pdfrwt>
<pdfrwt beam="2">  1       -2 0.28252672E-02 0.21749825E+03</pdfrwt>
<totfact> 0.21050623E+04</totfact>
</mgrwt>
</event>
<event>
 4    1  0.6086918E-004  0.1887448E+03  0.7818608E-02  0.1159598E+00
         -2   -1    0    0    0  501 -0.00000000000E+00  0.00000000000E+00  0.30669513808E+02  0.30669513914E+02  0.25500000000E-02 0. -1.
          2   -1    0    0  501    0  0.00000000000E+00 -0.00000000000E+00 -0.29039090212E+03  0.29039090213E+03  0.25500000000E-02 0.  1.
    5000001    1    1    2    0    0 -0.24347182094E+02  0.48727830561E+02 -0.12449205191E+03  0.15618725215E+03  0.77000000000E+02 0.  0.
   -5000001    1    1    2    0    0  0.24347182094E+02 -0.48727830561E+02 -0.13522933640E+03  0.16487316389E+03  0.77000000000E+02 0.  0.
<mgrwt>
<rscale>  0 0.18874478E+03</rscale>
<asrwt>0</asrwt>
<pdfrwt beam="1">  1        2 0.44675522E-01 0.18874478E+03</pdfrwt>
<pdfrwt beam="2">  1       -2 0.47183869E-02 0.18874478E+03</pdfrwt>
<totfact> 0.23276611E+04</totfact>
</mgrwt>
</event>
<event>
 4    1  0.6086918E-004  0.2719169E+03  0.7818608E-02  0.1100187E+00
          2   -1    0    0  501    0  0.00000000000E+00  0.00000000000E+00  0.24060584338E+02  0.24060584473E+02  0.25500000000E-02 0.  1.
         -2   -1    0    0    0  501 -0.00000000000E+00 -0.00000000000E+00 -0.76825661433E+03  0.76825661433E+03  0.25500000000E-02 0. -1.
    5000001    1    1    2    0    0  0.18037555843E+02 -0.68543365561E+02 -0.62498269605E+03  0.63368439838E+03  0.77000000000E+02 0.  0.
   -5000001    1    1    2    0    0 -0.18037555843E+02  0.68543365561E+02 -0.11921333394E+03  0.15863280043E+03  0.77000000000E+02 0.  0.
<mgrwt>
<rscale>  0 0.27191692E+03</rscale>
<asrwt>0</asrwt>
<pdfrwt beam="1">  1        2 0.37016290E-02 0.27191692E+03</pdfrwt>
<pdfrwt beam="2">  1       -2 0.11819331E+00 0.27191692E+03</pdfrwt>
<totfact> 0.13553751E+03</totfact>
</mgrwt>
</event>
<event>
 4    1  0.6086918E-004  0.3006238E+03  0.7818608E-02  0.1084929E+00
         -2   -1    0    0    0  501 -0.00000000000E+00  0.00000000000E+00  0.71977051304E+02  0.71977051349E+02  0.25500000000E-02 0. -1.
          2   -1    0    0  501    0  0.00000000000E+00 -0.00000000000E+00 -0.31390095325E+03  0.31390095326E+03  0.25500000000E-02 0.  1.
    5000001    1    1    2    0    0  0.11115779565E+03 -0.33127795445E+02 -0.19369931660E+03  0.23854125768E+03  0.77000000000E+02 0.  0.
   -5000001    1    1    2    0    0 -0.11115779565E+03  0.33127795445E+02 -0.48224585346E+02  0.14733674693E+03  0.77000000000E+02 0.  0.
<mgrwt>
<rscale>  0 0.30062379E+03</rscale>
<asrwt>0</asrwt>
<pdfrwt beam="1">  1        2 0.48292453E-01 0.30062379E+03</pdfrwt>
<pdfrwt beam="2">  1       -2 0.11073393E-01 0.30062379E+03</pdfrwt>
<totfact> 0.58463408E+03</totfact>
</mgrwt>
</event>
<event>
 4    1  0.6086918E-004  0.7294782E+03  0.7818608E-02  0.9668107E-01
          2   -1    0    0  501    0  0.00000000000E+00  0.00000000000E+00  0.27336363415E+03  0.27336363416E+03  0.25500000000E-02 0.  1.
         -2   -1    0    0    0  501 -0.00000000000E+00 -0.00000000000E+00 -0.48665806133E+03  0.48665806133E+03  0.25500000000E-02 0. -1.
    5000001    1    1    2    0    0  0.20220063038E+03 -0.17337099080E+03 -0.35355733510E+03  0.44930433403E+03  0.77000000000E+02 0.  0.
   -5000001    1    1    2    0    0 -0.20220063038E+03  0.17337099080E+03  0.14026290792E+03  0.31071736147E+03  0.77000000000E+02 0.  0.
<mgrwt>
<rscale>  0 0.72947821E+03</rscale>
<asrwt>0</asrwt>
<pdfrwt beam="1">  1        2 0.42055944E-01 0.72947821E+03</pdfrwt>
<pdfrwt beam="2">  1       -2 0.74870471E-01 0.72947821E+03</pdfrwt>
<totfact> 0.19706476E+02</totfact>
</mgrwt>
</event>
<event>
 4    1  0.6086918E-004  0.4395205E+03  0.7818608E-02  0.1030894E+00
          2   -1    0    0  501    0  0.00000000000E+00  0.00000000000E+00  0.93066736610E+02  0.93066736645E+02  0.25500000000E-02 0.  1.
         -2   -1    0    0    0  501 -0.00000000000E+00 -0.00000000000E+00 -0.51892406696E+03  0.51892406697E+03  0.25500000000E-02 0. -1.
    5000001    1    1    2    0    0  0.20303615413E+03 -0.27893275931E+02 -0.18636856098E+03  0.28751340012E+03  0.77000000000E+02 0.  0.
   -5000001    1    1    2    0    0 -0.20303615413E+03  0.27893275931E+02 -0.23948876937E+03  0.32447740350E+03  0.77000000000E+02 0.  0.
<mgrwt>
<rscale>  0 0.43952051E+03</rscale>
<asrwt>0</asrwt>
<pdfrwt beam="1">  1        2 0.14317960E-01 0.43952051E+03</pdfrwt>
<pdfrwt beam="2">  1       -2 0.79834470E-01 0.43952051E+03</pdfrwt>
<totfact> 0.59335346E+02</totfact>
</mgrwt>
</event>
<event>
 4    1  0.6086918E-004  0.3477339E+03  0.7818608E-02  0.1063549E+00
         -2   -1    0    0    0  501 -0.00000000000E+00  0.00000000000E+00  0.16356265240E+02  0.16356265438E+02  0.25500000000E-02 0. -1.
          2   -1    0    0  501    0  0.00000000000E+00 -0.00000000000E+00 -0.18482037297E+04  0.18482037297E+04  0.25500000000E-02 0.  1.
    5000001    1    1    2    0    0 -0.10474750431E+03  0.73024133241E+02 -0.13954029122E+04  0.14033470174E+04  0.77000000000E+02 0.  0.
   -5000001    1    1    2    0    0  0.10474750431E+03 -0.73024133241E+02 -0.43644455224E+03  0.46121297778E+03  0.77000000000E+02 0.  0.
<mgrwt>
<rscale>  0 0.34773387E+03</rscale>
<asrwt>0</asrwt>
<pdfrwt beam="1">  1        2 0.28433887E+00 0.34773387E+03</pdfrwt>
<pdfrwt beam="2">  1       -2 0.25163500E-02 0.34773387E+03</pdfrwt>
<totfact> 0.49142491E+03</totfact>
</mgrwt>
</event>
<event>
 4    1  0.6086918E-004  0.1793728E+03  0.7818608E-02  0.1168411E+00
         -2   -1    0    0    0  501 -0.00000000000E+00  0.00000000000E+00  0.25449708365E+02  0.25449708493E+02  0.25500000000E-02 0. -1.
          2   -1    0    0  501    0  0.00000000000E+00 -0.00000000000E+00 -0.31606076621E+03  0.31606076622E+03  0.25500000000E-02 0.  1.
    5000001    1    1    2    0    0 -0.34376724698E+02  0.30216276673E+02 -0.13681830555E+03  0.16353296705E+03  0.77000000000E+02 0.  0.
   -5000001    1    1    2    0    0  0.34376724698E+02 -0.30216276673E+02 -0.15379275229E+03  0.17797750766E+03  0.77000000000E+02 0.  0.
<mgrwt>
<rscale>  0 0.17937284E+03</rscale>
<asrwt>0</asrwt>
<pdfrwt beam="1">  1        2 0.48624730E-01 0.17937284E+03</pdfrwt>
<pdfrwt beam="2">  1       -2 0.39153400E-02 0.17937284E+03</pdfrwt>
<totfact> 0.28007318E+04</totfact>
</mgrwt>
</event>
<event>
 4    1  0.6086918E-004  0.3798242E+03  0.7818608E-02  0.1050999E+00
          2   -1    0    0  501    0  0.00000000000E+00  0.00000000000E+00  0.14475022147E+03  0.14475022150E+03  0.25500000000E-02 0.  1.
         -2   -1    0    0    0  501 -0.00000000000E+00 -0.00000000000E+00 -0.24916439575E+03  0.24916439576E+03  0.25500000000E-02 0. -1.
    5000001    1    1    2    0    0  0.10945851247E+03  0.12646262796E+03 -0.10044760001E+03  0.20974432667E+03  0.77000000000E+02 0.  0.
   -5000001    1    1    2    0    0 -0.10945851247E+03 -0.12646262796E+03 -0.39665742606E+01  0.18417029058E+03  0.77000000000E+02 0.  0.
<mgrwt>
<rscale>  0 0.37982418E+03</rscale>
<asrwt>0</asrwt>
<pdfrwt beam="1">  1        2 0.22269265E-01 0.37982418E+03</pdfrwt>
<pdfrwt beam="2">  1       -2 0.38332984E-01 0.37982418E+03</pdfrwt>
<totfact> 0.15965319E+03</totfact>
</mgrwt>
</event>
<event>
 4    1  0.6086918E-004  0.2245238E+03  0.7818608E-02  0.1130555E+00
         -2   -1    0    0    0  501 -0.00000000000E+00  0.00000000000E+00  0.21105134011E+02  0.21105134165E+02  0.25500000000E-02 0. -1.
          2   -1    0    0  501    0  0.00000000000E+00 -0.00000000000E+00 -0.59714081717E+03  0.59714081717E+03  0.25500000000E-02 0.  1.
    5000001    1    1    2    0    0  0.53523666694E+02  0.35285557827E+01 -0.11835343365E+03  0.15104227507E+03  0.77000000000E+02 0.  0.
   -5000001    1    1    2    0    0 -0.53523666694E+02 -0.35285557827E+01 -0.45768224951E+03  0.46720367626E+03  0.77000000000E+02 0.  0.
<mgrwt>
<rscale>  0 0.22452383E+03</rscale>
<asrwt>0</asrwt>
<pdfrwt beam="1">  1        2 0.91867805E-01 0.22452383E+03</pdfrwt>
<pdfrwt beam="2">  1       -2 0.32469442E-02 0.22452383E+03</pdfrwt>
<totfact> 0.18737325E+04</totfact>
</mgrwt>
</event>
<event>
 4    1  0.6086918E-004  0.2411912E+03  0.7818608E-02  0.1119002E+00
         -2   -1    0    0    0  501 -0.00000000000E+00  0.00000000000E+00  0.34386197517E+02  0.34386197612E+02  0.25500000000E-02 0. -1.
          2   -1    0    0  501    0  0.00000000000E+00 -0.00000000000E+00 -0.42294002177E+03  0.42294002178E+03  0.25500000000E-02 0.  1.
    5000001    1    1    2    0    0 -0.44918447960E+02 -0.81166859617E+02 -0.18872512070E+03  0.22394619276E+03  0.77000000000E+02 0.  0.
   -5000001    1    1    2    0    0  0.44918447960E+02  0.81166859617E+02 -0.19982870355E+03  0.23338002663E+03  0.77000000000E+02 0.  0.
<mgrwt>
<rscale>  0 0.24119120E+03</rscale>
<asrwt>0</asrwt>
<pdfrwt beam="1">  1        2 0.65067692E-01 0.24119120E+03</pdfrwt>
<pdfrwt beam="2">  1       -2 0.52901846E-02 0.24119120E+03</pdfrwt>
<totfact> 0.13280414E+04</totfact>
</mgrwt>
</event>
<event>
 4    1  0.6086918E-004  0.2284490E+03  0.7818608E-02  0.1127736E+00
          2   -1    0    0  501    0  0.00000000000E+00  0.00000000000E+00  0.16110394835E+04  0.16110394835E+04  0.25500000000E-02 0.  1.
         -2   -1    0    0    0  501 -0.00000000000E+00 -0.00000000000E+00 -0.80986459308E+01  0.80986463323E+01  0.25500000000E-02 0. -1.
    5000001    1    1    2    0    0 -0.71681898967E+02  0.73388975446E+01  0.49041893061E+03  0.50162922718E+03  0.77000000000E+02 0.  0.
   -5000001    1    1    2    0    0  0.71681898967E+02 -0.73388975446E+01  0.11125219070E+04  0.11175089027E+04  0.77000000000E+02 0.  0.
<mgrwt>
<rscale>  0 0.22844902E+03</rscale>
<asrwt>0</asrwt>
<pdfrwt beam="1">  1        2 0.24785244E+00 0.22844902E+03</pdfrwt>
<pdfrwt beam="2">  1       -2 0.12459445E-02 0.22844902E+03</pdfrwt>
<totfact> 0.18292338E+04</totfact>
</mgrwt>
</event>
<event>
 4    1  0.6086918E-004  0.3554699E+03  0.7818608E-02  0.1060392E+00
          2   -1    0    0  501    0  0.00000000000E+00  0.00000000000E+00  0.77277497057E+03  0.77277497057E+03  0.25500000000E-02 0.  1.
         -2   -1    0    0    0  501 -0.00000000000E+00 -0.00000000000E+00 -0.40878273963E+02  0.40878274043E+02  0.25500000000E-02 0. -1.
    5000001    1    1    2    0    0 -0.15312063033E+03 -0.30527936253E+02  0.44793067086E+03  0.48057129359E+03  0.77000000000E+02 0.  0.
   -5000001    1    1    2    0    0  0.15312063033E+03  0.30527936253E+02  0.28396602575E+03  0.33308195103E+03  0.77000000000E+02 0.  0.
<mgrwt>
<rscale>  0 0.35546987E+03</rscale>
<asrwt>0</asrwt>
<pdfrwt beam="1">  1        2 0.11888846E+00 0.35546987E+03</pdfrwt>
<pdfrwt beam="2">  1       -2 0.62889651E-02 0.35546987E+03</pdfrwt>
<totfact> 0.51254854E+03</totfact>
</mgrwt>
</event>
<event>
 4    1  0.6086918E-004  0.2541908E+03  0.7818608E-02  0.1110685E+00
         -2   -1    0    0    0  501 -0.00000000000E+00  0.00000000000E+00  0.22843873181E+02  0.22843873323E+02  0.25500000000E-02 0. -1.
          2   -1    0    0  501    0  0.00000000000E+00 -0.00000000000E+00 -0.70711506982E+03  0.70711506983E+03  0.25500000000E-02 0.  1.
    5000001    1    1    2    0    0 -0.44562467458E+02 -0.89669622342E+02 -0.30174844226E+03  0.32712012638E+03  0.77000000000E+02 0.  0.
   -5000001    1    1    2    0    0  0.44562467458E+02  0.89669622342E+02 -0.38252275438E+03  0.40283881677E+03  0.77000000000E+02 0.  0.
<mgrwt>
<rscale>  0 0.25419085E+03</rscale>
<asrwt>0</asrwt>
<pdfrwt beam="1">  1        2 0.10878692E+00 0.25419085E+03</pdfrwt>
<pdfrwt beam="2">  1       -2 0.35144426E-02 0.25419085E+03</pdfrwt>
<totfact> 0.13721418E+04</totfact>
</mgrwt>
</event>
<event>
 4    1  0.6086918E-004  0.2469732E+03  0.7818608E-02  0.1115233E+00
          2   -1    0    0  501    0  0.00000000000E+00  0.00000000000E+00  0.20314109108E+04  0.20314109108E+04  0.25500000000E-02 0.  1.
         -2   -1    0    0    0  501 -0.00000000000E+00 -0.00000000000E+00 -0.75065770172E+01  0.75065774504E+01  0.25500000000E-02 0. -1.
    5000001    1    1    2    0    0 -0.22428338411E+02  0.92276178383E+02  0.86848014004E+03  0.87704314438E+03  0.77000000000E+02 0.  0.
   -5000001    1    1    2    0    0  0.22428338411E+02 -0.92276178383E+02  0.11554241937E+04  0.11618743439E+04  0.77000000000E+02 0.  0.
<mgrwt>
<rscale>  0 0.24697322E+03</rscale>
<asrwt>0</asrwt>
<pdfrwt beam="1">  1        2 0.31252522E+00 0.24697322E+03</pdfrwt>
<pdfrwt beam="2">  1       -2 0.11548563E-02 0.24697322E+03</pdfrwt>
<totfact> 0.12335531E+04</totfact>
</mgrwt>
</event>
<event>
 4    1  0.6086918E-004  0.4122901E+03  0.7818608E-02  0.1039605E+00
          2   -1    0    0  501    0  0.00000000000E+00  0.00000000000E+00  0.70387506631E+03  0.70387506631E+03  0.25500000000E-02 0.  1.
         -2   -1    0    0    0  501 -0.00000000000E+00 -0.00000000000E+00 -0.60374046928E+02  0.60374046981E+02  0.25500000000E-02 0. -1.
    5000001    1    1    2    0    0 -0.73310036855E+02 -0.17933544603E+02 -0.39407058801E+01  0.10789116131E+03  0.77000000000E+02 0.  0.
   -5000001    1    1    2    0    0  0.73310036855E+02  0.17933544603E+02  0.64744172526E+03  0.65635795199E+03  0.77000000000E+02 0.  0.
<mgrwt>
<rscale>  0 0.41229012E+03</rscale>
<asrwt>0</asrwt>
<pdfrwt beam="1">  1        2 0.10828847E+00 0.41229012E+03</pdfrwt>
<pdfrwt beam="2">  1       -2 0.92883152E-02 0.41229012E+03</pdfrwt>
<totfact> 0.31272196E+03</totfact>
</mgrwt>
</event>
<event>
 4    1  0.6086918E-004  0.2986799E+03  0.7818608E-02  0.1085902E+00
         -2   -1    0    0    0  501 -0.00000000000E+00  0.00000000000E+00  0.28435023138E+02  0.28435023253E+02  0.25500000000E-02 0. -1.
          2   -1    0    0  501    0  0.00000000000E+00 -0.00000000000E+00 -0.78432928282E+03  0.78432928282E+03  0.25500000000E-02 0.  1.
    5000001    1    1    2    0    0  0.10387514950E+03  0.47135929982E+02 -0.53571925124E+03  0.55311477898E+03  0.77000000000E+02 0.  0.
   -5000001    1    1    2    0    0 -0.10387514950E+03 -0.47135929982E+02 -0.22017500844E+03  0.25964952709E+03  0.77000000000E+02 0.  0.
<mgrwt>
<rscale>  0 0.29867990E+03</rscale>
<asrwt>0</asrwt>
<pdfrwt beam="1">  1        2 0.12066603E+00 0.29867990E+03</pdfrwt>
<pdfrwt beam="2">  1       -2 0.43746196E-02 0.29867990E+03</pdfrwt>
<totfact> 0.87323718E+03</totfact>
</mgrwt>
</event>
<event>
 4    1  0.6086918E-004  0.1899485E+03  0.7818608E-02  0.1158508E+00
          2   -1    0    0  501    0  0.00000000000E+00  0.00000000000E+00  0.32689367746E+03  0.32689367747E+03  0.25500000000E-02 0.  1.
         -2   -1    0    0    0  501 -0.00000000000E+00 -0.00000000000E+00 -0.27593387639E+02  0.27593387757E+02  0.25500000000E-02 0. -1.
    5000001    1    1    2    0    0  0.29400458442E+02  0.47188101241E+02  0.14967110636E+03  0.17726123077E+03  0.77000000000E+02 0.  0.
   -5000001    1    1    2    0    0 -0.29400458442E+02 -0.47188101241E+02  0.14962918346E+03  0.17722583446E+03  0.77000000000E+02 0.  0.
<mgrwt>
<rscale>  0 0.18994846E+03</rscale>
<asrwt>0</asrwt>
<pdfrwt beam="1">  1        2 0.50291339E-01 0.18994846E+03</pdfrwt>
<pdfrwt beam="2">  1       -2 0.42451363E-02 0.18994846E+03</pdfrwt>
<totfact> 0.24055073E+04</totfact>
</mgrwt>
</event>
<event>
 4    1  0.6086918E-004  0.1901356E+03  0.7818608E-02  0.1158339E+00
          2   -1    0    0  501    0  0.00000000000E+00  0.00000000000E+00  0.11149094900E+04  0.11149094900E+04  0.25500000000E-02 0.  1.
         -2   -1    0    0    0  501 -0.00000000000E+00 -0.00000000000E+00 -0.81063850398E+01  0.81063854409E+01  0.25500000000E-02 0. -1.
    5000001    1    1    2    0    0 -0.35175438093E+02  0.21995490718E+02  0.33337167500E+03  0.34465459050E+03  0.77000000000E+02 0.  0.
   -5000001    1    1    2    0    0  0.35175438093E+02 -0.21995490718E+02  0.77343142998E+03  0.77836128497E+03  0.77000000000E+02 0.  0.
<mgrwt>
<rscale>  0 0.19013559E+03</rscale>
<asrwt>0</asrwt>
<pdfrwt beam="1">  1        2 0.17152457E+00 0.19013559E+03</pdfrwt>
<pdfrwt beam="2">  1       -2 0.12471360E-02 0.19013559E+03</pdfrwt>
<totfact> 0.33702180E+04</totfact>
</mgrwt>
</event>
<event>
 4    1  0.6086918E-004  0.3000166E+03  0.7818608E-02  0.1085232E+00
          2   -1    0    0  501    0  0.00000000000E+00  0.00000000000E+00  0.11111303055E+02  0.11111303348E+02  0.25500000000E-02 0.  1.
         -2   -1    0    0    0  501 -0.00000000000E+00 -0.00000000000E+00 -0.20251893476E+04  0.20251893476E+04  0.25500000000E-02 0. -1.
    5000001    1    1    2    0    0  0.17001432294E+02 -0.72985393453E+02 -0.17175222730E+04  0.17208799129E+04  0.77000000000E+02 0.  0.
   -5000001    1    1    2    0    0 -0.17001432294E+02  0.72985393453E+02 -0.29655577154E+03  0.31542073805E+03  0.77000000000E+02 0.  0.
<mgrwt>
<rscale>  0 0.30001662E+03</rscale>
<asrwt>0</asrwt>
<pdfrwt beam="1">  1        2 0.17094329E-02 0.30001662E+03</pdfrwt>
<pdfrwt beam="2">  1       -2 0.31156730E+00 0.30001662E+03</pdfrwt>
<totfact> 0.21295946E+02</totfact>
</mgrwt>
</event>
<event>
 4    1  0.6086918E-004  0.3836921E+03  0.7818608E-02  0.1049578E+00
         -2   -1    0    0    0  501 -0.00000000000E+00  0.00000000000E+00  0.19132773747E+02  0.19132773917E+02  0.25500000000E-02 0. -1.
          2   -1    0    0  501    0  0.00000000000E+00 -0.00000000000E+00 -0.19236578398E+04  0.19236578398E+04  0.25500000000E-02 0.  1.
    5000001    1    1    2    0    0  0.36971646507E+02 -0.17009781337E+03 -0.10737571209E+04  0.10904969159E+04  0.77000000000E+02 0.  0.
   -5000001    1    1    2    0    0 -0.36971646507E+02  0.17009781337E+03 -0.83076794509E+03  0.85229369782E+03  0.77000000000E+02 0.  0.
<mgrwt>
<rscale>  0 0.38369212E+03</rscale>
<asrwt>0</asrwt>
<pdfrwt beam="1">  1        2 0.29594721E+00 0.38369212E+03</pdfrwt>
<pdfrwt beam="2">  1       -2 0.29435052E-02 0.38369212E+03</pdfrwt>
<totfact> 0.35416350E+03</totfact>
</mgrwt>
</event>
<event>
 4    1  0.6086918E-004  0.1858535E+03  0.7818608E-02  0.1162255E+00
         -2   -1    0    0    0  501 -0.00000000000E+00  0.00000000000E+00  0.49812086120E+03  0.49812086120E+03  0.25500000000E-02 0. -1.
          2   -1    0    0  501    0  0.00000000000E+00 -0.00000000000E+00 -0.17335909675E+02  0.17335909863E+02  0.25500000000E-02 0.  1.
    5000001    1    1    2    0    0  0.38955917771E+02  0.83001737628E+01  0.33320689177E+03  0.34429970830E+03  0.77000000000E+02 0.  0.
   -5000001    1    1    2    0    0 -0.38955917771E+02 -0.83001737628E+01  0.14757805975E+03  0.17115706276E+03  0.77000000000E+02 0.  0.
<mgrwt>
<rscale>  0 0.18585347E+03</rscale>
<asrwt>0</asrwt>
<pdfrwt beam="1">  1        2 0.26670631E-02 0.18585347E+03</pdfrwt>
<pdfrwt beam="2">  1       -2 0.76633978E-01 0.18585347E+03</pdfrwt>
<totfact> 0.55934546E+03</totfact>
</mgrwt>
</event>
<event>
 4    1  0.6086918E-004  0.2291178E+03  0.7818608E-02  0.1127262E+00
         -2   -1    0    0    0  501 -0.00000000000E+00  0.00000000000E+00  0.36543566023E+03  0.36543566024E+03  0.25500000000E-02 0. -1.
          2   -1    0    0  501    0  0.00000000000E+00 -0.00000000000E+00 -0.35912598161E+02  0.35912598252E+02  0.25500000000E-02 0.  1.
    5000001    1    1    2    0    0 -0.82384281062E+02  0.20152090919E+02  0.16263949710E+03  0.19893185404E+03  0.77000000000E+02 0.  0.
   -5000001    1    1    2    0    0  0.82384281062E+02 -0.20152090919E+02  0.16688356498E+03  0.20241640446E+03  0.77000000000E+02 0.  0.
<mgrwt>
<rscale>  0 0.22911782E+03</rscale>
<asrwt>0</asrwt>
<pdfrwt beam="1">  1        2 0.55250152E-02 0.22911782E+03</pdfrwt>
<pdfrwt beam="2">  1       -2 0.56220870E-01 0.22911782E+03</pdfrwt>
<totfact> 0.41079821E+03</totfact>
</mgrwt>
</event>
<event>
 4    1  0.6086918E-004  0.2090415E+03  0.7818608E-02  0.1142327E+00
          2   -1    0    0  501    0  0.00000000000E+00  0.00000000000E+00  0.36026843501E+02  0.36026843591E+02  0.25500000000E-02 0.  1.
         -2   -1    0    0    0  501 -0.00000000000E+00 -0.00000000000E+00 -0.30323463701E+03  0.30323463702E+03  0.25500000000E-02 0. -1.
    5000001    1    1    2    0    0 -0.56541332755E+02 -0.42321041490E+02 -0.12913154068E+03  0.16610824080E+03  0.77000000000E+02 0.  0.
   -5000001    1    1    2    0    0  0.56541332755E+02  0.42321041490E+02 -0.13807625283E+03  0.17315323981E+03  0.77000000000E+02 0.  0.
<mgrwt>
<rscale>  0 0.20904150E+03</rscale>
<asrwt>0</asrwt>
<pdfrwt beam="1">  1        2 0.55425915E-02 0.20904150E+03</pdfrwt>
<pdfrwt beam="2">  1       -2 0.46651481E-01 0.20904150E+03</pdfrwt>
<totfact> 0.59116590E+03</totfact>
</mgrwt>
</event>
<event>
 4    1  0.6086918E-004  0.2300332E+03  0.7818608E-02  0.1126616E+00
          2   -1    0    0  501    0  0.00000000000E+00  0.00000000000E+00  0.20249899245E+03  0.20249899247E+03  0.25500000000E-02 0.  1.
         -2   -1    0    0    0  501 -0.00000000000E+00 -0.00000000000E+00 -0.65327843549E+02  0.65327843599E+02  0.25500000000E-02 0. -1.
    5000001    1    1    2    0    0  0.51047643914E+02 -0.63861438966E+02  0.97475074458E+02  0.14870956754E+03  0.77000000000E+02 0.  0.
   -5000001    1    1    2    0    0 -0.51047643914E+02  0.63861438966E+02  0.39696074444E+02  0.11911726853E+03  0.77000000000E+02 0.  0.
<mgrwt>
<rscale>  0 0.23003324E+03</rscale>
<asrwt>0</asrwt>
<pdfrwt beam="1">  1        2 0.31153690E-01 0.23003324E+03</pdfrwt>
<pdfrwt beam="2">  1       -2 0.10050438E-01 0.23003324E+03</pdfrwt>
<totfact> 0.10838822E+04</totfact>
</mgrwt>
</event>
<event>
 4    1  0.6086918E-004  0.2072809E+03  0.7818608E-02  0.1143737E+00
         -2   -1    0    0    0  501 -0.00000000000E+00  0.00000000000E+00  0.13574148675E+03  0.13574148677E+03  0.25500000000E-02 0. -1.
          2   -1    0    0  501    0  0.00000000000E+00 -0.00000000000E+00 -0.79130885124E+02  0.79130885165E+02  0.25500000000E-02 0.  1.
    5000001    1    1    2    0    0  0.56607553437E+01 -0.68845678867E+02  0.34908225742E+02  0.10917580260E+03  0.77000000000E+02 0.  0.
   -5000001    1    1    2    0    0 -0.56607553437E+01  0.68845678867E+02  0.21702375881E+02  0.10569656933E+03  0.77000000000E+02 0.  0.
<mgrwt>
<rscale>  0 0.20728091E+03</rscale>
<asrwt>0</asrwt>
<pdfrwt beam="1">  1        2 0.12173982E-01 0.20728091E+03</pdfrwt>
<pdfrwt beam="2">  1       -2 0.20883306E-01 0.20728091E+03</pdfrwt>
<totfact> 0.95102741E+03</totfact>
</mgrwt>
</event>
<event>
 4    1  0.6086918E-004  0.5272223E+03  0.7818608E-02  0.1006908E+00
         -2   -1    0    0    0  501 -0.00000000000E+00  0.00000000000E+00  0.24267048583E+02  0.24267048717E+02  0.25500000000E-02 0.  1.
          2   -1    0    0  501    0  0.00000000000E+00 -0.00000000000E+00 -0.28635884586E+04  0.28635884586E+04  0.25500000000E-02 0. -1.
    5000001    1    1    2    0    0  0.16499701951E+03  0.18319124184E+03 -0.17084025803E+04  0.17278169532E+04  0.77000000000E+02 0.  0.
   -5000001    1    1    2    0    0 -0.16499701951E+03 -0.18319124184E+03 -0.11309188297E+04  0.11600385541E+04  0.77000000000E+02 0.  0.
<mgrwt>
<rscale>  0 0.52722231E+03</rscale>
<asrwt>0</asrwt>
<pdfrwt beam="1">  1        2 0.44055180E+00 0.52722231E+03</pdfrwt>
<pdfrwt beam="2">  1       -2 0.37333944E-02 0.52722231E+03</pdfrwt>
<totfact> 0.73600790E+02</totfact>
</mgrwt>
</event>
<event>
 4    1  0.6086918E-004  0.2887731E+03  0.7818608E-02  0.1090991E+00
         -2   -1    0    0    0  501 -0.00000000000E+00  0.00000000000E+00  0.21169305250E+02  0.21169305404E+02  0.25500000000E-02 0. -1.
          2   -1    0    0  501    0  0.00000000000E+00 -0.00000000000E+00 -0.98479746609E+03  0.98479746609E+03  0.25500000000E-02 0.  1.
    5000001    1    1    2    0    0  0.73875847075E+02 -0.97235004317E+02 -0.47314603068E+03  0.49468015242E+03  0.77000000000E+02 0.  0.
   -5000001    1    1    2    0    0 -0.73875847075E+02  0.97235004317E+02 -0.49048213015E+03  0.51128661908E+03  0.77000000000E+02 0.  0.
<mgrwt>
<rscale>  0 0.28877312E+03</rscale>
<asrwt>0</asrwt>
<pdfrwt beam="1">  1        2 0.15150727E+00 0.28877312E+03</pdfrwt>
<pdfrwt beam="2">  1       -2 0.32568170E-02 0.28877312E+03</pdfrwt>
<totfact> 0.10044157E+04</totfact>
</mgrwt>
</event>
<event>
 4    1  0.6086918E-004  0.2590593E+03  0.7818608E-02  0.1107710E+00
         -2   -1    0    0    0  501 -0.00000000000E+00  0.00000000000E+00  0.39238382918E+02  0.39238383001E+02  0.25500000000E-02 0. -1.
          2   -1    0    0  501    0  0.00000000000E+00 -0.00000000000E+00 -0.42758983057E+03  0.42758983058E+03  0.25500000000E-02 0.  1.
    5000001    1    1    2    0    0 -0.34580768270E+02 -0.97090442769E+02 -0.22129885446E+03  0.25597766816E+03  0.77000000000E+02 0.  0.
   -5000001    1    1    2    0    0  0.34580768270E+02  0.97090442769E+02 -0.16705259319E+03  0.21085054542E+03  0.77000000000E+02 0.  0.
<mgrwt>
<rscale>  0 0.25905933E+03</rscale>
<asrwt>0</asrwt>
<pdfrwt beam="1">  1        2 0.65783047E-01 0.25905933E+03</pdfrwt>
<pdfrwt beam="2">  1       -2 0.60366746E-02 0.25905933E+03</pdfrwt>
<totfact> 0.10764295E+04</totfact>
</mgrwt>
</event>
<event>
 4    1  0.6086918E-004  0.3323907E+03  0.7818608E-02  0.1070084E+00
         -2   -1    0    0    0  501 -0.00000000000E+00  0.00000000000E+00  0.17478879766E+03  0.17478879768E+03  0.25500000000E-02 0. -1.
          2   -1    0    0  501    0  0.00000000000E+00 -0.00000000000E+00 -0.15802439583E+03  0.15802439586E+03  0.25500000000E-02 0.  1.
    5000001    1    1    2    0    0  0.77815698092E+02  0.77088457774E+02  0.10696536506E+03  0.17137240885E+03  0.77000000000E+02 0.  0.
   -5000001    1    1    2    0    0 -0.77815698092E+02 -0.77088457774E+02 -0.90200963236E+02  0.16144078469E+03  0.77000000000E+02 0.  0.
<mgrwt>
<rscale>  0 0.33239070E+03</rscale>
<asrwt>0</asrwt>
<pdfrwt beam="1">  1        2 0.24311446E-01 0.33239070E+03</pdfrwt>
<pdfrwt beam="2">  1       -2 0.26890584E-01 0.33239070E+03</pdfrwt>
<totfact> 0.27773195E+03</totfact>
</mgrwt>
</event>
<event>
 4    1  0.6086918E-004  0.2069523E+03  0.7818608E-02  0.1144002E+00
         -2   -1    0    0    0  501 -0.00000000000E+00  0.00000000000E+00  0.11799798874E+02  0.11799799149E+02  0.25500000000E-02 0. -1.
          2   -1    0    0  501    0  0.00000000000E+00 -0.00000000000E+00 -0.90741519851E+03  0.90741519851E+03  0.25500000000E-02 0.  1.
    5000001    1    1    2    0    0 -0.13914131307E+02 -0.42543989739E+02 -0.68177576403E+03  0.68756875040E+03  0.77000000000E+02 0.  0.
   -5000001    1    1    2    0    0  0.13914131307E+02  0.42543989739E+02 -0.21383963560E+03  0.23164624726E+03  0.77000000000E+02 0.  0.
<mgrwt>
<rscale>  0 0.20695233E+03</rscale>
<asrwt>0</asrwt>
<pdfrwt beam="1">  1        2 0.13960228E+00 0.20695233E+03</pdfrwt>
<pdfrwt beam="2">  1       -2 0.18153544E-02 0.20695233E+03</pdfrwt>
<totfact> 0.26218448E+04</totfact>
</mgrwt>
</event>
<event>
 4    1  0.6086918E-004  0.3309015E+03  0.7818608E-02  0.1070739E+00
         -2   -1    0    0    0  501 -0.00000000000E+00  0.00000000000E+00  0.25379162207E+02  0.25379162335E+02  0.25500000000E-02 0. -1.
          2   -1    0    0  501    0  0.00000000000E+00 -0.00000000000E+00 -0.10785996520E+04  0.10785996520E+04  0.25500000000E-02 0.  1.
    5000001    1    1    2    0    0 -0.87896034498E+02  0.75103796187E+01 -0.13663916010E+03  0.17994826689E+03  0.77000000000E+02 0.  0.
   -5000001    1    1    2    0    0  0.87896034498E+02 -0.75103796187E+01 -0.91658132966E+03  0.92403054742E+03  0.77000000000E+02 0.  0.
<mgrwt>
<rscale>  0 0.33090153E+03</rscale>
<asrwt>0</asrwt>
<pdfrwt beam="1">  1        2 0.16593837E+00 0.33090153E+03</pdfrwt>
<pdfrwt beam="2">  1       -2 0.39044873E-02 0.33090153E+03</pdfrwt>
<totfact> 0.67284811E+03</totfact>
</mgrwt>
</event>
<event>
 4    1  0.6086918E-004  0.2936519E+03  0.7818608E-02  0.1088458E+00
          2   -1    0    0  501    0  0.00000000000E+00  0.00000000000E+00  0.26795693009E+03  0.26795693010E+03  0.25500000000E-02 0.  1.
         -2   -1    0    0    0  501 -0.00000000000E+00 -0.00000000000E+00 -0.80452687911E+02  0.80452687952E+02  0.25500000000E-02 0. -1.
    5000001    1    1    2    0    0  0.10412459324E+03  0.53017698140E+02  0.14649406270E+03  0.20258903633E+03  0.77000000000E+02 0.  0.
   -5000001    1    1    2    0    0 -0.10412459324E+03 -0.53017698140E+02  0.41010179476E+02  0.14582058172E+03  0.77000000000E+02 0.  0.
<mgrwt>
<rscale>  0 0.29365187E+03</rscale>
<asrwt>0</asrwt>
<pdfrwt beam="1">  1        2 0.41224143E-01 0.29365187E+03</pdfrwt>
<pdfrwt beam="2">  1       -2 0.12377337E-01 0.29365187E+03</pdfrwt>
<totfact> 0.57896123E+03</totfact>
</mgrwt>
</event>
<event>
 4    1  0.6086918E-004  0.2035922E+03  0.7818608E-02  0.1146743E+00
         -2   -1    0    0    0  501 -0.00000000000E+00  0.00000000000E+00  0.73934244559E+01  0.73934248956E+01  0.25500000000E-02 0. -1.
          2   -1    0    0  501    0  0.00000000000E+00 -0.00000000000E+00 -0.14015764026E+04  0.14015764026E+04  0.25500000000E-02 0.  1.
    5000001    1    1    2    0    0  0.41992167037E+02 -0.42033761100E+02 -0.48909817662E+03  0.49867444845E+03  0.77000000000E+02 0.  0.
   -5000001    1    1    2    0    0 -0.41992167037E+02  0.42033761100E+02 -0.90508480152E+03  0.91029537904E+03  0.77000000000E+02 0.  0.
<mgrwt>
<rscale>  0 0.20359224E+03</rscale>
<asrwt>0</asrwt>
<pdfrwt beam="1">  1        2 0.21562693E+00 0.20359224E+03</pdfrwt>
<pdfrwt beam="2">  1       -2 0.11374511E-02 0.20359224E+03</pdfrwt>
<totfact> 0.26818816E+04</totfact>
</mgrwt>
</event>
<event>
 4    1  0.6086918E-004  0.2718761E+03  0.7818608E-02  0.1100211E+00
          2   -1    0    0  501    0  0.00000000000E+00  0.00000000000E+00  0.23576653669E+04  0.23576653669E+04  0.25500000000E-02 0.  1.
         -2   -1    0    0    0  501 -0.00000000000E+00 -0.00000000000E+00 -0.78379013297E+01  0.78379017445E+01  0.25500000000E-02 0. -1.
    5000001    1    1    2    0    0  0.20278119865E+02  0.85888028132E+02  0.17753350340E+04  0.17791940418E+04  0.77000000000E+02 0.  0.
   -5000001    1    1    2    0    0 -0.20278119865E+02 -0.85888028132E+02  0.57449243154E+03  0.58630922679E+03  0.77000000000E+02 0.  0.
<mgrwt>
<rscale>  0 0.27187607E+03</rscale>
<asrwt>0</asrwt>
<pdfrwt beam="1">  1        2 0.36271798E+00 0.27187607E+03</pdfrwt>
<pdfrwt beam="2">  1       -2 0.12058302E-02 0.27187607E+03</pdfrwt>
<totfact> 0.77808733E+03</totfact>
</mgrwt>
</event>
<event>
 4    1  0.6086918E-004  0.2994574E+03  0.7818608E-02  0.1085512E+00
         -2   -1    0    0    0  501 -0.00000000000E+00  0.00000000000E+00  0.14480320465E+02  0.14480320689E+02  0.25500000000E-02 0. -1.
          2   -1    0    0  501    0  0.00000000000E+00 -0.00000000000E+00 -0.15482169460E+04  0.15482169460E+04  0.25500000000E-02 0.  1.
    5000001    1    1    2    0    0  0.86819826910E+02  0.39875165116E+01 -0.12601713057E+04  0.12655095031E+04  0.77000000000E+02 0.  0.
   -5000001    1    1    2    0    0 -0.86819826910E+02 -0.39875165116E+01 -0.27356531980E+03  0.29718776359E+03  0.77000000000E+02 0.  0.
<mgrwt>
<rscale>  0 0.29945736E+03</rscale>
<asrwt>0</asrwt>
<pdfrwt beam="1">  1        2 0.23818709E+00 0.29945736E+03</pdfrwt>
<pdfrwt beam="2">  1       -2 0.22277429E-02 0.29945736E+03</pdfrwt>
<totfact> 0.84902039E+03</totfact>
</mgrwt>
</event>
<event>
 4    1  0.6086918E-004  0.2412418E+03  0.7818608E-02  0.1118968E+00
         -2   -1    0    0    0  501 -0.00000000000E+00  0.00000000000E+00  0.53174189703E+01  0.53174195817E+01  0.25500000000E-02 0. -1.
          2   -1    0    0  501    0  0.00000000000E+00 -0.00000000000E+00 -0.27361782598E+04  0.27361782598E+04  0.25500000000E-02 0.  1.
    5000001    1    1    2    0    0  0.31400316741E+02  0.72301117186E+02 -0.19229636616E+04  0.19261182921E+04  0.77000000000E+02 0.  0.
   -5000001    1    1    2    0    0 -0.31400316741E+02 -0.72301117186E+02 -0.80789717919E+03  0.81537738721E+03  0.77000000000E+02 0.  0.
<mgrwt>
<rscale>  0 0.24124185E+03</rscale>
<asrwt>0</asrwt>
<pdfrwt beam="1">  1        2 0.42094938E+00 0.24124185E+03</pdfrwt>
<pdfrwt beam="2">  1       -2 0.81806669E-03 0.24124185E+03</pdfrwt>
<totfact> 0.84525648E+03</totfact>
</mgrwt>
</event>
<event>
 4    1  0.6086918E-004  0.1914673E+03  0.7818608E-02  0.1157145E+00
         -2   -1    0    0    0  501 -0.00000000000E+00  0.00000000000E+00  0.17706840102E+02  0.17706840285E+02  0.25500000000E-02 0. -1.
          2   -1    0    0  501    0  0.00000000000E+00 -0.00000000000E+00 -0.51759250062E+03  0.51759250062E+03  0.25500000000E-02 0.  1.
    5000001    1    1    2    0    0  0.51826714602E+01  0.49500040784E+02 -0.17292882017E+03  0.19573065924E+03  0.77000000000E+02 0.  0.
   -5000001    1    1    2    0    0 -0.51826714602E+01 -0.49500040784E+02 -0.32695684035E+03  0.33956868167E+03  0.77000000000E+02 0.  0.
<mgrwt>
<rscale>  0 0.19146726E+03</rscale>
<asrwt>0</asrwt>
<pdfrwt beam="1">  1        2 0.79629604E-01 0.19146726E+03</pdfrwt>
<pdfrwt beam="2">  1       -2 0.27241297E-02 0.19146726E+03</pdfrwt>
<totfact> 0.28263842E+04</totfact>
</mgrwt>
</event>
<event>
 4    1  0.6086918E-004  0.4245803E+03  0.7818608E-02  0.1035586E+00
         -2   -1    0    0    0  501 -0.00000000000E+00  0.00000000000E+00  0.10964148163E+03  0.10964148166E+03  0.25500000000E-02 0. -1.
          2   -1    0    0  501    0  0.00000000000E+00 -0.00000000000E+00 -0.41104063652E+03  0.41104063653E+03  0.25500000000E-02 0.  1.
    5000001    1    1    2    0    0  0.92324959282E+02 -0.90951889055E+02 -0.33400422501E+03  0.36644776784E+03  0.77000000000E+02 0.  0.
   -5000001    1    1    2    0    0 -0.92324959282E+02  0.90951889055E+02  0.32605070131E+02  0.15423435035E+03  0.77000000000E+02 0.  0.
<mgrwt>
<rscale>  0 0.42458028E+03</rscale>
<asrwt>0</asrwt>
<pdfrwt beam="1">  1        2 0.63237020E-01 0.42458028E+03</pdfrwt>
<pdfrwt beam="2">  1       -2 0.16867920E-01 0.42458028E+03</pdfrwt>
<totfact> 0.21922700E+03</totfact>
</mgrwt>
</event>
<event>
 4    1  0.6086918E-004  0.2386034E+03  0.7818608E-02  0.1120727E+00
         -2   -1    0    0    0  501 -0.00000000000E+00  0.00000000000E+00  0.96090496984E+02  0.96090497018E+02  0.25500000000E-02 0. -1.
          2   -1    0    0  501    0  0.00000000000E+00 -0.00000000000E+00 -0.14811971465E+03  0.14811971467E+03  0.25500000000E-02 0.  1.
    5000001    1    1    2    0    0 -0.86457171770E+02  0.28171522634E+02 -0.32105908918E+02  0.12340286312E+03  0.77000000000E+02 0.  0.
   -5000001    1    1    2    0    0  0.86457171770E+02 -0.28171522634E+02 -0.19923308748E+02  0.12080734857E+03  0.77000000000E+02 0.  0.
<mgrwt>
<rscale>  0 0.23860341E+03</rscale>
<asrwt>0</asrwt>
<pdfrwt beam="1">  1        2 0.22787648E-01 0.23860341E+03</pdfrwt>
<pdfrwt beam="2">  1       -2 0.14783153E-01 0.23860341E+03</pdfrwt>
<totfact> 0.82352136E+03</totfact>
</mgrwt>
</event>
<event>
 4    1  0.6086918E-004  0.2625487E+03  0.7818608E-02  0.1105622E+00
         -2   -1    0    0    0  501 -0.00000000000E+00  0.00000000000E+00  0.22585082435E+02  0.22585082579E+02  0.25500000000E-02 0. -1.
          2   -1    0    0  501    0  0.00000000000E+00 -0.00000000000E+00 -0.76302352213E+03  0.76302352214E+03  0.25500000000E-02 0.  1.
    5000001    1    1    2    0    0  0.47138845874E+02  0.73841344959E+02 -0.55048359685E+03  0.56270401226E+03  0.77000000000E+02 0.  0.
   -5000001    1    1    2    0    0 -0.47138845874E+02 -0.73841344959E+02 -0.18995484285E+03  0.22290459246E+03  0.77000000000E+02 0.  0.
<mgrwt>
<rscale>  0 0.26254866E+03</rscale>
<asrwt>0</asrwt>
<pdfrwt beam="1">  1        2 0.11738821E+00 0.26254866E+03</pdfrwt>
<pdfrwt beam="2">  1       -2 0.34746287E-02 0.26254866E+03</pdfrwt>
<totfact> 0.12726274E+04</totfact>
</mgrwt>
</event>
<event>
 4    1  0.6086918E-004  0.2904659E+03  0.7818608E-02  0.1090106E+00
         -2   -1    0    0    0  501 -0.00000000000E+00  0.00000000000E+00  0.41350025930E+03  0.41350025930E+03  0.25500000000E-02 0. -1.
          2   -1    0    0  501    0  0.00000000000E+00 -0.00000000000E+00 -0.51009893720E+02  0.51009893783E+02  0.25500000000E-02 0.  1.
    5000001    1    1    2    0    0 -0.76422335461E+02 -0.19612495723E+02  0.30051236860E+02  0.11426766902E+03  0.77000000000E+02 0.  0.
   -5000001    1    1    2    0    0  0.76422335461E+02  0.19612495723E+02  0.33243912872E+03  0.35024248407E+03  0.77000000000E+02 0.  0.
<mgrwt>
<rscale>  0 0.29046586E+03</rscale>
<asrwt>0</asrwt>
<pdfrwt beam="1">  1        2 0.78476759E-02 0.29046586E+03</pdfrwt>
<pdfrwt beam="2">  1       -2 0.63615425E-01 0.29046586E+03</pdfrwt>
<totfact> 0.20382081E+03</totfact>
</mgrwt>
</event>
<event>
 4    1  0.6086918E-004  0.2027269E+03  0.7818608E-02  0.1147458E+00
          2   -1    0    0  501    0  0.00000000000E+00  0.00000000000E+00  0.12926013889E+03  0.12926013892E+03  0.25500000000E-02 0.  1.
         -2   -1    0    0    0  501 -0.00000000000E+00 -0.00000000000E+00 -0.79487396278E+02  0.79487396319E+02  0.25500000000E-02 0. -1.
    5000001    1    1    2    0    0  0.63657484878E+02 -0.14704973455E+02  0.15848444940E+02  0.10221880860E+03  0.77000000000E+02 0.  0.
   -5000001    1    1    2    0    0 -0.63657484878E+02  0.14704973455E+02  0.33924297674E+02  0.10652872663E+03  0.77000000000E+02 0.  0.
<mgrwt>
<rscale>  0 0.20272693E+03</rscale>
<asrwt>0</asrwt>
<pdfrwt beam="1">  1        2 0.19886175E-01 0.20272693E+03</pdfrwt>
<pdfrwt beam="2">  1       -2 0.12228830E-01 0.20272693E+03</pdfrwt>
<totfact> 0.12961011E+04</totfact>
</mgrwt>
</event>
<event>
 4    1  0.6086918E-004  0.1837994E+03  0.7818608E-02  0.1164176E+00
         -2   -1    0    0    0  501 -0.00000000000E+00  0.00000000000E+00  0.39009608740E+01  0.39009617074E+01  0.25500000000E-02 0. -1.
          2   -1    0    0  501    0  0.00000000000E+00 -0.00000000000E+00 -0.21649930893E+04  0.21649930893E+04  0.25500000000E-02 0.  1.
    5000001    1    1    2    0    0 -0.30812748994E+02 -0.35697644843E+02 -0.87862347283E+03  0.88325078791E+03  0.77000000000E+02 0.  0.
   -5000001    1    1    2    0    0  0.30812748994E+02  0.35697644843E+02 -0.12824686556E+04  0.12856432631E+04  0.77000000000E+02 0.  0.
<mgrwt>
<rscale>  0 0.18379939E+03</rscale>
<asrwt>0</asrwt>
<pdfrwt beam="1">  1        2 0.33307490E+00 0.18379939E+03</pdfrwt>
<pdfrwt beam="2">  1       -2 0.60014962E-03 0.18379939E+03</pdfrwt>
<totfact> 0.26709467E+04</totfact>
</mgrwt>
</event>
<event>
 4    1  0.6086918E-004  0.2134420E+03  0.7818608E-02  0.1138869E+00
         -2   -1    0    0    0  501 -0.00000000000E+00  0.00000000000E+00  0.27869055924E+02  0.27869056041E+02  0.25500000000E-02 0. -1.
          2   -1    0    0  501    0  0.00000000000E+00 -0.00000000000E+00 -0.40867440628E+03  0.40867440629E+03  0.25500000000E-02 0.  1.
    5000001    1    1    2    0    0  0.64095711945E+02 -0.36611278348E+02 -0.18339967657E+03  0.21216287931E+03  0.77000000000E+02 0.  0.
   -5000001    1    1    2    0    0 -0.64095711945E+02  0.36611278348E+02 -0.19740567378E+03  0.22438058301E+03  0.77000000000E+02 0.  0.
<mgrwt>
<rscale>  0 0.21344198E+03</rscale>
<asrwt>0</asrwt>
<pdfrwt beam="1">  1        2 0.62872981E-01 0.21344198E+03</pdfrwt>
<pdfrwt beam="2">  1       -2 0.42875474E-02 0.21344198E+03</pdfrwt>
<totfact> 0.18801301E+04</totfact>
</mgrwt>
</event>
<event>
 4    1  0.6086918E-004  0.2019088E+03  0.7818608E-02  0.1148138E+00
         -2   -1    0    0    0  501 -0.00000000000E+00  0.00000000000E+00  0.31639366359E+02  0.31639366461E+02  0.25500000000E-02 0. -1.
          2   -1    0    0  501    0  0.00000000000E+00 -0.00000000000E+00 -0.32212372912E+03  0.32212372913E+03  0.25500000000E-02 0.  1.
    5000001    1    1    2    0    0  0.64612033409E+02 -0.55330211667E+01 -0.15852364122E+03  0.18778731057E+03  0.77000000000E+02 0.  0.
   -5000001    1    1    2    0    0 -0.64612033409E+02  0.55330211667E+01 -0.13196072153E+03  0.16597578502E+03  0.77000000000E+02 0.  0.
<mgrwt>
<rscale>  0 0.20190880E+03</rscale>
<asrwt>0</asrwt>
<pdfrwt beam="1">  1        2 0.49557495E-01 0.20190880E+03</pdfrwt>
<pdfrwt beam="2">  1       -2 0.48675951E-02 0.20190880E+03</pdfrwt>
<totfact> 0.19981605E+04</totfact>
</mgrwt>
</event>
<event>
 4    1  0.6086918E-004  0.2999143E+03  0.7818608E-02  0.1085283E+00
          2   -1    0    0  501    0  0.00000000000E+00  0.00000000000E+00  0.13266382193E+04  0.13266382193E+04  0.25500000000E-02 0.  1.
         -2   -1    0    0    0  501 -0.00000000000E+00 -0.00000000000E+00 -0.16950477876E+02  0.16950478068E+02  0.25500000000E-02 0. -1.
    5000001    1    1    2    0    0 -0.34758438035E+02  0.94573666263E+02  0.10133995774E+04  0.10213031043E+04  0.77000000000E+02 0.  0.
   -5000001    1    1    2    0    0  0.34758438035E+02 -0.94573666263E+02  0.29628816404E+03  0.32228559309E+03  0.77000000000E+02 0.  0.
<mgrwt>
<rscale>  0 0.29991433E+03</rscale>
<asrwt>0</asrwt>
<pdfrwt beam="1">  1        2 0.20409829E+00 0.29991433E+03</pdfrwt>
<pdfrwt beam="2">  1       -2 0.26077645E-02 0.29991433E+03</pdfrwt>
<totfact> 0.88657597E+03</totfact>
</mgrwt>
</event>
<event>
 4    1  0.6086918E-004  0.3651154E+03  0.7818608E-02  0.1056577E+00
          2   -1    0    0  501    0  0.00000000000E+00  0.00000000000E+00  0.12459805720E+04  0.12459805720E+04  0.25500000000E-02 0.  1.
         -2   -1    0    0    0  501 -0.00000000000E+00 -0.00000000000E+00 -0.26747861127E+02  0.26747861249E+02  0.25500000000E-02 0. -1.
    5000001    1    1    2    0    0  0.36705785708E+02  0.93254162791E+02  0.15040389632E+03  0.19645352023E+03  0.77000000000E+02 0.  0.
   -5000001    1    1    2    0    0 -0.36705785708E+02 -0.93254162791E+02  0.10688288146E+04  0.10762749131E+04  0.77000000000E+02 0.  0.
<mgrwt>
<rscale>  0 0.36511541E+03</rscale>
<asrwt>0</asrwt>
<pdfrwt beam="1">  1        2 0.19168927E+00 0.36511541E+03</pdfrwt>
<pdfrwt beam="2">  1       -2 0.41150567E-02 0.36511541E+03</pdfrwt>
<totfact> 0.49724590E+03</totfact>
</mgrwt>
</event>
<event>
 4    1  0.6086918E-004  0.3214347E+03  0.7818608E-02  0.1074991E+00
          2   -1    0    0  501    0  0.00000000000E+00  0.00000000000E+00  0.70359303353E+03  0.70359303353E+03  0.25500000000E-02 0.  1.
         -2   -1    0    0    0  501 -0.00000000000E+00 -0.00000000000E+00 -0.36711667728E+02  0.36711667817E+02  0.25500000000E-02 0. -1.
    5000001    1    1    2    0    0 -0.64228877665E+02 -0.12454838337E+03  0.29606007798E+03  0.33647914987E+03  0.77000000000E+02 0.  0.
   -5000001    1    1    2    0    0  0.64228877665E+02  0.12454838337E+03  0.37082128782E+03  0.40382555148E+03  0.77000000000E+02 0.  0.
<mgrwt>
<rscale>  0 0.32143474E+03</rscale>
<asrwt>0</asrwt>
<pdfrwt beam="1">  1        2 0.10824507E+00 0.32143474E+03</pdfrwt>
<pdfrwt beam="2">  1       -2 0.56479494E-02 0.32143474E+03</pdfrwt>
<totfact> 0.67853912E+03</totfact>
</mgrwt>
</event>
<event>
 4    1  0.6086918E-004  0.2436347E+03  0.7818608E-02  0.1117395E+00
          2   -1    0    0  501    0  0.00000000000E+00  0.00000000000E+00  0.33292948329E+02  0.33292948427E+02  0.25500000000E-02 0.  1.
         -2   -1    0    0    0  501 -0.00000000000E+00 -0.00000000000E+00 -0.44572390757E+03  0.44572390758E+03  0.25500000000E-02 0. -1.
    5000001    1    1    2    0    0 -0.50921212086E+02  0.41987265410E+02 -0.33890451962E+03  0.35375298404E+03  0.77000000000E+02 0.  0.
   -5000001    1    1    2    0    0  0.50921212086E+02 -0.41987265410E+02 -0.73526439625E+02  0.12526387197E+03  0.77000000000E+02 0.  0.
<mgrwt>
<rscale>  0 0.24363467E+03</rscale>
<asrwt>0</asrwt>
<pdfrwt beam="1">  1        2 0.51219924E-02 0.24363467E+03</pdfrwt>
<pdfrwt beam="2">  1       -2 0.68572905E-01 0.24363467E+03</pdfrwt>
<totfact> 0.30082560E+03</totfact>
</mgrwt>
</event>
<event>
 4    1  0.6086918E-004  0.3255573E+03  0.7818608E-02  0.1073120E+00
         -2   -1    0    0    0  501 -0.00000000000E+00  0.00000000000E+00  0.11276829991E+03  0.11276829994E+03  0.25500000000E-02 0. -1.
          2   -1    0    0  501    0  0.00000000000E+00 -0.00000000000E+00 -0.23496750427E+03  0.23496750429E+03  0.25500000000E-02 0.  1.
    5000001    1    1    2    0    0 -0.13279782500E+03 -0.38095884301E+02 -0.19989599562E+02  0.15942127467E+03  0.77000000000E+02 0.  0.
   -5000001    1    1    2    0    0  0.13279782500E+03  0.38095884301E+02 -0.10220960481E+03  0.18831452955E+03  0.77000000000E+02 0.  0.
<mgrwt>
<rscale>  0 0.32555728E+03</rscale>
<asrwt>0</asrwt>
<pdfrwt beam="1">  1        2 0.36148847E-01 0.32555728E+03</pdfrwt>
<pdfrwt beam="2">  1       -2 0.17348969E-01 0.32555728E+03</pdfrwt>
<totfact> 0.38312217E+03</totfact>
</mgrwt>
</event>
<event>
 4    1  0.6086918E-004  0.4099026E+03  0.7818608E-02  0.1040404E+00
         -2   -1    0    0    0  501 -0.00000000000E+00  0.00000000000E+00  0.24287829605E+03  0.24287829607E+03  0.25500000000E-02 0. -1.
          2   -1    0    0  501    0  0.00000000000E+00 -0.00000000000E+00 -0.17294684463E+03  0.17294684465E+03  0.25500000000E-02 0.  1.
    5000001    1    1    2    0    0  0.11081523285E+02  0.16007475060E+03 -0.68135945999E+02  0.19057343224E+03  0.77000000000E+02 0.  0.
   -5000001    1    1    2    0    0 -0.11081523285E+02 -0.16007475060E+03  0.13806739742E+03  0.22525170847E+03  0.77000000000E+02 0.  0.
<mgrwt>
<rscale>  0 0.40990260E+03</rscale>
<asrwt>0</asrwt>
<pdfrwt beam="1">  1        2 0.26607207E-01 0.40990260E+03</pdfrwt>
<pdfrwt beam="2">  1       -2 0.37365892E-01 0.40990260E+03</pdfrwt>
<totfact> 0.13710613E+03</totfact>
</mgrwt>
</event>
<event>
 4    1  0.6086918E-004  0.2159207E+03  0.7818608E-02  0.1136961E+00
         -2   -1    0    0    0  501 -0.00000000000E+00  0.00000000000E+00  0.19114895718E+03  0.19114895720E+03  0.25500000000E-02 0. -1.
          2   -1    0    0  501    0  0.00000000000E+00 -0.00000000000E+00 -0.60975667295E+02  0.60975667348E+02  0.25500000000E-02 0.  1.
    5000001    1    1    2    0    0  0.66008090341E+02  0.36955501464E+02  0.62853321774E+02  0.12490923560E+03  0.77000000000E+02 0.  0.
   -5000001    1    1    2    0    0 -0.66008090341E+02 -0.36955501464E+02  0.67319968110E+02  0.12721538895E+03  0.77000000000E+02 0.  0.
<mgrwt>
<rscale>  0 0.21592068E+03</rscale>
<asrwt>0</asrwt>
<pdfrwt beam="1">  1        2 0.93808720E-02 0.21592068E+03</pdfrwt>
<pdfrwt beam="2">  1       -2 0.29407532E-01 0.21592068E+03</pdfrwt>
<totfact> 0.71960018E+03</totfact>
</mgrwt>
</event>
<event>
 4    1  0.6086918E-004  0.4914533E+03  0.7818608E-02  0.1016034E+00
          2   -1    0    0  501    0  0.00000000000E+00  0.00000000000E+00  0.31034813602E+04  0.31034813602E+04  0.25500000000E-02 0.  1.
         -2   -1    0    0    0  501 -0.00000000000E+00 -0.00000000000E+00 -0.19456079611E+02  0.19456079778E+02  0.25500000000E-02 0. -1.
    5000001    1    1    2    0    0 -0.89382761007E+02 -0.20387008814E+03  0.10971848257E+04  0.11221835111E+04  0.77000000000E+02 0.  0.
   -5000001    1    1    2    0    0  0.89382761007E+02  0.20387008814E+03  0.19868404549E+04  0.20007539289E+04  0.77000000000E+02 0.  0.
<mgrwt>
<rscale>  0 0.49145328E+03</rscale>
<asrwt>0</asrwt>
<pdfrwt beam="1">  1        2 0.47745827E+00 0.49145328E+03</pdfrwt>
<pdfrwt beam="2">  1       -2 0.29932455E-02 0.49145328E+03</pdfrwt>
<totfact> 0.74094395E+02</totfact>
</mgrwt>
</event>
<event>
 4    1  0.6086918E-004  0.1973723E+03  0.7818608E-02  0.1151975E+00
         -2   -1    0    0    0  501 -0.00000000000E+00  0.00000000000E+00  0.36785568085E+01  0.36785576923E+01  0.25500000000E-02 0. -1.
          2   -1    0    0  501    0  0.00000000000E+00 -0.00000000000E+00 -0.26474941971E+04  0.26474941971E+04  0.25500000000E-02 0.  1.
    5000001    1    1    2    0    0 -0.45296384403E+02 -0.30444371883E+02 -0.93461427766E+03  0.93936759058E+03  0.77000000000E+02 0.  0.
   -5000001    1    1    2    0    0  0.45296384403E+02  0.30444371883E+02 -0.17092013626E+04  0.17118051642E+04  0.77000000000E+02 0.  0.
<mgrwt>
<rscale>  0 0.19737233E+03</rscale>
<asrwt>0</asrwt>
<pdfrwt beam="1">  1        2 0.40730528E+00 0.19737233E+03</pdfrwt>
<pdfrwt beam="2">  1       -2 0.56593400E-03 0.19737233E+03</pdfrwt>
<totfact> 0.16051873E+04</totfact>
</mgrwt>
</event>
<event>
 4    1  0.6086918E-004  0.2421481E+03  0.7818608E-02  0.1118370E+00
         -2   -1    0    0    0  501 -0.00000000000E+00  0.00000000000E+00  0.34533390313E+02  0.34533390407E+02  0.25500000000E-02 0. -1.
          2   -1    0    0  501    0  0.00000000000E+00 -0.00000000000E+00 -0.42448572044E+03  0.42448572045E+03  0.25500000000E-02 0.  1.
    5000001    1    1    2    0    0  0.46913329558E+02 -0.57835059807E+02 -0.30194276305E+03  0.32038131467E+03  0.77000000000E+02 0.  0.
   -5000001    1    1    2    0    0 -0.46913329558E+02  0.57835059807E+02 -0.88009567076E+02  0.13863779618E+03  0.77000000000E+02 0.  0.
<mgrwt>
<rscale>  0 0.24214815E+03</rscale>
<asrwt>0</asrwt>
<pdfrwt beam="1">  1        2 0.65305492E-01 0.24214815E+03</pdfrwt>
<pdfrwt beam="2">  1       -2 0.53128296E-02 0.24214815E+03</pdfrwt>
<totfact> 0.13144713E+04</totfact>
</mgrwt>
</event>
<event>
 4    1  0.6086918E-004  0.3330765E+03  0.7818608E-02  0.1069784E+00
          2   -1    0    0  501    0  0.00000000000E+00  0.00000000000E+00  0.12764145919E+04  0.12764145919E+04  0.25500000000E-02 0.  1.
         -2   -1    0    0    0  501 -0.00000000000E+00 -0.00000000000E+00 -0.21728826110E+02  0.21728826260E+02  0.25500000000E-02 0. -1.
    5000001    1    1    2    0    0 -0.52238704087E+02 -0.13011651841E+03  0.80792489369E+03  0.82360841691E+03  0.77000000000E+02 0.  0.
   -5000001    1    1    2    0    0  0.52238704087E+02  0.13011651841E+03  0.44676087208E+03  0.47453500122E+03  0.77000000000E+02 0.  0.
<mgrwt>
<rscale>  0 0.33307651E+03</rscale>
<asrwt>0</asrwt>
<pdfrwt beam="1">  1        2 0.19637152E+00 0.33307651E+03</pdfrwt>
<pdfrwt beam="2">  1       -2 0.33428955E-02 0.33307651E+03</pdfrwt>
<totfact> 0.65356748E+03</totfact>
</mgrwt>
</event>
<event>
 4    1  0.6086918E-004  0.2512745E+03  0.7818608E-02  0.1112502E+00
          2   -1    0    0  501    0  0.00000000000E+00  0.00000000000E+00  0.53165209289E+03  0.53165209290E+03  0.25500000000E-02 0.  1.
         -2   -1    0    0    0  501 -0.00000000000E+00 -0.00000000000E+00 -0.29689941765E+02  0.29689941875E+02  0.25500000000E-02 0. -1.
    5000001    1    1    2    0    0 -0.87380494458E+01 -0.96781375440E+02  0.20559600906E+03  0.24008687403E+03  0.77000000000E+02 0.  0.
   -5000001    1    1    2    0    0  0.87380494458E+01  0.96781375440E+02  0.29636614207E+03  0.32125516075E+03  0.77000000000E+02 0.  0.
<mgrwt>
<rscale>  0 0.25127451E+03</rscale>
<asrwt>0</asrwt>
<pdfrwt beam="1">  1        2 0.81792621E-01 0.25127451E+03</pdfrwt>
<pdfrwt beam="2">  1       -2 0.45676839E-02 0.25127451E+03</pdfrwt>
<totfact> 0.12904186E+04</totfact>
</mgrwt>
</event>
<event>
 4    1  0.6086918E-004  0.1809308E+03  0.7818608E-02  0.1166905E+00
          2   -1    0    0  501    0  0.00000000000E+00  0.00000000000E+00  0.12503067046E+04  0.12503067046E+04  0.25500000000E-02 0.  1.
         -2   -1    0    0    0  501 -0.00000000000E+00 -0.00000000000E+00 -0.65455850128E+01  0.65455855095E+01  0.25500000000E-02 0. -1.
    5000001    1    1    2    0    0  0.37460928302E+02 -0.18592618525E+02  0.46562355939E+03  0.47379669234E+03  0.77000000000E+02 0.  0.
   -5000001    1    1    2    0    0 -0.37460928302E+02  0.18592618525E+02  0.77813756016E+03  0.78305559773E+03  0.77000000000E+02 0.  0.
<mgrwt>
<rscale>  0 0.18093081E+03</rscale>
<asrwt>0</asrwt>
<pdfrwt beam="1">  1        2 0.19235490E+00 0.18093081E+03</pdfrwt>
<pdfrwt beam="2">  1       -2 0.10070130E-02 0.18093081E+03</pdfrwt>
<totfact> 0.38353069E+04</totfact>
</mgrwt>
</event>
<event>
 4    1  0.6086918E-004  0.3352048E+03  0.7818608E-02  0.1068857E+00
          2   -1    0    0  501    0  0.00000000000E+00  0.00000000000E+00  0.19788371950E+04  0.19788371950E+04  0.25500000000E-02 0.  1.
         -2   -1    0    0    0  501 -0.00000000000E+00 -0.00000000000E+00 -0.14195490016E+02  0.14195490245E+02  0.25500000000E-02 0. -1.
    5000001    1    1    2    0    0 -0.83390692648E+02  0.12323966469E+03  0.10086042162E+04  0.10224252968E+04  0.77000000000E+02 0.  0.
   -5000001    1    1    2    0    0  0.83390692648E+02 -0.12323966469E+03  0.95603748883E+03  0.97060738850E+03  0.77000000000E+02 0.  0.
<mgrwt>
<rscale>  0 0.33520480E+03</rscale>
<asrwt>0</asrwt>
<pdfrwt beam="1">  1        2 0.30443630E+00 0.33520480E+03</pdfrwt>
<pdfrwt beam="2">  1       -2 0.21839229E-02 0.33520480E+03</pdfrwt>
<totfact> 0.51741400E+03</totfact>
</mgrwt>
</event>
<event>
 4    1  0.6086918E-004  0.1062455E+04  0.7818608E-02  0.9242578E-01
          2   -1    0    0  501    0  0.00000000000E+00  0.00000000000E+00  0.14721020312E+04  0.14721020312E+04  0.25500000000E-02 0.  1.
         -2   -1    0    0    0  501 -0.00000000000E+00 -0.00000000000E+00 -0.19170064649E+03  0.19170064651E+03  0.25500000000E-02 0. -1.
    5000001    1    1    2    0    0  0.22846454317E+03 -0.46986780712E+03  0.73018912300E+03  0.90115312739E+03  0.77000000000E+02 0.  0.
   -5000001    1    1    2    0    0 -0.22846454317E+03  0.46986780712E+03  0.55021226168E+03  0.76264955029E+03  0.77000000000E+02 0.  0.
<mgrwt>
<rscale>  0 0.10624555E+04</rscale>
<asrwt>0</asrwt>
<pdfrwt beam="1">  1        2 0.22647724E+00 0.10624555E+04</pdfrwt>
<pdfrwt beam="2">  1       -2 0.29492407E-01 0.10624555E+04</pdfrwt>
<totfact> 0.13853707E+02</totfact>
</mgrwt>
</event>
<event>
 4    1  0.6086918E-004  0.2111826E+03  0.7818608E-02  0.1140633E+00
         -2   -1    0    0    0  501 -0.00000000000E+00  0.00000000000E+00  0.43825410296E+02  0.43825410370E+02  0.25500000000E-02 0. -1.
          2   -1    0    0  501    0  0.00000000000E+00 -0.00000000000E+00 -0.25440764323E+03  0.25440764325E+03  0.25500000000E-02 0.  1.
    5000001    1    1    2    0    0  0.31591377347E+01  0.31242351148E+02 -0.13395149404E+02  0.84228823356E+02  0.77000000000E+02 0.  0.
   -5000001    1    1    2    0    0 -0.31591377347E+01 -0.31242351148E+02 -0.19718708353E+03  0.21400423026E+03  0.77000000000E+02 0.  0.
<mgrwt>
<rscale>  0 0.21118257E+03</rscale>
<asrwt>0</asrwt>
<pdfrwt beam="1">  1        2 0.39139637E-01 0.21118257E+03</pdfrwt>
<pdfrwt beam="2">  1       -2 0.67423710E-02 0.21118257E+03</pdfrwt>
<totfact> 0.15705965E+04</totfact>
</mgrwt>
</event>
<event>
 4    1  0.6086918E-004  0.2070433E+03  0.7818608E-02  0.1143929E+00
         -2   -1    0    0    0  501 -0.00000000000E+00  0.00000000000E+00  0.51754520710E+01  0.51754526992E+01  0.25500000000E-02 0. -1.
          2   -1    0    0  501    0  0.00000000000E+00 -0.00000000000E+00 -0.20706857677E+04  0.20706857677E+04  0.25500000000E-02 0.  1.
    5000001    1    1    2    0    0  0.11103844389E+02  0.57139753854E+02 -0.14078333126E+04  0.14111385059E+04  0.77000000000E+02 0.  0.
   -5000001    1    1    2    0    0 -0.11103844389E+02 -0.57139753854E+02 -0.65767700308E+03  0.66472271452E+03  0.77000000000E+02 0.  0.
<mgrwt>
<rscale>  0 0.20704333E+03</rscale>
<asrwt>0</asrwt>
<pdfrwt beam="1">  1        2 0.31856638E+00 0.20704333E+03</pdfrwt>
<pdfrwt beam="2">  1       -2 0.79622510E-03 0.20704333E+03</pdfrwt>
<totfact> 0.20042014E+04</totfact>
</mgrwt>
</event>
<event>
 4    1  0.6086918E-004  0.1855719E+03  0.7818608E-02  0.1162517E+00
          2   -1    0    0  501    0  0.00000000000E+00  0.00000000000E+00  0.20909484394E+02  0.20909484549E+02  0.25500000000E-02 0.  1.
         -2   -1    0    0    0  501 -0.00000000000E+00 -0.00000000000E+00 -0.41173793970E+03  0.41173793971E+03  0.25500000000E-02 0. -1.
    5000001    1    1    2    0    0  0.26671526355E+02 -0.36104929962E+02 -0.13527911935E+03  0.16200116178E+03  0.77000000000E+02 0.  0.
   -5000001    1    1    2    0    0 -0.26671526355E+02  0.36104929962E+02 -0.25554933596E+03  0.27064626248E+03  0.77000000000E+02 0.  0.
<mgrwt>
<rscale>  0 0.18557185E+03</rscale>
<asrwt>0</asrwt>
<pdfrwt beam="1">  1        2 0.32168441E-02 0.18557185E+03</pdfrwt>
<pdfrwt beam="2">  1       -2 0.63344292E-01 0.18557185E+03</pdfrwt>
<totfact> 0.65109660E+03</totfact>
</mgrwt>
</event>
<event>
 4    1  0.6086918E-004  0.2989153E+03  0.7818608E-02  0.1085784E+00
         -2   -1    0    0    0  501 -0.00000000000E+00  0.00000000000E+00  0.33467603309E+03  0.33467603310E+03  0.25500000000E-02 0. -1.
          2   -1    0    0  501    0  0.00000000000E+00 -0.00000000000E+00 -0.66743909986E+02  0.66743910035E+02  0.25500000000E-02 0.  1.
    5000001    1    1    2    0    0  0.12348318361E+03  0.33919441178E+02  0.12972746370E+03  0.19788087316E+03  0.77000000000E+02 0.  0.
   -5000001    1    1    2    0    0 -0.12348318361E+03 -0.33919441178E+02  0.13820465940E+03  0.20353906997E+03  0.77000000000E+02 0.  0.
<mgrwt>
<rscale>  0 0.29891529E+03</rscale>
<asrwt>0</asrwt>
<pdfrwt beam="1">  1        2 0.10268294E-01 0.29891529E+03</pdfrwt>
<pdfrwt beam="2">  1       -2 0.51488620E-01 0.29891529E+03</pdfrwt>
<totfact> 0.22449729E+03</totfact>
</mgrwt>
</event>
<event>
 4    1  0.6086918E-004  0.2024109E+03  0.7818608E-02  0.1147721E+00
          2   -1    0    0  501    0  0.00000000000E+00  0.00000000000E+00  0.19500689744E+03  0.19500689745E+03  0.25500000000E-02 0.  1.
         -2   -1    0    0    0  501 -0.00000000000E+00 -0.00000000000E+00 -0.52523990235E+02  0.52523990297E+02  0.25500000000E-02 0. -1.
    5000001    1    1    2    0    0  0.72063863536E+01 -0.59574027983E+02  0.38597611048E+02  0.10497510368E+03  0.77000000000E+02 0.  0.
   -5000001    1    1    2    0    0 -0.72063863536E+01  0.59574027983E+02  0.10388529615E+03  0.14255578407E+03  0.77000000000E+02 0.  0.
<mgrwt>
<rscale>  0 0.20241087E+03</rscale>
<asrwt>0</asrwt>
<pdfrwt beam="1">  1        2 0.30001061E-01 0.20241087E+03</pdfrwt>
<pdfrwt beam="2">  1       -2 0.80806138E-02 0.20241087E+03</pdfrwt>
<totfact> 0.15781452E+04</totfact>
</mgrwt>
</event>
<event>
 4    1  0.6086918E-004  0.2910412E+03  0.7818608E-02  0.1089807E+00
         -2   -1    0    0    0  501 -0.00000000000E+00  0.00000000000E+00  0.83361295891E+01  0.83361299791E+01  0.25500000000E-02 0. -1.
          2   -1    0    0  501    0  0.00000000000E+00 -0.00000000000E+00 -0.25402975220E+04  0.25402975220E+04  0.25500000000E-02 0.  1.
    5000001    1    1    2    0    0 -0.50856507743E+02 -0.84201037222E+02 -0.19195948533E+04  0.19236552705E+04  0.77000000000E+02 0.  0.
   -5000001    1    1    2    0    0  0.50856507743E+02  0.84201037222E+02 -0.61236653912E+03  0.62497838146E+03  0.77000000000E+02 0.  0.
<mgrwt>
<rscale>  0 0.29104123E+03</rscale>
<asrwt>0</asrwt>
<pdfrwt beam="1">  1        2 0.39081439E+00 0.29104123E+03</pdfrwt>
<pdfrwt beam="2">  1       -2 0.12824835E-02 0.29104123E+03</pdfrwt>
<totfact> 0.56528460E+03</totfact>
</mgrwt>
</event>
<event>
 4    1  0.6086918E-004  0.2705964E+03  0.7818608E-02  0.1100939E+00
          2   -1    0    0  501    0  0.00000000000E+00  0.00000000000E+00  0.73782886224E+03  0.73782886224E+03  0.25500000000E-02 0.  1.
         -2   -1    0    0    0  501 -0.00000000000E+00 -0.00000000000E+00 -0.24810087130E+02  0.24810087261E+02  0.25500000000E-02 0. -1.
    5000001    1    1    2    0    0 -0.54670254205E+02 -0.23566565807E+02  0.62138127210E+03  0.62895779273E+03  0.77000000000E+02 0.  0.
   -5000001    1    1    2    0    0  0.54670254205E+02  0.23566565807E+02  0.91637503006E+02  0.13368115677E+03  0.77000000000E+02 0.  0.
<mgrwt>
<rscale>  0 0.27059637E+03</rscale>
<asrwt>0</asrwt>
<pdfrwt beam="1">  1        2 0.11351214E+00 0.27059637E+03</pdfrwt>
<pdfrwt beam="2">  1       -2 0.38169361E-02 0.27059637E+03</pdfrwt>
<totfact> 0.11539584E+04</totfact>
</mgrwt>
</event>
<event>
 4    1  0.6086918E-004  0.2761959E+03  0.7818608E-02  0.1097785E+00
         -2   -1    0    0    0  501 -0.00000000000E+00  0.00000000000E+00  0.68836295550E+02  0.68836295597E+02  0.25500000000E-02 0. -1.
          2   -1    0    0  501    0  0.00000000000E+00 -0.00000000000E+00 -0.27704922935E+03  0.27704922936E+03  0.25500000000E-02 0.  1.
    5000001    1    1    2    0    0  0.91999056864E+02 -0.46248351442E+02 -0.41000168448E+02  0.13495462307E+03  0.77000000000E+02 0.  0.
   -5000001    1    1    2    0    0 -0.91999056864E+02  0.46248351442E+02 -0.16721276535E+03  0.21093090189E+03  0.77000000000E+02 0.  0.
<mgrwt>
<rscale>  0 0.27619589E+03</rscale>
<asrwt>0</asrwt>
<pdfrwt beam="1">  1        2 0.42622958E-01 0.27619589E+03</pdfrwt>
<pdfrwt beam="2">  1       -2 0.10590200E-01 0.27619589E+03</pdfrwt>
<totfact> 0.71635407E+03</totfact>
</mgrwt>
</event>
<event>
 4    1  0.6086918E-004  0.1829395E+03  0.7818608E-02  0.1164988E+00
         -2   -1    0    0    0  501 -0.00000000000E+00  0.00000000000E+00  0.53902345462E+01  0.53902351494E+01  0.25500000000E-02 0. -1.
          2   -1    0    0  501    0  0.00000000000E+00 -0.00000000000E+00 -0.15521994065E+04  0.15521994065E+04  0.25500000000E-02 0.  1.
    5000001    1    1    2    0    0  0.34719361773E+02  0.24927365419E+02 -0.56296149216E+03  0.56980825660E+03  0.77000000000E+02 0.  0.
   -5000001    1    1    2    0    0 -0.34719361773E+02 -0.24927365419E+02 -0.98384767978E+03  0.98778138504E+03  0.77000000000E+02 0.  0.
<mgrwt>
<rscale>  0 0.18293955E+03</rscale>
<asrwt>0</asrwt>
<pdfrwt beam="1">  1        2 0.23879955E+00 0.18293955E+03</pdfrwt>
<pdfrwt beam="2">  1       -2 0.82926814E-03 0.18293955E+03</pdfrwt>
<totfact> 0.34957321E+04</totfact>
</mgrwt>
</event>
<event>
 4    1  0.6086918E-004  0.2125702E+03  0.7818608E-02  0.1139547E+00
         -2   -1    0    0    0  501 -0.00000000000E+00  0.00000000000E+00  0.54988996225E+02  0.54988996284E+02  0.25500000000E-02 0. -1.
          2   -1    0    0  501    0  0.00000000000E+00 -0.00000000000E+00 -0.20543242816E+03  0.20543242817E+03  0.25500000000E-02 0.  1.
    5000001    1    1    2    0    0  0.52083661666E+02  0.32391611174E+02 -0.26131739072E+02  0.10185181429E+03  0.77000000000E+02 0.  0.
   -5000001    1    1    2    0    0 -0.52083661666E+02 -0.32391611174E+02 -0.12431169286E+03  0.15856961017E+03  0.77000000000E+02 0.  0.
<mgrwt>
<rscale>  0 0.21257021E+03</rscale>
<asrwt>0</asrwt>
<pdfrwt beam="1">  1        2 0.31604988E-01 0.21257021E+03</pdfrwt>
<pdfrwt beam="2">  1       -2 0.84598457E-02 0.21257021E+03</pdfrwt>
<totfact> 0.13927062E+04</totfact>
</mgrwt>
</event>
<event>
 4    1  0.6086918E-004  0.1895686E+03  0.7818608E-02  0.1158851E+00
         -2   -1    0    0    0  501 -0.00000000000E+00  0.00000000000E+00  0.10740634515E+02  0.10740634818E+02  0.25500000000E-02 0. -1.
          2   -1    0    0  501    0  0.00000000000E+00 -0.00000000000E+00 -0.83645515007E+03  0.83645515007E+03  0.25500000000E-02 0.  1.
    5000001    1    1    2    0    0 -0.37001740094E+02 -0.99192249964E+01 -0.59092274137E+03  0.59714839534E+03  0.77000000000E+02 0.  0.
   -5000001    1    1    2    0    0  0.37001740094E+02  0.99192249964E+01 -0.23479177419E+03  0.25004738955E+03  0.77000000000E+02 0.  0.
<mgrwt>
<rscale>  0 0.18956855E+03</rscale>
<asrwt>0</asrwt>
<pdfrwt beam="1">  1        2 0.12868536E+00 0.18956855E+03</pdfrwt>
<pdfrwt beam="2">  1       -2 0.16524060E-02 0.18956855E+03</pdfrwt>
<totfact> 0.33239899E+04</totfact>
</mgrwt>
</event>
<event>
 4    1  0.6086918E-004  0.1760247E+03  0.7818608E-02  0.1171707E+00
         -2   -1    0    0    0  501 -0.00000000000E+00  0.00000000000E+00  0.73572093615E+02  0.73572093659E+02  0.25500000000E-02 0. -1.
          2   -1    0    0  501    0  0.00000000000E+00 -0.00000000000E+00 -0.10528688613E+03  0.10528688616E+03  0.25500000000E-02 0.  1.
    5000001    1    1    2    0    0 -0.34785978986E+02 -0.22093894559E+02 -0.47743361371E+01  0.87464271542E+02  0.77000000000E+02 0.  0.
   -5000001    1    1    2    0    0  0.34785978986E+02  0.22093894559E+02 -0.26940456373E+02  0.91394708274E+02  0.77000000000E+02 0.  0.
<mgrwt>
<rscale>  0 0.17602473E+03</rscale>
<asrwt>0</asrwt>
<pdfrwt beam="1">  1        2 0.16197982E-01 0.17602473E+03</pdfrwt>
<pdfrwt beam="2">  1       -2 0.11318784E-01 0.17602473E+03</pdfrwt>
<totfact> 0.18388443E+04</totfact>
</mgrwt>
</event>
<event>
 4    1  0.6086918E-004  0.3080504E+03  0.7818608E-02  0.1081284E+00
          2   -1    0    0  501    0  0.00000000000E+00  0.00000000000E+00  0.53182442924E+03  0.53182442924E+03  0.25500000000E-02 0.  1.
         -2   -1    0    0    0  501 -0.00000000000E+00 -0.00000000000E+00 -0.44608267473E+02  0.44608267546E+02  0.25500000000E-02 0. -1.
    5000001    1    1    2    0    0  0.97500301169E+02  0.24844678186E+02  0.40750033739E+03  0.42674241849E+03  0.77000000000E+02 0.  0.
   -5000001    1    1    2    0    0 -0.97500301169E+02 -0.24844678186E+02  0.79715824371E+02  0.14969027830E+03  0.77000000000E+02 0.  0.
<mgrwt>
<rscale>  0 0.30805043E+03</rscale>
<asrwt>0</asrwt>
<pdfrwt beam="1">  1        2 0.81819145E-01 0.30805043E+03</pdfrwt>
<pdfrwt beam="2">  1       -2 0.68628102E-02 0.30805043E+03</pdfrwt>
<totfact> 0.69726626E+03</totfact>
</mgrwt>
</event>
<event>
 4    1  0.6086918E-004  0.4378208E+03  0.7818608E-02  0.1031418E+00
          2   -1    0    0  501    0  0.00000000000E+00  0.00000000000E+00  0.80362386979E+03  0.80362386980E+03  0.25500000000E-02 0.  1.
         -2   -1    0    0    0  501 -0.00000000000E+00 -0.00000000000E+00 -0.59632084524E+02  0.59632084579E+02  0.25500000000E-02 0. -1.
    5000001    1    1    2    0    0 -0.16510411344E+03  0.11771718584E+03  0.43035527776E+03  0.48192465097E+03  0.77000000000E+02 0.  0.
   -5000001    1    1    2    0    0  0.16510411344E+03 -0.11771718584E+03  0.31363650751E+03  0.38133130341E+03  0.77000000000E+02 0.  0.
<mgrwt>
<rscale>  0 0.43782082E+03</rscale>
<asrwt>0</asrwt>
<pdfrwt beam="1">  1        2 0.12363444E+00 0.43782082E+03</pdfrwt>
<pdfrwt beam="2">  1       -2 0.91741670E-02 0.43782082E+03</pdfrwt>
<totfact> 0.26975144E+03</totfact>
</mgrwt>
</event>
<event>
 4    1  0.6086918E-004  0.3211705E+03  0.7818608E-02  0.1075112E+00
         -2   -1    0    0    0  501 -0.00000000000E+00  0.00000000000E+00  0.11257713039E+02  0.11257713328E+02  0.25500000000E-02 0. -1.
          2   -1    0    0  501    0  0.00000000000E+00 -0.00000000000E+00 -0.22906626802E+04  0.22906626802E+04  0.25500000000E-02 0.  1.
    5000001    1    1    2    0    0 -0.11465934807E+03  0.80120318211E+02 -0.10171037894E+04  0.10295606587E+04  0.77000000000E+02 0.  0.
   -5000001    1    1    2    0    0  0.11465934807E+03 -0.80120318211E+02 -0.12623011778E+04  0.12723597349E+04  0.77000000000E+02 0.  0.
<mgrwt>
<rscale>  0 0.32117051E+03</rscale>
<asrwt>0</asrwt>
<pdfrwt beam="1">  1        2 0.35240927E+00 0.32117051E+03</pdfrwt>
<pdfrwt beam="2">  1       -2 0.17319577E-02 0.32117051E+03</pdfrwt>
<totfact> 0.49713606E+03</totfact>
</mgrwt>
</event>
<event>
 4    1  0.6086918E-004  0.2567559E+03  0.7818608E-02  0.1109108E+00
          2   -1    0    0  501    0  0.00000000000E+00  0.00000000000E+00  0.54781846005E+03  0.54781846006E+03  0.25500000000E-02 0.  1.
         -2   -1    0    0    0  501 -0.00000000000E+00 -0.00000000000E+00 -0.30084605619E+02  0.30084605727E+02  0.25500000000E-02 0. -1.
    5000001    1    1    2    0    0  0.46186300544E+02 -0.49919119358E+02  0.85588301664E+02  0.13371406140E+03  0.77000000000E+02 0.  0.
   -5000001    1    1    2    0    0 -0.46186300544E+02  0.49919119358E+02  0.43214555277E+03  0.44418900438E+03  0.77000000000E+02 0.  0.
<mgrwt>
<rscale>  0 0.25675593E+03</rscale>
<asrwt>0</asrwt>
<pdfrwt beam="1">  1        2 0.84279757E-01 0.25675593E+03</pdfrwt>
<pdfrwt beam="2">  1       -2 0.46284012E-02 0.25675593E+03</pdfrwt>
<totfact> 0.12239480E+04</totfact>
</mgrwt>
</event>
<event>
 4    1  0.6086918E-004  0.2732403E+03  0.7818608E-02  0.1099439E+00
          2   -1    0    0  501    0  0.00000000000E+00  0.00000000000E+00  0.37915324878E+03  0.37915324879E+03  0.25500000000E-02 0.  1.
         -2   -1    0    0    0  501 -0.00000000000E+00 -0.00000000000E+00 -0.49228272744E+02  0.49228272810E+02  0.25500000000E-02 0. -1.
    5000001    1    1    2    0    0 -0.36942153544E+01  0.10920782665E+03  0.12072812844E+03  0.18012295141E+03  0.77000000000E+02 0.  0.
   -5000001    1    1    2    0    0  0.36942153544E+01 -0.10920782665E+03  0.20919684760E+03  0.24825857019E+03  0.77000000000E+02 0.  0.
<mgrwt>
<rscale>  0 0.27324026E+03</rscale>
<asrwt>0</asrwt>
<pdfrwt beam="1">  1        2 0.58331269E-01 0.27324026E+03</pdfrwt>
<pdfrwt beam="2">  1       -2 0.75735805E-02 0.27324026E+03</pdfrwt>
<totfact> 0.86609102E+03</totfact>
</mgrwt>
</event>
<event>
 4    1  0.6086918E-004  0.1802670E+03  0.7818608E-02  0.1167545E+00
         -2   -1    0    0    0  501 -0.00000000000E+00  0.00000000000E+00  0.46018417219E+01  0.46018424284E+01  0.25500000000E-02 0. -1.
          2   -1    0    0  501    0  0.00000000000E+00 -0.00000000000E+00 -0.17653898452E+04  0.17653898452E+04  0.25500000000E-02 0.  1.
    5000001    1    1    2    0    0  0.41350400808E+02 -0.19785656736E+02 -0.97544686617E+03  0.97955444800E+03  0.77000000000E+02 0.  0.
   -5000001    1    1    2    0    0 -0.41350400808E+02  0.19785656736E+02 -0.78534113733E+03  0.79043723966E+03  0.77000000000E+02 0.  0.
<mgrwt>
<rscale>  0 0.18026697E+03</rscale>
<asrwt>0</asrwt>
<pdfrwt beam="1">  1        2 0.27159790E+00 0.18026697E+03</pdfrwt>
<pdfrwt beam="2">  1       -2 0.70797711E-03 0.18026697E+03</pdfrwt>
<totfact> 0.33941722E+04</totfact>
</mgrwt>
</event>
<event>
 4    1  0.6086918E-004  0.2721855E+03  0.7818608E-02  0.1100035E+00
          2   -1    0    0  501    0  0.00000000000E+00  0.00000000000E+00  0.67839942324E+02  0.67839942372E+02  0.25500000000E-02 0.  1.
         -2   -1    0    0    0  501 -0.00000000000E+00 -0.00000000000E+00 -0.27301373298E+03  0.27301373299E+03  0.25500000000E-02 0. -1.
    5000001    1    1    2    0    0  0.97788848594E+01  0.11135481376E+03 -0.90271470092E+02  0.16301367872E+03  0.77000000000E+02 0.  0.
   -5000001    1    1    2    0    0 -0.97788848594E+01 -0.11135481376E+03 -0.11490232056E+03  0.17783999665E+03  0.77000000000E+02 0.  0.
<mgrwt>
<rscale>  0 0.27218549E+03</rscale>
<asrwt>0</asrwt>
<pdfrwt beam="1">  1        2 0.10436914E-01 0.27218549E+03</pdfrwt>
<pdfrwt beam="2">  1       -2 0.42002112E-01 0.27218549E+03</pdfrwt>
<totfact> 0.32767135E+03</totfact>
</mgrwt>
</event>
<event>
 4    1  0.6086918E-004  0.3142682E+03  0.7818608E-02  0.1078318E+00
         -2   -1    0    0    0  501 -0.00000000000E+00  0.00000000000E+00  0.81162151833E+01  0.81162155839E+01  0.25500000000E-02 0. -1.
          2   -1    0    0  501    0  0.00000000000E+00 -0.00000000000E+00 -0.30421972867E+04  0.30421972867E+04  0.25500000000E-02 0.  1.
    5000001    1    1    2    0    0  0.64611586413E+02  0.70120756651E+02 -0.56255441454E+03  0.57574998648E+03  0.77000000000E+02 0.  0.
   -5000001    1    1    2    0    0 -0.64611586413E+02 -0.70120756651E+02 -0.24715266570E+04  0.24745635158E+04  0.77000000000E+02 0.  0.
<mgrwt>
<rscale>  0 0.31426822E+03</rscale>
<asrwt>0</asrwt>
<pdfrwt beam="1">  1        2 0.46802944E+00 0.31426822E+03</pdfrwt>
<pdfrwt beam="2">  1       -2 0.12486509E-02 0.31426822E+03</pdfrwt>
<totfact> 0.30226052E+03</totfact>
</mgrwt>
</event>
<event>
 4    1  0.6086918E-004  0.5027196E+03  0.7818608E-02  0.1013071E+00
         -2   -1    0    0    0  501 -0.00000000000E+00  0.00000000000E+00  0.49334982274E+02  0.49334982340E+02  0.25500000000E-02 0. -1.
          2   -1    0    0  501    0  0.00000000000E+00 -0.00000000000E+00 -0.12806682421E+04  0.12806682421E+04  0.25500000000E-02 0.  1.
    5000001    1    1    2    0    0  0.95328486511E+02 -0.20772223177E+03 -0.80305210261E+03  0.83848537579E+03  0.77000000000E+02 0.  0.
   -5000001    1    1    2    0    0 -0.95328486511E+02  0.20772223177E+03 -0.42828115722E+03  0.49151784865E+03  0.77000000000E+02 0.  0.
<mgrwt>
<rscale>  0 0.50271958E+03</rscale>
<asrwt>0</asrwt>
<pdfrwt beam="1">  1        2 0.19702586E+00 0.50271958E+03</pdfrwt>
<pdfrwt beam="2">  1       -2 0.75899983E-02 0.50271958E+03</pdfrwt>
<totfact> 0.18398767E+03</totfact>
</mgrwt>
</event>
<event>
 4    1  0.6086918E-004  0.2387596E+03  0.7818608E-02  0.1120622E+00
         -2   -1    0    0    0  501 -0.00000000000E+00  0.00000000000E+00  0.10701713294E+02  0.10701713598E+02  0.25500000000E-02 0. -1.
          2   -1    0    0  501    0  0.00000000000E+00 -0.00000000000E+00 -0.13317058497E+04  0.13317058497E+04  0.25500000000E-02 0.  1.
    5000001    1    1    2    0    0  0.84032385642E+02 -0.23929547348E+02 -0.51297698093E+03  0.52603084324E+03  0.77000000000E+02 0.  0.
   -5000001    1    1    2    0    0 -0.84032385642E+02  0.23929547348E+02 -0.80802715543E+03  0.81637672002E+03  0.77000000000E+02 0.  0.
<mgrwt>
<rscale>  0 0.23875958E+03</rscale>
<asrwt>0</asrwt>
<pdfrwt beam="1">  1        2 0.20487769E+00 0.23875958E+03</pdfrwt>
<pdfrwt beam="2">  1       -2 0.16464185E-02 0.23875958E+03</pdfrwt>
<totfact> 0.17227098E+04</totfact>
</mgrwt>
</event>
<event>
 4    1  0.6086918E-004  0.2311862E+03  0.7818608E-02  0.1125808E+00
          2   -1    0    0  501    0  0.00000000000E+00  0.00000000000E+00  0.30904840986E+03  0.30904840987E+03  0.25500000000E-02 0.  1.
         -2   -1    0    0    0  501 -0.00000000000E+00 -0.00000000000E+00 -0.43235201345E+02  0.43235201420E+02  0.25500000000E-02 0. -1.
    5000001    1    1    2    0    0 -0.28434206961E+02  0.79136101786E+02  0.16188876881E+03  0.19801010125E+03  0.77000000000E+02 0.  0.
   -5000001    1    1    2    0    0  0.28434206961E+02 -0.79136101786E+02  0.10392443971E+03  0.15427351004E+03  0.77000000000E+02 0.  0.
<mgrwt>
<rscale>  0 0.23118625E+03</rscale>
<asrwt>0</asrwt>
<pdfrwt beam="1">  1        2 0.47545911E-01 0.23118625E+03</pdfrwt>
<pdfrwt beam="2">  1       -2 0.66515692E-02 0.23118625E+03</pdfrwt>
<totfact> 0.13092114E+04</totfact>
</mgrwt>
</event>
<event>
 4    1  0.6086918E-004  0.3174081E+03  0.7818608E-02  0.1076848E+00
         -2   -1    0    0    0  501 -0.00000000000E+00  0.00000000000E+00  0.10411484159E+03  0.10411484162E+03  0.25500000000E-02 0. -1.
          2   -1    0    0  501    0  0.00000000000E+00 -0.00000000000E+00 -0.24191529137E+03  0.24191529139E+03  0.25500000000E-02 0.  1.
    5000001    1    1    2    0    0  0.13657270265E+03 -0.54885300494E+01 -0.95058620037E+02  0.18343218996E+03  0.77000000000E+02 0.  0.
   -5000001    1    1    2    0    0 -0.13657270265E+03  0.54885300494E+01 -0.42741829746E+02  0.16259794304E+03  0.77000000000E+02 0.  0.
<mgrwt>
<rscale>  0 0.31740808E+03</rscale>
<asrwt>0</asrwt>
<pdfrwt beam="1">  1        2 0.37217737E-01 0.31740808E+03</pdfrwt>
<pdfrwt beam="2">  1       -2 0.16017668E-01 0.31740808E+03</pdfrwt>
<totfact> 0.42409474E+03</totfact>
</mgrwt>
</event>
<event>
 4    1  0.6086918E-004  0.3214749E+03  0.7818608E-02  0.1074972E+00
         -2   -1    0    0    0  501 -0.00000000000E+00  0.00000000000E+00  0.11750074678E+03  0.11750074681E+03  0.25500000000E-02 0.  1.
          2   -1    0    0  501    0  0.00000000000E+00 -0.00000000000E+00 -0.21988397783E+03  0.21988397785E+03  0.25500000000E-02 0. -1.
    5000001    1    1    2    0    0 -0.58767015172E+02  0.12256218222E+03 -0.11470379583E+02  0.15663850162E+03  0.77000000000E+02 0.  0.
   -5000001    1    1    2    0    0  0.58767015172E+02 -0.12256218222E+03 -0.90912851467E+02  0.18074622304E+03  0.77000000000E+02 0.  0.
<mgrwt>
<rscale>  0 0.32147492E+03</rscale>
<asrwt>0</asrwt>
<pdfrwt beam="1">  1        2 0.33828304E-01 0.32147492E+03</pdfrwt>
<pdfrwt beam="2">  1       -2 0.18077038E-01 0.32147492E+03</pdfrwt>
<totfact> 0.38413301E+03</totfact>
</mgrwt>
</event>
<event>
 4    1  0.6086918E-004  0.1790215E+03  0.7818608E-02  0.1168753E+00
         -2   -1    0    0    0  501 -0.00000000000E+00  0.00000000000E+00  0.32279720286E+01  0.32279730358E+01  0.25500000000E-02 0. -1.
          2   -1    0    0  501    0  0.00000000000E+00 -0.00000000000E+00 -0.24821062038E+04  0.24821062038E+04  0.25500000000E-02 0.  1.
    5000001    1    1    2    0    0 -0.38274407112E+02 -0.22536068222E+02 -0.13852860930E+04  0.13881352110E+04  0.77000000000E+02 0.  0.
   -5000001    1    1    2    0    0  0.38274407112E+02  0.22536068222E+02 -0.10935921388E+04  0.10971989659E+04  0.77000000000E+02 0.  0.
<mgrwt>
<rscale>  0 0.17902146E+03</rscale>
<asrwt>0</asrwt>
<pdfrwt beam="1">  1        2 0.38186097E+00 0.17902146E+03</pdfrwt>
<pdfrwt beam="2">  1       -2 0.49661314E-03 0.17902146E+03</pdfrwt>
<totfact> 0.23743319E+04</totfact>
</mgrwt>
</event>
<event>
 4    1  0.6086918E-004  0.3433580E+03  0.7818608E-02  0.1065375E+00
          2   -1    0    0  501    0  0.00000000000E+00  0.00000000000E+00  0.95571063598E+03  0.95571063598E+03  0.25500000000E-02 0.  1.
         -2   -1    0    0    0  501 -0.00000000000E+00 -0.00000000000E+00 -0.30839549205E+02  0.30839549311E+02  0.25500000000E-02 0. -1.
    5000001    1    1    2    0    0 -0.12649415556E+03  0.16363486160E+02  0.21734712285E+03  0.26350959543E+03  0.77000000000E+02 0.  0.
   -5000001    1    1    2    0    0  0.12649415556E+03 -0.16363486160E+02  0.70752396392E+03  0.72304058986E+03  0.77000000000E+02 0.  0.
<mgrwt>
<rscale>  0 0.34335804E+03</rscale>
<asrwt>0</asrwt>
<pdfrwt beam="1">  1        2 0.14703240E+00 0.34335804E+03</pdfrwt>
<pdfrwt beam="2">  1       -2 0.47445462E-02 0.34335804E+03</pdfrwt>
<totfact> 0.59585224E+03</totfact>
</mgrwt>
</event>
<event>
 4    1  0.6086918E-004  0.2670446E+03  0.7818608E-02  0.1102983E+00
          2   -1    0    0  501    0  0.00000000000E+00  0.00000000000E+00  0.51778898871E+02  0.51778898934E+02  0.25500000000E-02 0.  1.
         -2   -1    0    0    0  501 -0.00000000000E+00 -0.00000000000E+00 -0.34431419872E+03  0.34431419873E+03  0.25500000000E-02 0. -1.
    5000001    1    1    2    0    0 -0.44422644160E+02 -0.96215629715E+02 -0.18461442317E+03  0.22636763010E+03  0.77000000000E+02 0.  0.
   -5000001    1    1    2    0    0  0.44422644160E+02  0.96215629715E+02 -0.10792087668E+03  0.16972546756E+03  0.77000000000E+02 0.  0.
<mgrwt>
<rscale>  0 0.26704464E+03</rscale>
<asrwt>0</asrwt>
<pdfrwt beam="1">  1        2 0.79659847E-02 0.26704464E+03</pdfrwt>
<pdfrwt beam="2">  1       -2 0.52971414E-01 0.26704464E+03</pdfrwt>
<totfact> 0.29081404E+03</totfact>
</mgrwt>
</event>
<event>
 4    1  0.6086918E-004  0.5328044E+03  0.7818608E-02  0.1005554E+00
         -2   -1    0    0    0  501 -0.00000000000E+00  0.00000000000E+00  0.27241565701E+03  0.27241565702E+03  0.25500000000E-02 0. -1.
          2   -1    0    0  501    0  0.00000000000E+00 -0.00000000000E+00 -0.26052149374E+03  0.26052149376E+03  0.25500000000E-02 0.  1.
    5000001    1    1    2    0    0 -0.25264976899E+03  0.30378336191E+02 -0.10980042431E+02  0.26609079355E+03  0.77000000000E+02 0.  0.
   -5000001    1    1    2    0    0  0.25264976899E+03 -0.30378336191E+02  0.22874205693E+02  0.26684635723E+03  0.77000000000E+02 0.  0.
<mgrwt>
<rscale>  0 0.53280441E+03</rscale>
<asrwt>0</asrwt>
<pdfrwt beam="1">  1        2 0.40080230E-01 0.53280441E+03</pdfrwt>
<pdfrwt beam="2">  1       -2 0.41910101E-01 0.53280441E+03</pdfrwt>
<totfact> 0.69724992E+02</totfact>
</mgrwt>
</event>
<event>
 4    1  0.6086918E-004  0.1781046E+03  0.7818608E-02  0.1169650E+00
         -2   -1    0    0    0  501 -0.00000000000E+00  0.00000000000E+00  0.62650490773E+01  0.62650495963E+01  0.25500000000E-02 0. -1.
          2   -1    0    0  501    0  0.00000000000E+00 -0.00000000000E+00 -0.12658018455E+04  0.12658018455E+04  0.25500000000E-02 0.  1.
    5000001    1    1    2    0    0  0.12267521839E+02  0.27458173336E+02 -0.39322438707E+03  0.40181943951E+03  0.77000000000E+02 0.  0.
   -5000001    1    1    2    0    0 -0.12267521839E+02 -0.27458173336E+02 -0.86631240938E+03  0.87024745563E+03  0.77000000000E+02 0.  0.
<mgrwt>
<rscale>  0 0.17810459E+03</rscale>
<asrwt>0</asrwt>
<pdfrwt beam="1">  1        2 0.19473854E+00 0.17810459E+03</pdfrwt>
<pdfrwt beam="2">  1       -2 0.96385475E-03 0.17810459E+03</pdfrwt>
<totfact> 0.40007261E+04</totfact>
</mgrwt>
</event>
<event>
 4    1  0.6086918E-004  0.3052933E+03  0.7818608E-02  0.1082624E+00
         -2   -1    0    0    0  501 -0.00000000000E+00  0.00000000000E+00  0.36908212369E+02  0.36908212457E+02  0.25500000000E-02 0. -1.
          2   -1    0    0  501    0  0.00000000000E+00 -0.00000000000E+00 -0.63132287518E+03  0.63132287518E+03  0.25500000000E-02 0.  1.
    5000001    1    1    2    0    0 -0.34942216634E+02 -0.86817386412E+02 -0.50035242722E+03  0.51482013219E+03  0.77000000000E+02 0.  0.
   -5000001    1    1    2    0    0  0.34942216634E+02  0.86817386412E+02 -0.94062235588E+02  0.15341095545E+03  0.77000000000E+02 0.  0.
<mgrwt>
<rscale>  0 0.30529329E+03</rscale>
<asrwt>0</asrwt>
<pdfrwt beam="1">  1        2 0.97126588E-01 0.30529329E+03</pdfrwt>
<pdfrwt beam="2">  1       -2 0.56781870E-02 0.30529329E+03</pdfrwt>
<totfact> 0.76558785E+03</totfact>
</mgrwt>
</event>
<event>
 4    1  0.6086918E-004  0.2410459E+03  0.7818608E-02  0.1119098E+00
          2   -1    0    0  501    0  0.00000000000E+00  0.00000000000E+00  0.38149745979E+03  0.38149745980E+03  0.25500000000E-02 0. -1.
         -2   -1    0    0    0  501 -0.00000000000E+00 -0.00000000000E+00 -0.38075711428E+02  0.38075711513E+02  0.25500000000E-02 0.  1.
    5000001    1    1    2    0    0  0.21256485697E+02 -0.89202669451E+02  0.19556665181E+03  0.22931260262E+03  0.77000000000E+02 0.  0.
   -5000001    1    1    2    0    0 -0.21256485697E+02  0.89202669451E+02  0.14785509655E+03  0.19026056869E+03  0.77000000000E+02 0.  0.
<mgrwt>
<rscale>  0 0.24104595E+03</rscale>
<asrwt>0</asrwt>
<pdfrwt beam="1">  1        2 0.58691920E-01 0.24104595E+03</pdfrwt>
<pdfrwt beam="2">  1       -2 0.58578015E-02 0.24104595E+03</pdfrwt>
<totfact> 0.12713924E+04</totfact>
</mgrwt>
</event>
<event>
 4    1  0.6086918E-004  0.2264399E+03  0.7818608E-02  0.1129171E+00
         -2   -1    0    0    0  501 -0.00000000000E+00  0.00000000000E+00  0.29353231927E+02  0.29353232037E+02  0.25500000000E-02 0. -1.
          2   -1    0    0  501    0  0.00000000000E+00 -0.00000000000E+00 -0.43670668842E+03  0.43670668843E+03  0.25500000000E-02 0.  1.
    5000001    1    1    2    0    0 -0.80330581104E+02 -0.25708371822E+01 -0.24636361025E+03  0.27033986003E+03  0.77000000000E+02 0.  0.
   -5000001    1    1    2    0    0  0.80330581104E+02  0.25708371822E+01 -0.16098984625E+03  0.19572006044E+03  0.77000000000E+02 0.  0.
<mgrwt>
<rscale>  0 0.22643986E+03</rscale>
<asrwt>0</asrwt>
<pdfrwt beam="1">  1        2 0.67185640E-01 0.22643986E+03</pdfrwt>
<pdfrwt beam="2">  1       -2 0.45158822E-02 0.22643986E+03</pdfrwt>
<totfact> 0.16239213E+04</totfact>
</mgrwt>
</event>
<event>
 4    1  0.6086918E-004  0.2472074E+03  0.7818608E-02  0.1115082E+00
         -2   -1    0    0    0  501 -0.00000000000E+00  0.00000000000E+00  0.12880567759E+03  0.12880567761E+03  0.25500000000E-02 0. -1.
          2   -1    0    0  501    0  0.00000000000E+00 -0.00000000000E+00 -0.11861185756E+03  0.11861185759E+03  0.25500000000E-02 0.  1.
    5000001    1    1    2    0    0  0.79225873820E+02  0.52124917998E+02  0.23957938664E+02  0.12448585857E+03  0.77000000000E+02 0.  0.
   -5000001    1    1    2    0    0 -0.79225873820E+02 -0.52124917998E+02 -0.13764118639E+02  0.12293167664E+03  0.77000000000E+02 0.  0.
<mgrwt>
<rscale>  0 0.24720745E+03</rscale>
<asrwt>0</asrwt>
<pdfrwt beam="1">  1        2 0.18247978E-01 0.24720745E+03</pdfrwt>
<pdfrwt beam="2">  1       -2 0.19816258E-01 0.24720745E+03</pdfrwt>
<totfact> 0.65058566E+03</totfact>
</mgrwt>
</event>
<event>
 4    1  0.6086918E-004  0.2731160E+03  0.7818608E-02  0.1099509E+00
          2   -1    0    0  501    0  0.00000000000E+00  0.00000000000E+00  0.13468817745E+04  0.13468817745E+04  0.25500000000E-02 0.  1.
         -2   -1    0    0    0  501 -0.00000000000E+00 -0.00000000000E+00 -0.13845374944E+02  0.13845375179E+02  0.25500000000E-02 0. -1.
    5000001    1    1    2    0    0 -0.18144845465E+02  0.72902054314E+02  0.10855928811E+04  0.10909101010E+04  0.77000000000E+02 0.  0.
   -5000001    1    1    2    0    0  0.18144845465E+02 -0.72902054314E+02  0.24744351845E+03  0.26981704869E+03  0.77000000000E+02 0.  0.
<mgrwt>
<rscale>  0 0.27311597E+03</rscale>
<asrwt>0</asrwt>
<pdfrwt beam="1">  1        2 0.20721262E+00 0.27311597E+03</pdfrwt>
<pdfrwt beam="2">  1       -2 0.21300573E-02 0.27311597E+03</pdfrwt>
<totfact> 0.11633239E+04</totfact>
</mgrwt>
</event>
<event>
 4    1  0.6086918E-004  0.2498073E+03  0.7818608E-02  0.1113427E+00
          2   -1    0    0  501    0  0.00000000000E+00  0.00000000000E+00  0.10451459693E+04  0.10451459693E+04  0.25500000000E-02 0.  1.
         -2   -1    0    0    0  501 -0.00000000000E+00 -0.00000000000E+00 -0.14927026834E+02  0.14927027052E+02  0.25500000000E-02 0. -1.
    5000001    1    1    2    0    0  0.19082010994E+02  0.77468085944E+02  0.75912336160E+03  0.76717840533E+03  0.77000000000E+02 0.  0.
   -5000001    1    1    2    0    0 -0.19082010994E+02 -0.77468085944E+02  0.27109558084E+03  0.29289459099E+03  0.77000000000E+02 0.  0.
<mgrwt>
<rscale>  0 0.24980730E+03</rscale>
<asrwt>0</asrwt>
<pdfrwt beam="1">  1        2 0.16079166E+00 0.24980730E+03</pdfrwt>
<pdfrwt beam="2">  1       -2 0.22964660E-02 0.24980730E+03</pdfrwt>
<totfact> 0.15424150E+04</totfact>
</mgrwt>
</event>
<event>
 4    1  0.6086918E-004  0.1815945E+03  0.7818608E-02  0.1166269E+00
          2   -1    0    0  501    0  0.00000000000E+00  0.00000000000E+00  0.70621644213E+03  0.70621644213E+03  0.25500000000E-02 0.  1.
         -2   -1    0    0    0  501 -0.00000000000E+00 -0.00000000000E+00 -0.11673680295E+02  0.11673680574E+02  0.25500000000E-02 0. -1.
    5000001    1    1    2    0    0  0.43768589354E+02  0.16508916190E+02  0.30273597841E+03  0.31585804778E+03  0.77000000000E+02 0.  0.
   -5000001    1    1    2    0    0 -0.43768589354E+02 -0.16508916190E+02  0.39180678342E+03  0.40203207492E+03  0.77000000000E+02 0.  0.
<mgrwt>
<rscale>  0 0.18159455E+03</rscale>
<asrwt>0</asrwt>
<pdfrwt beam="1">  1        2 0.10864867E+00 0.18159455E+03</pdfrwt>
<pdfrwt beam="2">  1       -2 0.17959511E-02 0.18159455E+03</pdfrwt>
<totfact> 0.36195409E+04</totfact>
</mgrwt>
</event>
<event>
 4    1  0.6086918E-004  0.3475656E+03  0.7818608E-02  0.1063619E+00
          2   -1    0    0  501    0  0.00000000000E+00  0.00000000000E+00  0.23103901249E+03  0.23103901251E+03  0.25500000000E-02 0.  1.
         -2   -1    0    0    0  501 -0.00000000000E+00 -0.00000000000E+00 -0.13071586355E+03  0.13071586357E+03  0.25500000000E-02 0. -1.
    5000001    1    1    2    0    0 -0.16019124263E+02  0.15293478192E+03  0.76198926715E+02  0.18809820918E+03  0.77000000000E+02 0.  0.
   -5000001    1    1    2    0    0  0.16019124263E+02 -0.15293478192E+03  0.24124222231E+02  0.17365666691E+03  0.77000000000E+02 0.  0.
<mgrwt>
<rscale>  0 0.34756561E+03</rscale>
<asrwt>0</asrwt>
<pdfrwt beam="1">  1        2 0.35544463E-01 0.34756561E+03</pdfrwt>
<pdfrwt beam="2">  1       -2 0.20110133E-01 0.34756561E+03</pdfrwt>
<totfact> 0.30387229E+03</totfact>
</mgrwt>
</event>
<event>
 4    1  0.6086918E-004  0.2085537E+03  0.7818608E-02  0.1142716E+00
          2   -1    0    0  501    0  0.00000000000E+00  0.00000000000E+00  0.18336192204E+04  0.18336192204E+04  0.25500000000E-02 0.  1.
         -2   -1    0    0    0  501 -0.00000000000E+00 -0.00000000000E+00 -0.59301603614E+01  0.59301609097E+01  0.25500000000E-02 0. -1.
    5000001    1    1    2    0    0 -0.54189252975E+02 -0.44578926049E+02  0.95416953908E+03  0.95983970802E+03  0.77000000000E+02 0.  0.
   -5000001    1    1    2    0    0  0.54189252975E+02  0.44578926049E+02  0.87351952101E+03  0.87970967334E+03  0.77000000000E+02 0.  0.
<mgrwt>
<rscale>  0 0.20855365E+03</rscale>
<asrwt>0</asrwt>
<pdfrwt beam="1">  1        2 0.28209521E+00 0.20855365E+03</pdfrwt>
<pdfrwt beam="2">  1       -2 0.91233259E-03 0.20855365E+03</pdfrwt>
<totfact> 0.21891934E+04</totfact>
</mgrwt>
</event>
<event>
 4    1  0.6086918E-004  0.2289539E+03  0.7818608E-02  0.1127378E+00
         -2   -1    0    0    0  501 -0.00000000000E+00  0.00000000000E+00  0.16122436635E+02  0.16122436837E+02  0.25500000000E-02 0. -1.
          2   -1    0    0  501    0  0.00000000000E+00 -0.00000000000E+00 -0.81284070599E+03  0.81284070599E+03  0.25500000000E-02 0.  1.
    5000001    1    1    2    0    0 -0.62596547908E+02  0.47823808872E+02 -0.28556376357E+03  0.30607369630E+03  0.77000000000E+02 0.  0.
   -5000001    1    1    2    0    0  0.62596547908E+02 -0.47823808872E+02 -0.51115450578E+03  0.52288944653E+03  0.77000000000E+02 0.  0.
<mgrwt>
<rscale>  0 0.22895391E+03</rscale>
<asrwt>0</asrwt>
<pdfrwt beam="1">  1        2 0.12505238E+00 0.22895391E+03</pdfrwt>
<pdfrwt beam="2">  1       -2 0.24803755E-02 0.22895391E+03</pdfrwt>
<totfact> 0.19256564E+04</totfact>
</mgrwt>
</event>
<event>
 4    1  0.6086918E-004  0.3853750E+03  0.7818608E-02  0.1048965E+00
          2   -1    0    0  501    0  0.00000000000E+00  0.00000000000E+00  0.40053707439E+03  0.40053707440E+03  0.25500000000E-02 0. -1.
         -2   -1    0    0    0  501 -0.00000000000E+00 -0.00000000000E+00 -0.92696730666E+02  0.92696730701E+02  0.25500000000E-02 0.  1.
    5000001    1    1    2    0    0  0.10583978483E+03 -0.61045965954E+02 -0.93375832339E+01  0.14472339297E+03  0.77000000000E+02 0.  0.
   -5000001    1    1    2    0    0 -0.10583978483E+03  0.61045965954E+02  0.31717792696E+03  0.34851041213E+03  0.77000000000E+02 0.  0.
<mgrwt>
<rscale>  0 0.38537502E+03</rscale>
<asrwt>0</asrwt>
<pdfrwt beam="1">  1        2 0.61621088E-01 0.38537502E+03</pdfrwt>
<pdfrwt beam="2">  1       -2 0.14261036E-01 0.38537502E+03</pdfrwt>
<totfact> 0.29844950E+03</totfact>
</mgrwt>
</event>
<event>
 4    1  0.6086918E-004  0.2364452E+03  0.7818608E-02  0.1122184E+00
          2   -1    0    0  501    0  0.00000000000E+00  0.00000000000E+00  0.23765591912E+04  0.23765591912E+04  0.25500000000E-02 0.  1.
         -2   -1    0    0    0  501 -0.00000000000E+00 -0.00000000000E+00 -0.58810164239E+01  0.58810169768E+01  0.25500000000E-02 0. -1.
    5000001    1    1    2    0    0  0.68272198056E+02  0.38196283123E+02  0.16277162022E+04  0.16314132168E+04  0.77000000000E+02 0.  0.
   -5000001    1    1    2    0    0 -0.68272198056E+02 -0.38196283123E+02  0.74296197256E+03  0.75102699135E+03  0.77000000000E+02 0.  0.
<mgrwt>
<rscale>  0 0.23644521E+03</rscale>
<asrwt>0</asrwt>
<pdfrwt beam="1">  1        2 0.36562516E+00 0.23644521E+03</pdfrwt>
<pdfrwt beam="2">  1       -2 0.90477015E-03 0.23644521E+03</pdfrwt>
<totfact> 0.11519323E+04</totfact>
</mgrwt>
</event>
<event>
 4    1  0.6086918E-004  0.2428920E+03  0.7818608E-02  0.1117881E+00
         -2   -1    0    0    0  501 -0.00000000000E+00  0.00000000000E+00  0.84522964079E+01  0.84522967926E+01  0.25500000000E-02 0. -1.
          2   -1    0    0  501    0  0.00000000000E+00 -0.00000000000E+00 -0.17449846470E+04  0.17449846470E+04  0.25500000000E-02 0.  1.
    5000001    1    1    2    0    0  0.72280661888E+02 -0.59905463603E+02 -0.84920863332E+03  0.85784466051E+03  0.77000000000E+02 0.  0.
   -5000001    1    1    2    0    0 -0.72280661888E+02  0.59905463603E+02 -0.88732371723E+03  0.89559228324E+03  0.77000000000E+02 0.  0.
<mgrwt>
<rscale>  0 0.24289197E+03</rscale>
<asrwt>0</asrwt>
<pdfrwt beam="1">  1        2 0.26845889E+00 0.24289197E+03</pdfrwt>
<pdfrwt beam="2">  1       -2 0.13003547E-02 0.24289197E+03</pdfrwt>
<totfact> 0.14652962E+04</totfact>
</mgrwt>
</event>
<event>
 4    1  0.6086918E-004  0.2111151E+03  0.7818608E-02  0.1140686E+00
          2   -1    0    0  501    0  0.00000000000E+00  0.00000000000E+00  0.11114505118E+04  0.11114505118E+04  0.25500000000E-02 0.  1.
         -2   -1    0    0    0  501 -0.00000000000E+00 -0.00000000000E+00 -0.10025089613E+02  0.10025089937E+02  0.25500000000E-02 0. -1.
    5000001    1    1    2    0    0  0.56040379032E+02  0.52789768930E+01  0.31048824589E+03  0.32480816263E+03  0.77000000000E+02 0.  0.
   -5000001    1    1    2    0    0 -0.56040379032E+02 -0.52789768930E+01  0.79093717626E+03  0.79666743907E+03  0.77000000000E+02 0.  0.
<mgrwt>
<rscale>  0 0.21111505E+03</rscale>
<asrwt>0</asrwt>
<pdfrwt beam="1">  1        2 0.17099232E+00 0.21111505E+03</pdfrwt>
<pdfrwt beam="2">  1       -2 0.15423221E-02 0.21111505E+03</pdfrwt>
<totfact> 0.25043870E+04</totfact>
</mgrwt>
</event>
<event>
 4    1  0.6086918E-004  0.3207188E+03  0.7818608E-02  0.1075319E+00
          2   -1    0    0  501    0  0.00000000000E+00  0.00000000000E+00  0.21539118864E+04  0.21539118864E+04  0.25500000000E-02 0.  1.
         -2   -1    0    0    0  501 -0.00000000000E+00 -0.00000000000E+00 -0.11938805834E+02  0.11938806106E+02  0.25500000000E-02 0. -1.
    5000001    1    1    2    0    0 -0.43650169077E+02 -0.13080192203E+03  0.88339382014E+03  0.89740075860E+03  0.77000000000E+02 0.  0.
   -5000001    1    1    2    0    0  0.43650169077E+02  0.13080192203E+03  0.12585792604E+04  0.12684499339E+04  0.77000000000E+02 0.  0.
<mgrwt>
<rscale>  0 0.32071879E+03</rscale>
<asrwt>0</asrwt>
<pdfrwt beam="1">  1        2 0.33137053E+00 0.32071879E+03</pdfrwt>
<pdfrwt beam="2">  1       -2 0.18367423E-02 0.32071879E+03</pdfrwt>
<totfact> 0.53971418E+03</totfact>
</mgrwt>
</event>
<event>
 4    1  0.6086918E-004  0.4392045E+03  0.7818608E-02  0.1030991E+00
          2   -1    0    0  501    0  0.00000000000E+00  0.00000000000E+00  0.52528247075E+03  0.52528247076E+03  0.25500000000E-02 0.  1.
         -2   -1    0    0    0  501 -0.00000000000E+00 -0.00000000000E+00 -0.91808017891E+02  0.91808017927E+02  0.25500000000E-02 0. -1.
    5000001    1    1    2    0    0 -0.12411401040E+03  0.15946564641E+03  0.27047000731E+03  0.34628977001E+03  0.77000000000E+02 0.  0.
   -5000001    1    1    2    0    0  0.12411401040E+03 -0.15946564641E+03  0.16300444555E+03  0.27080071867E+03  0.77000000000E+02 0.  0.
<mgrwt>
<rscale>  0 0.43920447E+03</rscale>
<asrwt>0</asrwt>
<pdfrwt beam="1">  1        2 0.80812688E-01 0.43920447E+03</pdfrwt>
<pdfrwt beam="2">  1       -2 0.14124310E-01 0.43920447E+03</pdfrwt>
<totfact> 0.22399931E+03</totfact>
</mgrwt>
</event>
<event>
 4    1  0.6086918E-004  0.3306636E+03  0.7818608E-02  0.1070844E+00
          2   -1    0    0  501    0  0.00000000000E+00  0.00000000000E+00  0.14795176127E+04  0.14795176127E+04  0.25500000000E-02 0.  1.
         -2   -1    0    0    0  501 -0.00000000000E+00 -0.00000000000E+00 -0.18475348401E+02  0.18475348577E+02  0.25500000000E-02 0. -1.
    5000001    1    1    2    0    0  0.65154974287E+02 -0.12983276418E+03  0.65154809301E+03  0.67197145388E+03  0.77000000000E+02 0.  0.
   -5000001    1    1    2    0    0 -0.65154974287E+02  0.12983276418E+03  0.80949417128E+03  0.82602150738E+03  0.77000000000E+02 0.  0.
<mgrwt>
<rscale>  0 0.33066360E+03</rscale>
<asrwt>0</asrwt>
<pdfrwt beam="1">  1        2 0.22761808E+00 0.33066360E+03</pdfrwt>
<pdfrwt beam="2">  1       -2 0.28423615E-02 0.33066360E+03</pdfrwt>
<totfact> 0.64424613E+03</totfact>
</mgrwt>
</event>
<event>
 4    1  0.6086918E-004  0.2977300E+03  0.7818608E-02  0.1086381E+00
         -2   -1    0    0    0  501 -0.00000000000E+00  0.00000000000E+00  0.41141901165E+02  0.41141901244E+02  0.25500000000E-02 0. -1.
          2   -1    0    0  501    0  0.00000000000E+00 -0.00000000000E+00 -0.53864265046E+03  0.53864265047E+03  0.25500000000E-02 0.  1.
    5000001    1    1    2    0    0  0.45573720699E+02 -0.10817247406E+03 -0.15229194548E+03  0.20712335653E+03  0.77000000000E+02 0.  0.
   -5000001    1    1    2    0    0 -0.45573720699E+02  0.10817247406E+03 -0.34520880382E+03  0.37266119518E+03  0.77000000000E+02 0.  0.
<mgrwt>
<rscale>  0 0.29772996E+03</rscale>
<asrwt>0</asrwt>
<pdfrwt beam="1">  1        2 0.82868095E-01 0.29772996E+03</pdfrwt>
<pdfrwt beam="2">  1       -2 0.63295236E-02 0.29772996E+03</pdfrwt>
<totfact> 0.77804838E+03</totfact>
</mgrwt>
</event>
<event>
 4    1  0.6086918E-004  0.2113584E+03  0.7818608E-02  0.1140495E+00
         -2   -1    0    0    0  501 -0.00000000000E+00  0.00000000000E+00  0.31057797169E+02  0.31057797274E+02  0.25500000000E-02 0. -1.
          2   -1    0    0  501    0  0.00000000000E+00 -0.00000000000E+00 -0.35959060079E+03  0.35959060080E+03  0.25500000000E-02 0.  1.
    5000001    1    1    2    0    0 -0.32472703835E+02 -0.30111413694E+02 -0.27008588095E+03  0.28431770402E+03  0.77000000000E+02 0.  0.
   -5000001    1    1    2    0    0  0.32472703835E+02  0.30111413694E+02 -0.58446922673E+02  0.10633069406E+03  0.77000000000E+02 0.  0.
<mgrwt>
<rscale>  0 0.21135839E+03</rscale>
<asrwt>0</asrwt>
<pdfrwt beam="1">  1        2 0.55321628E-01 0.21135839E+03</pdfrwt>
<pdfrwt beam="2">  1       -2 0.47781229E-02 0.21135839E+03</pdfrwt>
<totfact> 0.18320813E+04</totfact>
</mgrwt>
</event>
<event>
 4    1  0.6086918E-004  0.2126679E+03  0.7818608E-02  0.1139471E+00
          2   -1    0    0  501    0  0.00000000000E+00  0.00000000000E+00  0.65987260468E+03  0.65987260468E+03  0.25500000000E-02 0.  1.
         -2   -1    0    0    0  501 -0.00000000000E+00 -0.00000000000E+00 -0.17134986129E+02  0.17134986318E+02  0.25500000000E-02 0. -1.
    5000001    1    1    2    0    0 -0.11929777628E+02 -0.38326750423E+02  0.51674388817E+03  0.52398903171E+03  0.77000000000E+02 0.  0.
   -5000001    1    1    2    0    0  0.11929777628E+02  0.38326750423E+02  0.12599373038E+03  0.15301855929E+03  0.77000000000E+02 0.  0.
<mgrwt>
<rscale>  0 0.21266789E+03</rscale>
<asrwt>0</asrwt>
<pdfrwt beam="1">  1        2 0.10151886E+00 0.21266789E+03</pdfrwt>
<pdfrwt beam="2">  1       -2 0.26361518E-02 0.21266789E+03</pdfrwt>
<totfact> 0.22626125E+04</totfact>
</mgrwt>
</event>
<event>
 4    1  0.6086918E-004  0.2090002E+03  0.7818608E-02  0.1142360E+00
          2   -1    0    0  501    0  0.00000000000E+00  0.00000000000E+00  0.11217677442E+04  0.11217677442E+04  0.25500000000E-02 0.  1.
         -2   -1    0    0    0  501 -0.00000000000E+00 -0.00000000000E+00 -0.97348788344E+01  0.97348791683E+01  0.25500000000E-02 0. -1.
    5000001    1    1    2    0    0  0.22378381674E+02 -0.58153361632E+02  0.73628065464E+03  0.74291372839E+03  0.77000000000E+02 0.  0.
   -5000001    1    1    2    0    0 -0.22378381674E+02  0.58153361632E+02  0.37575221069E+03  0.38858889494E+03  0.77000000000E+02 0.  0.
<mgrwt>
<rscale>  0 0.20900022E+03</rscale>
<asrwt>0</asrwt>
<pdfrwt beam="1">  1        2 0.17257963E+00 0.20900022E+03</pdfrwt>
<pdfrwt beam="2">  1       -2 0.14976739E-02 0.20900022E+03</pdfrwt>
<totfact> 0.25765388E+04</totfact>
</mgrwt>
</event>
<event>
 4    1  0.6086918E-004  0.4495858E+03  0.7818608E-02  0.1027846E+00
          2   -1    0    0  501    0  0.00000000000E+00  0.00000000000E+00  0.25595212438E+04  0.25595212438E+04  0.25500000000E-02 0.  1.
         -2   -1    0    0    0  501 -0.00000000000E+00 -0.00000000000E+00 -0.19742695213E+02  0.19742695377E+02  0.25500000000E-02 0. -1.
    5000001    1    1    2    0    0 -0.97791081244E+02 -0.17458864671E+03  0.16572333247E+04  0.16710462542E+04  0.77000000000E+02 0.  0.
   -5000001    1    1    2    0    0  0.97791081244E+02  0.17458864671E+03  0.88254522394E+03  0.90821768505E+03  0.77000000000E+02 0.  0.
<mgrwt>
<rscale>  0 0.44958580E+03</rscale>
<asrwt>0</asrwt>
<pdfrwt beam="1">  1        2 0.39377218E+00 0.44958580E+03</pdfrwt>
<pdfrwt beam="2">  1       -2 0.30373402E-02 0.44958580E+03</pdfrwt>
<totfact> 0.15181926E+03</totfact>
</mgrwt>
</event>
<event>
 4    1  0.6086918E-004  0.2417415E+03  0.7818608E-02  0.1118638E+00
          2   -1    0    0  501    0  0.00000000000E+00  0.00000000000E+00  0.22570305101E+03  0.22570305103E+03  0.25500000000E-02 0.  1.
         -2   -1    0    0    0  501 -0.00000000000E+00 -0.00000000000E+00 -0.64729890647E+02  0.64729890697E+02  0.25500000000E-02 0. -1.
    5000001    1    1    2    0    0 -0.56083840284E+02  0.72933160417E+02  0.62825679201E+02  0.13542787378E+03  0.77000000000E+02 0.  0.
   -5000001    1    1    2    0    0  0.56083840284E+02 -0.72933160417E+02  0.98147481166E+02  0.15500506794E+03  0.77000000000E+02 0.  0.
<mgrwt>
<rscale>  0 0.24174146E+03</rscale>
<asrwt>0</asrwt>
<pdfrwt beam="1">  1        2 0.34723546E-01 0.24174146E+03</pdfrwt>
<pdfrwt beam="2">  1       -2 0.99584448E-02 0.24174146E+03</pdfrwt>
<totfact> 0.97997229E+03</totfact>
</mgrwt>
</event>
<event>
 4    1  0.6086918E-004  0.2151202E+03  0.7818608E-02  0.1137574E+00
         -2   -1    0    0    0  501 -0.00000000000E+00  0.00000000000E+00  0.11582933983E+02  0.11582934264E+02  0.25500000000E-02 0. -1.
          2   -1    0    0  501    0  0.00000000000E+00 -0.00000000000E+00 -0.99881252113E+03  0.99881252113E+03  0.25500000000E-02 0.  1.
    5000001    1    1    2    0    0  0.10177459017E+02 -0.70098673837E+02 -0.37640182810E+03  0.39067216556E+03  0.77000000000E+02 0.  0.
   -5000001    1    1    2    0    0 -0.10177459017E+02  0.70098673837E+02 -0.61082775904E+03  0.61972328983E+03  0.77000000000E+02 0.  0.
<mgrwt>
<rscale>  0 0.21512024E+03</rscale>
<asrwt>0</asrwt>
<pdfrwt beam="1">  1        2 0.15366340E+00 0.21512024E+03</pdfrwt>
<pdfrwt beam="2">  1       -2 0.17819906E-02 0.21512024E+03</pdfrwt>
<totfact> 0.23688569E+04</totfact>
</mgrwt>
</event>
<event>
 4    1  0.6086918E-004  0.2866409E+03  0.7818608E-02  0.1092116E+00
          2   -1    0    0  501    0  0.00000000000E+00  0.00000000000E+00  0.39395623956E+03  0.39395623956E+03  0.25500000000E-02 0.  1.
         -2   -1    0    0    0  501 -0.00000000000E+00 -0.00000000000E+00 -0.52139676199E+02  0.52139676261E+02  0.25500000000E-02 0. -1.
    5000001    1    1    2    0    0 -0.97218362788E+02  0.22472965024E+02  0.64723021004E+02  0.14168455691E+03  0.77000000000E+02 0.  0.
   -5000001    1    1    2    0    0  0.97218362788E+02 -0.22472965024E+02  0.27709354235E+03  0.30441135891E+03  0.77000000000E+02 0.  0.
<mgrwt>
<rscale>  0 0.28664090E+03</rscale>
<asrwt>0</asrwt>
<pdfrwt beam="1">  1        2 0.60608652E-01 0.28664090E+03</pdfrwt>
<pdfrwt beam="2">  1       -2 0.80214887E-02 0.28664090E+03</pdfrwt>
<totfact> 0.76093716E+03</totfact>
</mgrwt>
</event>
<event>
 4    1  0.6086918E-004  0.1950859E+03  0.7818608E-02  0.1153953E+00
         -2   -1    0    0    0  501 -0.00000000000E+00  0.00000000000E+00  0.44975398498E+02  0.44975398570E+02  0.25500000000E-02 0. -1.
          2   -1    0    0  501    0  0.00000000000E+00 -0.00000000000E+00 -0.21155177890E+03  0.21155177892E+03  0.25500000000E-02 0.  1.
    5000001    1    1    2    0    0 -0.51287707710E+02 -0.24419207922E+02 -0.58377050622E+02  0.11208749581E+03  0.77000000000E+02 0.  0.
   -5000001    1    1    2    0    0  0.51287707710E+02  0.24419207922E+02 -0.10819932978E+03  0.14443968168E+03  0.77000000000E+02 0.  0.
<mgrwt>
<rscale>  0 0.19508588E+03</rscale>
<asrwt>0</asrwt>
<pdfrwt beam="1">  1        2 0.32546427E-01 0.19508588E+03</pdfrwt>
<pdfrwt beam="2">  1       -2 0.69192922E-02 0.19508588E+03</pdfrwt>
<totfact> 0.18314897E+04</totfact>
</mgrwt>
</event>
<event>
 4    1  0.6086918E-004  0.1994296E+03  0.7818608E-02  0.1150221E+00
          2   -1    0    0  501    0  0.00000000000E+00  0.00000000000E+00  0.54051249154E+03  0.54051249154E+03  0.25500000000E-02 0.  1.
         -2   -1    0    0    0  501 -0.00000000000E+00 -0.00000000000E+00 -0.18395573057E+02  0.18395573234E+02  0.25500000000E-02 0. -1.
    5000001    1    1    2    0    0  0.51926651851E+02 -0.35091142940E+02  0.23502782453E+03  0.25513691185E+03  0.77000000000E+02 0.  0.
   -5000001    1    1    2    0    0 -0.51926651851E+02  0.35091142940E+02  0.28708909395E+03  0.30377115292E+03  0.77000000000E+02 0.  0.
<mgrwt>
<rscale>  0 0.19942956E+03</rscale>
<asrwt>0</asrwt>
<pdfrwt beam="1">  1        2 0.83155754E-01 0.19942956E+03</pdfrwt>
<pdfrwt beam="2">  1       -2 0.28300886E-02 0.19942956E+03</pdfrwt>
<totfact> 0.25528397E+04</totfact>
</mgrwt>
</event>
<event>
 4    1  0.6086918E-004  0.4664418E+03  0.7818608E-02  0.1022929E+00
         -2   -1    0    0    0  501 -0.00000000000E+00  0.00000000000E+00  0.54156279734E+02  0.54156279795E+02  0.25500000000E-02 0. -1.
          2   -1    0    0  501    0  0.00000000000E+00 -0.00000000000E+00 -0.10043521610E+04  0.10043521610E+04  0.25500000000E-02 0.  1.
    5000001    1    1    2    0    0  0.93019543533E+02  0.16043926205E+03 -0.20592119225E+03  0.28762115657E+03  0.77000000000E+02 0.  0.
   -5000001    1    1    2    0    0 -0.93019543533E+02 -0.16043926205E+03 -0.74427468898E+03  0.77088728420E+03  0.77000000000E+02 0.  0.
<mgrwt>
<rscale>  0 0.46644175E+03</rscale>
<asrwt>0</asrwt>
<pdfrwt beam="1">  1        2 0.15451570E+00 0.46644175E+03</pdfrwt>
<pdfrwt beam="2">  1       -2 0.83317361E-02 0.46644175E+03</pdfrwt>
<totfact> 0.23179467E+03</totfact>
</mgrwt>
</event>
<event>
 4    1  0.6086918E-004  0.4488379E+03  0.7818608E-02  0.1028069E+00
         -2   -1    0    0    0  501 -0.00000000000E+00  0.00000000000E+00  0.41253112032E+02  0.41253112111E+02  0.25500000000E-02 0. -1.
          2   -1    0    0  501    0  0.00000000000E+00 -0.00000000000E+00 -0.12208501786E+04  0.12208501786E+04  0.25500000000E-02 0.  1.
    5000001    1    1    2    0    0  0.14531060464E+03 -0.74414735577E+02 -0.21482775195E+03  0.28059345627E+03  0.77000000000E+02 0.  0.
   -5000001    1    1    2    0    0 -0.14531060464E+03  0.74414735577E+02 -0.96476931461E+03  0.98150983444E+03  0.77000000000E+02 0.  0.
<mgrwt>
<rscale>  0 0.44883792E+03</rscale>
<asrwt>0</asrwt>
<pdfrwt beam="1">  1        2 0.18782308E+00 0.44883792E+03</pdfrwt>
<pdfrwt beam="2">  1       -2 0.63466336E-02 0.44883792E+03</pdfrwt>
<totfact> 0.26399565E+03</totfact>
</mgrwt>
</event>
<event>
 4    1  0.6086918E-004  0.3840349E+03  0.7818608E-02  0.1049452E+00
          2   -1    0    0  501    0  0.00000000000E+00  0.00000000000E+00  0.12880887136E+04  0.12880887136E+04  0.25500000000E-02 0.  1.
         -2   -1    0    0    0  501 -0.00000000000E+00 -0.00000000000E+00 -0.28624354879E+02  0.28624354993E+02  0.25500000000E-02 0. -1.
    5000001    1    1    2    0    0  0.10521680969E+03 -0.47419616962E+02  0.10848819298E+04  0.10937170561E+04  0.77000000000E+02 0.  0.
   -5000001    1    1    2    0    0 -0.10521680969E+03  0.47419616962E+02  0.17458242888E+03  0.22299601249E+03  0.77000000000E+02 0.  0.
<mgrwt>
<rscale>  0 0.38403494E+03</rscale>
<asrwt>0</asrwt>
<pdfrwt beam="1">  1        2 0.19816742E+00 0.38403494E+03</pdfrwt>
<pdfrwt beam="2">  1       -2 0.44037485E-02 0.38403494E+03</pdfrwt>
<totfact> 0.42467723E+03</totfact>
</mgrwt>
</event>
<event>
 4    1  0.6086918E-004  0.2208222E+03  0.7818608E-02  0.1133272E+00
          2   -1    0    0  501    0  0.00000000000E+00  0.00000000000E+00  0.17059912804E+03  0.17059912806E+03  0.25500000000E-02 0.  1.
         -2   -1    0    0    0  501 -0.00000000000E+00 -0.00000000000E+00 -0.71457667123E+02  0.71457667169E+02  0.25500000000E-02 0. -1.
    5000001    1    1    2    0    0  0.77058996079E+02 -0.17062654238E+02  0.43331977380E+02  0.11847313328E+03  0.77000000000E+02 0.  0.
   -5000001    1    1    2    0    0 -0.77058996079E+02  0.17062654238E+02  0.55809483533E+02  0.12358366194E+03  0.77000000000E+02 0.  0.
<mgrwt>
<rscale>  0 0.22082224E+03</rscale>
<asrwt>0</asrwt>
<pdfrwt beam="1">  1        2 0.26246020E-01 0.22082224E+03</pdfrwt>
<pdfrwt beam="2">  1       -2 0.10993487E-01 0.22082224E+03</pdfrwt>
<totfact> 0.11317780E+04</totfact>
</mgrwt>
</event>
<event>
 4    1  0.6086918E-004  0.3849764E+03  0.7818608E-02  0.1049110E+00
          2   -1    0    0  501    0  0.00000000000E+00  0.00000000000E+00  0.49396445715E+03  0.49396445716E+03  0.25500000000E-02 0.  1.
         -2   -1    0    0    0  501 -0.00000000000E+00 -0.00000000000E+00 -0.75008846200E+02  0.75008846243E+02  0.25500000000E-02 0. -1.
    5000001    1    1    2    0    0  0.48980029402E+02  0.15068468242E+03  0.32412837448E+03  0.36890801013E+03  0.77000000000E+02 0.  0.
   -5000001    1    1    2    0    0 -0.48980029402E+02 -0.15068468242E+03  0.94827236477E+02  0.20006529328E+03  0.77000000000E+02 0.  0.
<mgrwt>
<rscale>  0 0.38497638E+03</rscale>
<asrwt>0</asrwt>
<pdfrwt beam="1">  1        2 0.75994533E-01 0.38497638E+03</pdfrwt>
<pdfrwt beam="2">  1       -2 0.11539822E-01 0.38497638E+03</pdfrwt>
<totfact> 0.33430619E+03</totfact>
</mgrwt>
</event>
<event>
 4    1  0.6086918E-004  0.2392279E+03  0.7818608E-02  0.1120308E+00
         -2   -1    0    0    0  501 -0.00000000000E+00  0.00000000000E+00  0.79947347270E+01  0.79947351337E+01  0.25500000000E-02 0. -1.
          2   -1    0    0  501    0  0.00000000000E+00 -0.00000000000E+00 -0.17896144416E+04  0.17896144416E+04  0.25500000000E-02 0.  1.
    5000001    1    1    2    0    0 -0.77595654583E+02  0.66440991877E+01 -0.12522164325E+04  0.12569965089E+04  0.77000000000E+02 0.  0.
   -5000001    1    1    2    0    0  0.77595654583E+02 -0.66440991877E+01 -0.52940327437E+03  0.54061266779E+03  0.77000000000E+02 0.  0.
<mgrwt>
<rscale>  0 0.23922787E+03</rscale>
<asrwt>0</asrwt>
<pdfrwt beam="1">  1        2 0.27532498E+00 0.23922787E+03</pdfrwt>
<pdfrwt beam="2">  1       -2 0.12299606E-02 0.23922787E+03</pdfrwt>
<totfact> 0.15050011E+04</totfact>
</mgrwt>
</event>
<event>
 4    1  0.6086918E-004  0.1909311E+03  0.7818608E-02  0.1157624E+00
         -2   -1    0    0    0  501 -0.00000000000E+00  0.00000000000E+00  0.61118182409E+02  0.61118182462E+02  0.25500000000E-02 0. -1.
          2   -1    0    0  501    0  0.00000000000E+00 -0.00000000000E+00 -0.14911557930E+03  0.14911557932E+03  0.25500000000E-02 0.  1.
    5000001    1    1    2    0    0 -0.15458248103E+02  0.16948115549E+02  0.12774348703E+02  0.81353426725E+02  0.77000000000E+02 0.  0.
   -5000001    1    1    2    0    0  0.15458248103E+02 -0.16948115549E+02 -0.10077174560E+03  0.12888033506E+03  0.77000000000E+02 0.  0.
<mgrwt>
<rscale>  0 0.19093112E+03</rscale>
<asrwt>0</asrwt>
<pdfrwt beam="1">  1        2 0.22940858E-01 0.19093112E+03</pdfrwt>
<pdfrwt beam="2">  1       -2 0.94027974E-02 0.19093112E+03</pdfrwt>
<totfact> 0.16681068E+04</totfact>
</mgrwt>
</event>
<event>
 4    1  0.6086918E-004  0.1589942E+03  0.7818608E-02  0.1189837E+00
          2   -1    0    0  501    0  0.00000000000E+00  0.00000000000E+00  0.18335843204E+04  0.18335843204E+04  0.25500000000E-02 0.  1.
         -2   -1    0    0    0  501 -0.00000000000E+00 -0.00000000000E+00 -0.34466867343E+01  0.34466876776E+01  0.25500000000E-02 0. -1.
    5000001    1    1    2    0    0 -0.15073889248E+02  0.89819404786E+01  0.10202643409E+04  0.10233162868E+04  0.77000000000E+02 0.  0.
   -5000001    1    1    2    0    0  0.15073889248E+02 -0.89819404786E+01  0.80987329272E+03  0.81371472130E+03  0.77000000000E+02 0.  0.
<mgrwt>
<rscale>  0 0.15899423E+03</rscale>
<asrwt>0</asrwt>
<pdfrwt beam="1">  1        2 0.28209067E+00 0.15899423E+03</pdfrwt>
<pdfrwt beam="2">  1       -2 0.53025812E-03 0.15899423E+03</pdfrwt>
<totfact> 0.46906099E+04</totfact>
</mgrwt>
</event>
<event>
 4    1  0.6086918E-004  0.4076063E+03  0.7818608E-02  0.1041177E+00
          2   -1    0    0  501    0  0.00000000000E+00  0.00000000000E+00  0.22277726409E+02  0.22277726555E+02  0.25500000000E-02 0.  1.
         -2   -1    0    0    0  501 -0.00000000000E+00 -0.00000000000E+00 -0.18644511987E+04  0.18644511987E+04  0.25500000000E-02 0. -1.
    5000001    1    1    2    0    0 -0.14600722380E+03 -0.89323536038E+02 -0.55339755545E+03  0.58435833003E+03  0.77000000000E+02 0.  0.
   -5000001    1    1    2    0    0  0.14600722380E+03  0.89323536038E+02 -0.12887759169E+04  0.13023705953E+04  0.77000000000E+02 0.  0.
<mgrwt>
<rscale>  0 0.40760635E+03</rscale>
<asrwt>0</asrwt>
<pdfrwt beam="1">  1        2 0.34273440E-02 0.40760635E+03</pdfrwt>
<pdfrwt beam="2">  1       -2 0.28683852E+00 0.40760635E+03</pdfrwt>
<totfact> 0.11287890E+02</totfact>
</mgrwt>
</event>
<event>
 4    1  0.6086918E-004  0.1788043E+03  0.7818608E-02  0.1168965E+00
         -2   -1    0    0    0  501 -0.00000000000E+00  0.00000000000E+00  0.37296436550E+01  0.37296445267E+01  0.25500000000E-02 0. -1.
          2   -1    0    0  501    0  0.00000000000E+00 -0.00000000000E+00 -0.21430306986E+04  0.21430306986E+04  0.25500000000E-02 0.  1.
    5000001    1    1    2    0    0  0.26008753511E+02  0.91097769830E+01 -0.63604563627E+03  0.64128191517E+03  0.77000000000E+02 0.  0.
   -5000001    1    1    2    0    0 -0.26008753511E+02 -0.91097769830E+01 -0.15032554187E+04  0.15054784280E+04  0.77000000000E+02 0.  0.
<mgrwt>
<rscale>  0 0.17880427E+03</rscale>
<asrwt>0</asrwt>
<pdfrwt beam="1">  1        2 0.32969605E+00 0.17880427E+03</pdfrwt>
<pdfrwt beam="2">  1       -2 0.57379311E-03 0.17880427E+03</pdfrwt>
<totfact> 0.29204555E+04</totfact>
</mgrwt>
</event>
<event>
 4    1  0.6086918E-004  0.3376644E+03  0.7818608E-02  0.1067795E+00
         -2   -1    0    0    0  501 -0.00000000000E+00  0.00000000000E+00  0.58557010483E+02  0.58557010538E+02  0.25500000000E-02 0. -1.
          2   -1    0    0  501    0  0.00000000000E+00 -0.00000000000E+00 -0.48677887445E+03  0.48677887446E+03  0.25500000000E-02 0.  1.
    5000001    1    1    2    0    0  0.48847337471E+02 -0.14199606853E+03 -0.22240432635E+03  0.27918028268E+03  0.77000000000E+02 0.  0.
   -5000001    1    1    2    0    0 -0.48847337471E+02  0.14199606853E+03 -0.20581753762E+03  0.26615560232E+03  0.77000000000E+02 0.  0.
<mgrwt>
<rscale>  0 0.33766442E+03</rscale>
<asrwt>0</asrwt>
<pdfrwt beam="1">  1        2 0.74889055E-01 0.33766442E+03</pdfrwt>
<pdfrwt beam="2">  1       -2 0.90087712E-02 0.33766442E+03</pdfrwt>
<totfact> 0.50427890E+03</totfact>
</mgrwt>
</event>
<event>
 4    1  0.6086918E-004  0.1971554E+03  0.7818608E-02  0.1152161E+00
         -2   -1    0    0    0  501 -0.00000000000E+00  0.00000000000E+00  0.36758689823E+02  0.36758689911E+02  0.25500000000E-02 0. -1.
          2   -1    0    0  501    0  0.00000000000E+00 -0.00000000000E+00 -0.26436100417E+03  0.26436100419E+03  0.25500000000E-02 0.  1.
    5000001    1    1    2    0    0  0.30548808084E+02 -0.45472048065E+02 -0.15666497468E+03  0.18295860494E+03  0.77000000000E+02 0.  0.
   -5000001    1    1    2    0    0 -0.30548808084E+02  0.45472048065E+02 -0.70937339667E+02  0.11816108915E+03  0.77000000000E+02 0.  0.
<mgrwt>
<rscale>  0 0.19715541E+03</rscale>
<asrwt>0</asrwt>
<pdfrwt beam="1">  1        2 0.40670923E-01 0.19715541E+03</pdfrwt>
<pdfrwt beam="2">  1       -2 0.56551832E-02 0.19715541E+03</pdfrwt>
<totfact> 0.19630607E+04</totfact>
</mgrwt>
</event>
<event>
 4    1  0.6086918E-004  0.3406845E+03  0.7818608E-02  0.1066505E+00
          2   -1    0    0  501    0  0.00000000000E+00  0.00000000000E+00  0.40230589201E+03  0.40230589202E+03  0.25500000000E-02 0.  1.
         -2   -1    0    0    0  501 -0.00000000000E+00 -0.00000000000E+00 -0.72125407611E+02  0.72125407656E+02  0.25500000000E-02 0. -1.
    5000001    1    1    2    0    0 -0.24949760501E+02  0.14988222352E+03  0.16585929827E+03  0.23775087444E+03  0.77000000000E+02 0.  0.
   -5000001    1    1    2    0    0  0.24949760501E+02 -0.14988222352E+03  0.16432118613E+03  0.23668042523E+03  0.77000000000E+02 0.  0.
<mgrwt>
<rscale>  0 0.34068447E+03</rscale>
<asrwt>0</asrwt>
<pdfrwt beam="1">  1        2 0.61893214E-01 0.34068447E+03</pdfrwt>
<pdfrwt beam="2">  1       -2 0.11096217E-01 0.34068447E+03</pdfrwt>
<totfact> 0.44652565E+03</totfact>
</mgrwt>
</event>
<event>
 4    1  0.6086918E-004  0.2834055E+03  0.7818608E-02  0.1093843E+00
         -2   -1    0    0    0  501 -0.00000000000E+00  0.00000000000E+00  0.56836030081E+03  0.56836030082E+03  0.25500000000E-02 0. -1.
          2   -1    0    0  501    0  0.00000000000E+00 -0.00000000000E+00 -0.35329120023E+02  0.35329120115E+02  0.25500000000E-02 0.  1.
    5000001    1    1    2    0    0  0.11053283387E+03 -0.31468218199E+02  0.20110604241E+03  0.24409095931E+03  0.77000000000E+02 0.  0.
   -5000001    1    1    2    0    0 -0.11053283387E+03  0.31468218199E+02  0.33192513838E+03  0.35959846163E+03  0.77000000000E+02 0.  0.
<mgrwt>
<rscale>  0 0.28340550E+03</rscale>
<asrwt>0</asrwt>
<pdfrwt beam="1">  1        2 0.54352488E-02 0.28340550E+03</pdfrwt>
<pdfrwt beam="2">  1       -2 0.87440053E-01 0.28340550E+03</pdfrwt>
<totfact> 0.16422797E+03</totfact>
</mgrwt>
</event>
<event>
 4    1  0.6086918E-004  0.2902746E+03  0.7818608E-02  0.1090206E+00
         -2   -1    0    0    0  501 -0.00000000000E+00  0.00000000000E+00  0.20886504019E+02  0.20886504175E+02  0.25500000000E-02 0. -1.
          2   -1    0    0  501    0  0.00000000000E+00 -0.00000000000E+00 -0.10085379073E+04  0.10085379073E+04  0.25500000000E-02 0.  1.
    5000001    1    1    2    0    0  0.10047181061E+03 -0.60510750584E+02 -0.36209800566E+03  0.38832988729E+03  0.77000000000E+02 0.  0.
   -5000001    1    1    2    0    0 -0.10047181061E+03  0.60510750584E+02 -0.62555339765E+03  0.64109452421E+03  0.77000000000E+02 0.  0.
<mgrwt>
<rscale>  0 0.29027457E+03</rscale>
<asrwt>0</asrwt>
<pdfrwt beam="1">  1        2 0.15515964E+00 0.29027457E+03</pdfrwt>
<pdfrwt beam="2">  1       -2 0.32133091E-02 0.29027457E+03</pdfrwt>
<totfact> 0.99106853E+03</totfact>
</mgrwt>
</event>
<event>
 4    1  0.6086918E-004  0.1834866E+03  0.7818608E-02  0.1164471E+00
         -2   -1    0    0    0  501 -0.00000000000E+00  0.00000000000E+00  0.18372810003E+02  0.18372810180E+02  0.25500000000E-02 0. -1.
          2   -1    0    0  501    0  0.00000000000E+00 -0.00000000000E+00 -0.45811349987E+03  0.45811349988E+03  0.25500000000E-02 0.  1.
    5000001    1    1    2    0    0  0.40983440078E+02 -0.19593162953E+02 -0.16637924157E+03  0.18887717285E+03  0.77000000000E+02 0.  0.
   -5000001    1    1    2    0    0 -0.40983440078E+02  0.19593162953E+02 -0.27336144829E+03  0.28760913721E+03  0.77000000000E+02 0.  0.
<mgrwt>
<rscale>  0 0.18348659E+03</rscale>
<asrwt>0</asrwt>
<pdfrwt beam="1">  1        2 0.70478991E-01 0.18348659E+03</pdfrwt>
<pdfrwt beam="2">  1       -2 0.28265865E-02 0.18348659E+03</pdfrwt>
<totfact> 0.30520321E+04</totfact>
</mgrwt>
</event>
<event>
 4    1  0.6086918E-004  0.2328311E+03  0.7818608E-02  0.1124663E+00
         -2   -1    0    0    0  501 -0.00000000000E+00  0.00000000000E+00  0.17804678965E+02  0.17804679147E+02  0.25500000000E-02 0. -1.
          2   -1    0    0  501    0  0.00000000000E+00 -0.00000000000E+00 -0.76118093045E+03  0.76118093045E+03  0.25500000000E-02 0.  1.
    5000001    1    1    2    0    0 -0.67380591477E+02  0.55141871508E+02 -0.34979682641E+03  0.36860221088E+03  0.77000000000E+02 0.  0.
   -5000001    1    1    2    0    0  0.67380591477E+02 -0.55141871508E+02 -0.39357942507E+03  0.41038339872E+03  0.77000000000E+02 0.  0.
<mgrwt>
<rscale>  0 0.23283112E+03</rscale>
<asrwt>0</asrwt>
<pdfrwt beam="1">  1        2 0.11710473E+00 0.23283112E+03</pdfrwt>
<pdfrwt beam="2">  1       -2 0.27391820E-02 0.23283112E+03</pdfrwt>
<totfact> 0.18079811E+04</totfact>
</mgrwt>
</event>
<event>
 4    1  0.6086918E-004  0.1923314E+03  0.7818608E-02  0.1156375E+00
          2   -1    0    0  501    0  0.00000000000E+00  0.00000000000E+00  0.13624947054E+04  0.13624947054E+04  0.25500000000E-02 0.  1.
         -2   -1    0    0    0  501 -0.00000000000E+00 -0.00000000000E+00 -0.67874335081E+01  0.67874339871E+01  0.25500000000E-02 0. -1.
    5000001    1    1    2    0    0  0.32143495644E+02  0.47394885103E+02  0.72252069803E+03  0.72886530891E+03  0.77000000000E+02 0.  0.
   -5000001    1    1    2    0    0 -0.32143495644E+02 -0.47394885103E+02  0.63318657384E+03  0.64041683046E+03  0.77000000000E+02 0.  0.
<mgrwt>
<rscale>  0 0.19233141E+03</rscale>
<asrwt>0</asrwt>
<pdfrwt beam="1">  1        2 0.20961460E+00 0.19233141E+03</pdfrwt>
<pdfrwt beam="2">  1       -2 0.10442204E-02 0.19233141E+03</pdfrwt>
<totfact> 0.31744274E+04</totfact>
</mgrwt>
</event>
<event>
 4    1  0.6086918E-004  0.2267857E+03  0.7818608E-02  0.1128923E+00
         -2   -1    0    0    0  501 -0.00000000000E+00  0.00000000000E+00  0.44561929569E+03  0.44561929569E+03  0.25500000000E-02 0. -1.
          2   -1    0    0  501    0  0.00000000000E+00 -0.00000000000E+00 -0.28854097282E+02  0.28854097394E+02  0.25500000000E-02 0.  1.
    5000001    1    1    2    0    0  0.37831717087E+02  0.70413582940E+02  0.15978166742E+03  0.19454689081E+03  0.77000000000E+02 0.  0.
   -5000001    1    1    2    0    0 -0.37831717087E+02 -0.70413582940E+02  0.25698353099E+03  0.27992650228E+03  0.77000000000E+02 0.  0.
<mgrwt>
<rscale>  0 0.22678574E+03</rscale>
<asrwt>0</asrwt>
<pdfrwt beam="1">  1        2 0.44390920E-02 0.22678574E+03</pdfrwt>
<pdfrwt beam="2">  1       -2 0.68556813E-01 0.22678574E+03</pdfrwt>
<totfact> 0.36254930E+03</totfact>
</mgrwt>
</event>
<event>
 4    1  0.6086918E-004  0.1672276E+03  0.7818608E-02  0.1180770E+00
         -2   -1    0    0    0  501 -0.00000000000E+00  0.00000000000E+00  0.15407458797E+02  0.15407459008E+02  0.25500000000E-02 0. -1.
          2   -1    0    0  501    0  0.00000000000E+00 -0.00000000000E+00 -0.45375874241E+03  0.45375874241E+03  0.25500000000E-02 0.  1.
    5000001    1    1    2    0    0  0.29984606625E+02  0.68665264021E+01 -0.18895324825E+03  0.20634571923E+03  0.77000000000E+02 0.  0.
   -5000001    1    1    2    0    0 -0.29984606625E+02 -0.68665264021E+01 -0.24939803536E+03  0.26282048219E+03  0.77000000000E+02 0.  0.
<mgrwt>
<rscale>  0 0.16722762E+03</rscale>
<asrwt>0</asrwt>
<pdfrwt beam="1">  1        2 0.69809027E-01 0.16722762E+03</pdfrwt>
<pdfrwt beam="2">  1       -2 0.23703786E-02 0.16722762E+03</pdfrwt>
<totfact> 0.39615004E+04</totfact>
</mgrwt>
</event>
<event>
 4    1  0.6086918E-004  0.2392727E+03  0.7818608E-02  0.1120278E+00
          2   -1    0    0  501    0  0.00000000000E+00  0.00000000000E+00  0.10846370285E+03  0.10846370288E+03  0.25500000000E-02 0.  1.
         -2   -1    0    0    0  501 -0.00000000000E+00 -0.00000000000E+00 -0.13195983275E+03  0.13195983277E+03  0.25500000000E-02 0. -1.
    5000001    1    1    2    0    0  0.71940392762E+02  0.35535332891E+02 -0.56070000487E+02  0.12454326537E+03  0.77000000000E+02 0.  0.
   -5000001    1    1    2    0    0 -0.71940392762E+02 -0.35535332891E+02  0.32573870590E+02  0.11588027028E+03  0.77000000000E+02 0.  0.
<mgrwt>
<rscale>  0 0.23927267E+03</rscale>
<asrwt>0</asrwt>
<pdfrwt beam="1">  1        2 0.16686723E-01 0.23927267E+03</pdfrwt>
<pdfrwt beam="2">  1       -2 0.20301513E-01 0.23927267E+03</pdfrwt>
<totfact> 0.69160233E+03</totfact>
</mgrwt>
</event>
<event>
 4    1  0.6086918E-004  0.5053111E+03  0.7818608E-02  0.1012402E+00
         -2   -1    0    0    0  501 -0.00000000000E+00  0.00000000000E+00  0.10852380238E+03  0.10852380241E+03  0.25500000000E-02 0. -1.
          2   -1    0    0  501    0  0.00000000000E+00 -0.00000000000E+00 -0.58821048281E+03  0.58821048281E+03  0.25500000000E-02 0.  1.
    5000001    1    1    2    0    0  0.27562007390E+02  0.21739097462E+03 -0.37694666866E+03  0.44275985716E+03  0.77000000000E+02 0.  0.
   -5000001    1    1    2    0    0 -0.27562007390E+02 -0.21739097462E+03 -0.10274001176E+03  0.25397442807E+03  0.77000000000E+02 0.  0.
<mgrwt>
<rscale>  0 0.50531114E+03</rscale>
<asrwt>0</asrwt>
<pdfrwt beam="1">  1        2 0.90493919E-01 0.50531114E+03</pdfrwt>
<pdfrwt beam="2">  1       -2 0.16695970E-01 0.50531114E+03</pdfrwt>
<totfact> 0.14830044E+03</totfact>
</mgrwt>
</event>
<event>
 4    1  0.6086918E-004  0.5988604E+03  0.7818608E-02  0.9907773E-01
         -2   -1    0    0    0  501 -0.00000000000E+00  0.00000000000E+00  0.59364134621E+02  0.59364134676E+02  0.25500000000E-02 0. -1.
          2   -1    0    0  501    0  0.00000000000E+00 -0.00000000000E+00 -0.15103135080E+04  0.15103135080E+04  0.25500000000E-02 0.  1.
    5000001    1    1    2    0    0  0.25473091937E+03 -0.11691870216E+03 -0.91396914504E+03  0.95907581675E+03  0.77000000000E+02 0.  0.
   -5000001    1    1    2    0    0 -0.25473091937E+03  0.11691870216E+03 -0.53698022833E+03  0.61060182591E+03  0.77000000000E+02 0.  0.
<mgrwt>
<rscale>  0 0.59886043E+03</rscale>
<asrwt>0</asrwt>
<pdfrwt beam="1">  1        2 0.23235590E+00 0.59886043E+03</pdfrwt>
<pdfrwt beam="2">  1       -2 0.91329449E-02 0.59886043E+03</pdfrwt>
<totfact> 0.10148712E+03</totfact>
</mgrwt>
</event>
<event>
 4    1  0.6086918E-004  0.2746218E+03  0.7818608E-02  0.1098663E+00
         -2   -1    0    0    0  501 -0.00000000000E+00  0.00000000000E+00  0.76447700502E+01  0.76447704755E+01  0.25500000000E-02 0. -1.
          2   -1    0    0  501    0  0.00000000000E+00 -0.00000000000E+00 -0.24662977860E+04  0.24662977860E+04  0.25500000000E-02 0.  1.
    5000001    1    1    2    0    0  0.74880728523E+02 -0.84466684065E+02 -0.13513701001E+04  0.13582606126E+04  0.77000000000E+02 0.  0.
   -5000001    1    1    2    0    0 -0.74880728523E+02  0.84466684065E+02 -0.11072829158E+04  0.11156819439E+04  0.77000000000E+02 0.  0.
<mgrwt>
<rscale>  0 0.27462178E+03</rscale>
<asrwt>0</asrwt>
<pdfrwt beam="1">  1        2 0.37942980E+00 0.27462178E+03</pdfrwt>
<pdfrwt beam="2">  1       -2 0.11761205E-02 0.27462178E+03</pdfrwt>
<totfact> 0.70450141E+03</totfact>
</mgrwt>
</event>
<event>
 4    1  0.6086918E-004  0.5336894E+03  0.7818608E-02  0.1005341E+00
         -2   -1    0    0    0  501 -0.00000000000E+00  0.00000000000E+00  0.15330163682E+03  0.15330163685E+03  0.25500000000E-02 0. -1.
          2   -1    0    0  501    0  0.00000000000E+00 -0.00000000000E+00 -0.46448364547E+03  0.46448364547E+03  0.25500000000E-02 0.  1.
    5000001    1    1    2    0    0  0.33357688175E+02 -0.22147178307E+03 -0.29790497209E+03  0.38057700726E+03  0.77000000000E+02 0.  0.
   -5000001    1    1    2    0    0 -0.33357688175E+02  0.22147178307E+03 -0.13277036558E+02  0.23720827506E+03  0.77000000000E+02 0.  0.
<mgrwt>
<rscale>  0 0.53368943E+03</rscale>
<asrwt>0</asrwt>
<pdfrwt beam="1">  1        2 0.71459022E-01 0.53368943E+03</pdfrwt>
<pdfrwt beam="2">  1       -2 0.23584867E-01 0.53368943E+03</pdfrwt>
<totfact> 0.10699742E+03</totfact>
</mgrwt>
</event>
<event>
 4    1  0.6086918E-004  0.3622645E+03  0.7818608E-02  0.1057691E+00
         -2   -1    0    0    0  501 -0.00000000000E+00  0.00000000000E+00  0.28212518110E+02  0.28212518225E+02  0.25500000000E-02 0. -1.
          2   -1    0    0  501    0  0.00000000000E+00 -0.00000000000E+00 -0.11629196023E+04  0.11629196024E+04  0.25500000000E-02 0.  1.
    5000001    1    1    2    0    0 -0.13243778131E+03  0.59253192733E+02 -0.31631636775E+03  0.35642075034E+03  0.77000000000E+02 0.  0.
   -5000001    1    1    2    0    0  0.13243778131E+03 -0.59253192733E+02 -0.81839071649E+03  0.83471137024E+03  0.77000000000E+02 0.  0.
<mgrwt>
<rscale>  0 0.36226449E+03</rscale>
<asrwt>0</asrwt>
<pdfrwt beam="1">  1        2 0.17891067E+00 0.36226449E+03</pdfrwt>
<pdfrwt beam="2">  1       -2 0.43403883E-02 0.36226449E+03</pdfrwt>
<totfact> 0.51177358E+03</totfact>
</mgrwt>
</event>
<event>
 4    1  0.6086918E-004  0.3250650E+03  0.7818608E-02  0.1073342E+00
         -2   -1    0    0    0  501 -0.00000000000E+00  0.00000000000E+00  0.19387410426E+02  0.19387410594E+02  0.25500000000E-02 0. -1.
          2   -1    0    0  501    0  0.00000000000E+00 -0.00000000000E+00 -0.13625757380E+04  0.13625757380E+04  0.25500000000E-02 0.  1.
    5000001    1    1    2    0    0  0.89968703410E+02  0.10533268821E+03 -0.82478846052E+03  0.83987757882E+03  0.77000000000E+02 0.  0.
   -5000001    1    1    2    0    0 -0.89968703410E+02 -0.10533268821E+03 -0.51839986709E+03  0.54208556981E+03  0.77000000000E+02 0.  0.
<mgrwt>
<rscale>  0 0.32506501E+03</rscale>
<asrwt>0</asrwt>
<pdfrwt beam="1">  1        2 0.20962696E+00 0.32506501E+03</pdfrwt>
<pdfrwt beam="2">  1       -2 0.29826796E-02 0.32506501E+03</pdfrwt>
<totfact> 0.69419682E+03</totfact>
</mgrwt>
</event>
<event>
 4    1  0.6086918E-004  0.2503782E+03  0.7818608E-02  0.1113066E+00
         -2   -1    0    0    0  501 -0.00000000000E+00  0.00000000000E+00  0.24071186681E+02  0.24071186816E+02  0.25500000000E-02 0. -1.
          2   -1    0    0  501    0  0.00000000000E+00 -0.00000000000E+00 -0.65108153871E+03  0.65108153871E+03  0.25500000000E-02 0.  1.
    5000001    1    1    2    0    0 -0.37080457520E+02 -0.57010930900E+02 -0.50641747550E+03  0.51673287690E+03  0.77000000000E+02 0.  0.
   -5000001    1    1    2    0    0  0.37080457520E+02  0.57010930900E+02 -0.12059287652E+03  0.15841984863E+03  0.77000000000E+02 0.  0.
<mgrwt>
<rscale>  0 0.25037816E+03</rscale>
<asrwt>0</asrwt>
<pdfrwt beam="1">  1        2 0.10016638E+00 0.25037816E+03</pdfrwt>
<pdfrwt beam="2">  1       -2 0.37032600E-02 0.25037816E+03</pdfrwt>
<totfact> 0.13998990E+04</totfact>
</mgrwt>
</event>
<event>
 4    1  0.6086918E-004  0.2539605E+03  0.7818608E-02  0.1110827E+00
          2   -1    0    0  501    0  0.00000000000E+00  0.00000000000E+00  0.93507932793E+03  0.93507932794E+03  0.25500000000E-02 0.  1.
         -2   -1    0    0    0  501 -0.00000000000E+00 -0.00000000000E+00 -0.17243442070E+02  0.17243442259E+02  0.25500000000E-02 0. -1.
    5000001    1    1    2    0    0  0.36935746487E+02  0.80626517761E+02  0.63992911876E+03  0.65061752341E+03  0.77000000000E+02 0.  0.
   -5000001    1    1    2    0    0 -0.36935746487E+02 -0.80626517761E+02  0.27790676711E+03  0.30170524679E+03  0.77000000000E+02 0.  0.
<mgrwt>
<rscale>  0 0.25396052E+03</rscale>
<asrwt>0</asrwt>
<pdfrwt beam="1">  1        2 0.14385839E+00 0.25396052E+03</pdfrwt>
<pdfrwt beam="2">  1       -2 0.26528367E-02 0.25396052E+03</pdfrwt>
<totfact> 0.14573241E+04</totfact>
</mgrwt>
</event>
<event>
 4    1  0.6086918E-004  0.3579073E+03  0.7818608E-02  0.1059416E+00
          2   -1    0    0  501    0  0.00000000000E+00  0.00000000000E+00  0.25813644503E+03  0.25813644504E+03  0.25500000000E-02 0.  1.
         -2   -1    0    0    0  501 -0.00000000000E+00 -0.00000000000E+00 -0.12405997744E+03  0.12405997746E+03  0.25500000000E-02 0. -1.
    5000001    1    1    2    0    0 -0.92181202160E+02  0.10192276221E+03  0.15771104039E+03  0.22290669741E+03  0.77000000000E+02 0.  0.
   -5000001    1    1    2    0    0  0.92181202160E+02 -0.10192276221E+03 -0.23634572801E+02  0.15928972509E+03  0.77000000000E+02 0.  0.
<mgrwt>
<rscale>  0 0.35790726E+03</rscale>
<asrwt>0</asrwt>
<pdfrwt beam="1">  1        2 0.39713299E-01 0.35790726E+03</pdfrwt>
<pdfrwt beam="2">  1       -2 0.19086150E-01 0.35790726E+03</pdfrwt>
<totfact> 0.29466299E+03</totfact>
</mgrwt>
</event>
<event>
 4    1  0.6086918E-004  0.2286304E+03  0.7818608E-02  0.1127607E+00
          2   -1    0    0  501    0  0.00000000000E+00  0.00000000000E+00  0.10967127175E+04  0.10967127175E+04  0.25500000000E-02 0.  1.
         -2   -1    0    0    0  501 -0.00000000000E+00 -0.00000000000E+00 -0.11915575794E+02  0.11915576067E+02  0.25500000000E-02 0. -1.
    5000001    1    1    2    0    0 -0.63891726380E+02 -0.66138098791E+01  0.80856697736E+03  0.81476097848E+03  0.77000000000E+02 0.  0.
   -5000001    1    1    2    0    0  0.63891726380E+02  0.66138098791E+01  0.27623016432E+03  0.29386731506E+03  0.77000000000E+02 0.  0.
<mgrwt>
<rscale>  0 0.22863039E+03</rscale>
<asrwt>0</asrwt>
<pdfrwt beam="1">  1        2 0.16872506E+00 0.22863039E+03</pdfrwt>
<pdfrwt beam="2">  1       -2 0.18331652E-02 0.22863039E+03</pdfrwt>
<totfact> 0.19937585E+04</totfact>
</mgrwt>
</event>
<event>
 4    1  0.6086918E-004  0.3322639E+03  0.7818608E-02  0.1070140E+00
         -2   -1    0    0    0  501 -0.00000000000E+00  0.00000000000E+00  0.29146900125E+03  0.29146900127E+03  0.25500000000E-02 0. -1.
          2   -1    0    0  501    0  0.00000000000E+00 -0.00000000000E+00 -0.94692149244E+02  0.94692149278E+02  0.25500000000E-02 0.  1.
    5000001    1    1    2    0    0  0.12421187844E+03  0.78947638786E+02  0.10197169041E+03  0.19490650595E+03  0.77000000000E+02 0.  0.
   -5000001    1    1    2    0    0 -0.12421187844E+03 -0.78947638786E+02  0.94805161601E+02  0.19125464460E+03  0.77000000000E+02 0.  0.
<mgrwt>
<rscale>  0 0.33226391E+03</rscale>
<asrwt>0</asrwt>
<pdfrwt beam="1">  1        2 0.14568023E-01 0.33226391E+03</pdfrwt>
<pdfrwt beam="2">  1       -2 0.44841384E-01 0.33226391E+03</pdfrwt>
<totfact> 0.19323518E+03</totfact>
</mgrwt>
</event>
<event>
 4    1  0.6086918E-004  0.1917828E+03  0.7818608E-02  0.1156863E+00
         -2   -1    0    0    0  501 -0.00000000000E+00  0.00000000000E+00  0.49558967361E+01  0.49558973922E+01  0.25500000000E-02 0. -1.
          2   -1    0    0  501    0  0.00000000000E+00 -0.00000000000E+00 -0.18553980611E+04  0.18553980611E+04  0.25500000000E-02 0.  1.
    5000001    1    1    2    0    0 -0.69194505493E+01  0.56271823167E+02 -0.99501277123E+03  0.99959682462E+03  0.77000000000E+02 0.  0.
   -5000001    1    1    2    0    0  0.69194505493E+01 -0.56271823167E+02 -0.85542939313E+03  0.86075713387E+03  0.77000000000E+02 0.  0.
<mgrwt>
<rscale>  0 0.19178281E+03</rscale>
<asrwt>0</asrwt>
<pdfrwt beam="1">  1        2 0.28544530E+00 0.19178281E+03</pdfrwt>
<pdfrwt beam="2">  1       -2 0.76244718E-03 0.19178281E+03</pdfrwt>
<totfact> 0.27507076E+04</totfact>
</mgrwt>
</event>
<event>
 4    1  0.6086918E-004  0.3046897E+03  0.7818608E-02  0.1082920E+00
          2   -1    0    0  501    0  0.00000000000E+00  0.00000000000E+00  0.18009119119E+04  0.18009119119E+04  0.25500000000E-02 0.  1.
         -2   -1    0    0    0  501 -0.00000000000E+00 -0.00000000000E+00 -0.12887332226E+02  0.12887332478E+02  0.25500000000E-02 0. -1.
    5000001    1    1    2    0    0 -0.73235270733E+02  0.98973971510E+02  0.61987322377E+03  0.63665615952E+03  0.77000000000E+02 0.  0.
   -5000001    1    1    2    0    0  0.73235270733E+02 -0.98973971510E+02  0.11681513559E+04  0.11771430849E+04  0.77000000000E+02 0.  0.
<mgrwt>
<rscale>  0 0.30468968E+03</rscale>
<asrwt>0</asrwt>
<pdfrwt beam="1">  1        2 0.27706317E+00 0.30468968E+03</pdfrwt>
<pdfrwt beam="2">  1       -2 0.19826679E-02 0.30468968E+03</pdfrwt>
<totfact> 0.74113415E+03</totfact>
</mgrwt>
</event>
<event>
 4    1  0.6086918E-004  0.2229218E+03  0.7818608E-02  0.1131723E+00
         -2   -1    0    0    0  501 -0.00000000000E+00  0.00000000000E+00  0.23361616159E+02  0.23361616298E+02  0.25500000000E-02 0. -1.
          2   -1    0    0  501    0  0.00000000000E+00 -0.00000000000E+00 -0.53179228469E+03  0.53179228470E+03  0.25500000000E-02 0.  1.
    5000001    1    1    2    0    0  0.24625687622E+02  0.66225519335E+02 -0.35073968102E+03  0.36597755088E+03  0.77000000000E+02 0.  0.
   -5000001    1    1    2    0    0 -0.24625687622E+02 -0.66225519335E+02 -0.15769098751E+03  0.18917635012E+03  0.77000000000E+02 0.  0.
<mgrwt>
<rscale>  0 0.22292176E+03</rscale>
<asrwt>0</asrwt>
<pdfrwt beam="1">  1        2 0.81814189E-01 0.22292176E+03</pdfrwt>
<pdfrwt beam="2">  1       -2 0.35940952E-02 0.22292176E+03</pdfrwt>
<totfact> 0.18370248E+04</totfact>
</mgrwt>
</event>
<event>
 4    1  0.6086918E-004  0.4631517E+03  0.7818608E-02  0.1023871E+00
         -2   -1    0    0    0  501 -0.00000000000E+00  0.00000000000E+00  0.61201990977E+02  0.61201991030E+02  0.25500000000E-02 0. -1.
          2   -1    0    0  501    0  0.00000000000E+00 -0.00000000000E+00 -0.87623594355E+03  0.87623594355E+03  0.25500000000E-02 0.  1.
    5000001    1    1    2    0    0  0.18790820363E+03 -0.10418601861E+03 -0.32823851031E+03  0.39979211988E+03  0.77000000000E+02 0.  0.
   -5000001    1    1    2    0    0 -0.18790820363E+03  0.10418601861E+03 -0.48679544226E+03  0.53764581471E+03  0.77000000000E+02 0.  0.
<mgrwt>
<rscale>  0 0.46315174E+03</rscale>
<asrwt>0</asrwt>
<pdfrwt beam="1">  1        2 0.13480552E+00 0.46315174E+03</pdfrwt>
<pdfrwt beam="2">  1       -2 0.94156916E-02 0.46315174E+03</pdfrwt>
<totfact> 0.23074819E+03</totfact>
</mgrwt>
</event>
<event>
 4    1  0.6086918E-004  0.1698234E+03  0.7818608E-02  0.1178032E+00
          2   -1    0    0  501    0  0.00000000000E+00  0.00000000000E+00  0.31629663050E+03  0.31629663051E+03  0.25500000000E-02 0.  1.
         -2   -1    0    0    0  501 -0.00000000000E+00 -0.00000000000E+00 -0.22795045771E+02  0.22795045913E+02  0.25500000000E-02 0. -1.
    5000001    1    1    2    0    0  0.23153245889E+02 -0.18246650212E+02  0.10622240288E+03  0.13446639696E+03  0.77000000000E+02 0.  0.
   -5000001    1    1    2    0    0 -0.23153245889E+02  0.18246650212E+02  0.18727918185E+03  0.20462527946E+03  0.77000000000E+02 0.  0.
<mgrwt>
<rscale>  0 0.16982339E+03</rscale>
<asrwt>0</asrwt>
<pdfrwt beam="1">  1        2 0.48661021E-01 0.16982339E+03</pdfrwt>
<pdfrwt beam="2">  1       -2 0.35069301E-02 0.16982339E+03</pdfrwt>
<totfact> 0.32809464E+04</totfact>
</mgrwt>
</event>
<event>
 4    1  0.6086918E-004  0.3962106E+03  0.7818608E-02  0.1045100E+00
          2   -1    0    0  501    0  0.00000000000E+00  0.00000000000E+00  0.39346454257E+03  0.39346454258E+03  0.25500000000E-02 0.  1.
         -2   -1    0    0    0  501 -0.00000000000E+00 -0.00000000000E+00 -0.99743943531E+02  0.99743943564E+02  0.25500000000E-02 0. -1.
    5000001    1    1    2    0    0 -0.11161802810E+03 -0.90294798727E+02  0.28717116478E+03  0.33016361513E+03  0.77000000000E+02 0.  0.
   -5000001    1    1    2    0    0  0.11161802810E+03  0.90294798727E+02  0.65494342575E+01  0.16304487101E+03  0.77000000000E+02 0.  0.
<mgrwt>
<rscale>  0 0.39621058E+03</rscale>
<asrwt>0</asrwt>
<pdfrwt beam="1">  1        2 0.60533007E-01 0.39621058E+03</pdfrwt>
<pdfrwt beam="2">  1       -2 0.15345222E-01 0.39621058E+03</pdfrwt>
<totfact> 0.26952821E+03</totfact>
</mgrwt>
</event>
<event>
 4    1  0.6086918E-004  0.4438905E+03  0.7818608E-02  0.1029560E+00
         -2   -1    0    0    0  501 -0.00000000000E+00  0.00000000000E+00  0.27026257755E+02  0.27026257875E+02  0.25500000000E-02 0. -1.
          2   -1    0    0  501    0  0.00000000000E+00 -0.00000000000E+00 -0.18226606923E+04  0.18226606923E+04  0.25500000000E-02 0.  1.
    5000001    1    1    2    0    0  0.15560885363E+03  0.13641915793E+03 -0.80404646195E+03  0.83381293763E+03  0.77000000000E+02 0.  0.
   -5000001    1    1    2    0    0 -0.15560885363E+03 -0.13641915793E+03 -0.99158797264E+03  0.10158740126E+04  0.77000000000E+02 0.  0.
<mgrwt>
<rscale>  0 0.44389052E+03</rscale>
<asrwt>0</asrwt>
<pdfrwt beam="1">  1        2 0.28040924E+00 0.44389052E+03</pdfrwt>
<pdfrwt beam="2">  1       -2 0.41578872E-02 0.44389052E+03</pdfrwt>
<totfact> 0.23712285E+03</totfact>
</mgrwt>
</event>
<event>
 4    1  0.6086918E-004  0.2320841E+03  0.7818608E-02  0.1125181E+00
          2   -1    0    0  501    0  0.00000000000E+00  0.00000000000E+00  0.18808706640E+04  0.18808706640E+04  0.25500000000E-02 0.  1.
         -2   -1    0    0    0  501 -0.00000000000E+00 -0.00000000000E+00 -0.71593211840E+01  0.71593216381E+01  0.25500000000E-02 0. -1.
    5000001    1    1    2    0    0 -0.22588142799E+02  0.81741494715E+02  0.10879283156E+04  0.10939419162E+04  0.77000000000E+02 0.  0.
   -5000001    1    1    2    0    0  0.22588142799E+02 -0.81741494715E+02  0.78578302727E+03  0.79408806948E+03  0.77000000000E+02 0.  0.
<mgrwt>
<rscale>  0 0.23208410E+03</rscale>
<asrwt>0</asrwt>
<pdfrwt beam="1">  1        2 0.28936470E+00 0.23208410E+03</pdfrwt>
<pdfrwt beam="2">  1       -2 0.11014341E-02 0.23208410E+03</pdfrwt>
<totfact> 0.15814978E+04</totfact>
</mgrwt>
</event>
<event>
 4    1  0.6086918E-004  0.3042295E+03  0.7818608E-02  0.1083145E+00
          2   -1    0    0  501    0  0.00000000000E+00  0.00000000000E+00  0.53514870135E+03  0.53514870135E+03  0.25500000000E-02 0.  1.
         -2   -1    0    0    0  501 -0.00000000000E+00 -0.00000000000E+00 -0.43238251220E+02  0.43238251296E+02  0.25500000000E-02 0. -1.
    5000001    1    1    2    0    0  0.94428073394E+02  0.71734495712E+02  0.35261307510E+03  0.37990456650E+03  0.77000000000E+02 0.  0.
   -5000001    1    1    2    0    0 -0.94428073394E+02 -0.71734495712E+02  0.13929737503E+03  0.19848238614E+03  0.77000000000E+02 0.  0.
<mgrwt>
<rscale>  0 0.30422948E+03</rscale>
<asrwt>0</asrwt>
<pdfrwt beam="1">  1        2 0.82330576E-01 0.30422948E+03</pdfrwt>
<pdfrwt beam="2">  1       -2 0.66520381E-02 0.30422948E+03</pdfrwt>
<totfact> 0.72636664E+03</totfact>
</mgrwt>
</event>
<event>
 4    1  0.6086918E-004  0.1926899E+03  0.7818608E-02  0.1156057E+00
         -2   -1    0    0    0  501 -0.00000000000E+00  0.00000000000E+00  0.13759340013E+03  0.13759340015E+03  0.25500000000E-02 0. -1.
          2   -1    0    0  501    0  0.00000000000E+00 -0.00000000000E+00 -0.67462199967E+02  0.67462200015E+02  0.25500000000E-02 0.  1.
    5000001    1    1    2    0    0 -0.44299796077E+02  0.24612803443E+02  0.52479981327E+01  0.92329862505E+02  0.77000000000E+02 0.  0.
   -5000001    1    1    2    0    0  0.44299796077E+02 -0.24612803443E+02  0.64883202029E+02  0.11272573766E+03  0.77000000000E+02 0.  0.
<mgrwt>
<rscale>  0 0.19268994E+03</rscale>
<asrwt>0</asrwt>
<pdfrwt beam="1">  1        2 0.10378800E-01 0.19268994E+03</pdfrwt>
<pdfrwt beam="2">  1       -2 0.21168215E-01 0.19268994E+03</pdfrwt>
<totfact> 0.11234794E+04</totfact>
</mgrwt>
</event>
<event>
 4    1  0.6086918E-004  0.2853845E+03  0.7818608E-02  0.1092784E+00
          2   -1    0    0  501    0  0.00000000000E+00  0.00000000000E+00  0.10615785044E+04  0.10615785044E+04  0.25500000000E-02 0.  1.
         -2   -1    0    0    0  501 -0.00000000000E+00 -0.00000000000E+00 -0.19179999727E+02  0.19179999897E+02  0.25500000000E-02 0. -1.
    5000001    1    1    2    0    0 -0.28808436311E+02 -0.38007376727E+02  0.10363622812E+03  0.13763703887E+03  0.77000000000E+02 0.  0.
   -5000001    1    1    2    0    0  0.28808436311E+02  0.38007376727E+02  0.93876227655E+03  0.94312146543E+03  0.77000000000E+02 0.  0.
<mgrwt>
<rscale>  0 0.28538448E+03</rscale>
<asrwt>0</asrwt>
<pdfrwt beam="1">  1        2 0.16331978E+00 0.28538448E+03</pdfrwt>
<pdfrwt beam="2">  1       -2 0.29507690E-02 0.28538448E+03</pdfrwt>
<totfact> 0.10449063E+04</totfact>
</mgrwt>
</event>
<event>
 4    1  0.6086918E-004  0.2243613E+03  0.7818608E-02  0.1130673E+00
          2   -1    0    0  501    0  0.00000000000E+00  0.00000000000E+00  0.72617497211E+02  0.72617497256E+02  0.25500000000E-02 0.  1.
         -2   -1    0    0    0  501 -0.00000000000E+00 -0.00000000000E+00 -0.17329847207E+03  0.17329847209E+03  0.25500000000E-02 0. -1.
    5000001    1    1    2    0    0 -0.55138944449E+02 -0.27000519834E+02 -0.10922481081E+03  0.14706593951E+03  0.77000000000E+02 0.  0.
   -5000001    1    1    2    0    0  0.55138944449E+02  0.27000519834E+02  0.85438359531E+01  0.98850029838E+02  0.77000000000E+02 0.  0.
<mgrwt>
<rscale>  0 0.22436133E+03</rscale>
<asrwt>0</asrwt>
<pdfrwt beam="1">  1        2 0.11171923E-01 0.22436133E+03</pdfrwt>
<pdfrwt beam="2">  1       -2 0.26661303E-01 0.22436133E+03</pdfrwt>
<totfact> 0.69271547E+03</totfact>
</mgrwt>
</event>
<event>
 4    1  0.6086918E-004  0.2331890E+03  0.7818608E-02  0.1124415E+00
         -2   -1    0    0    0  501 -0.00000000000E+00  0.00000000000E+00  0.15257439675E+02  0.15257439888E+02  0.25500000000E-02 0. -1.
          2   -1    0    0  501    0  0.00000000000E+00 -0.00000000000E+00 -0.89099304819E+03  0.89099304819E+03  0.25500000000E-02 0.  1.
    5000001    1    1    2    0    0 -0.16832961922E+02 -0.85131373832E+02 -0.39278407614E+03  0.40955955597E+03  0.77000000000E+02 0.  0.
   -5000001    1    1    2    0    0  0.16832961922E+02  0.85131373832E+02 -0.48295153237E+03  0.49669093211E+03  0.77000000000E+02 0.  0.
<mgrwt>
<rscale>  0 0.23318896E+03</rscale>
<asrwt>0</asrwt>
<pdfrwt beam="1">  1        2 0.13707581E+00 0.23318896E+03</pdfrwt>
<pdfrwt beam="2">  1       -2 0.23472991E-02 0.23318896E+03</pdfrwt>
<totfact> 0.18556700E+04</totfact>
</mgrwt>
</event>
<event>
 4    1  0.6086918E-004  0.3486803E+03  0.7818608E-02  0.1063158E+00
          2   -1    0    0  501    0  0.00000000000E+00  0.00000000000E+00  0.45708308682E+02  0.45708308753E+02  0.25500000000E-02 0.  1.
         -2   -1    0    0    0  501 -0.00000000000E+00 -0.00000000000E+00 -0.66496629560E+03  0.66496629561E+03  0.25500000000E-02 0. -1.
    5000001    1    1    2    0    0 -0.92731240268E+02 -0.97340487665E+02 -0.14668600601E+03  0.21335425428E+03  0.77000000000E+02 0.  0.
   -5000001    1    1    2    0    0  0.92731240268E+02  0.97340487665E+02 -0.47257198091E+03  0.49732035008E+03  0.77000000000E+02 0.  0.
<mgrwt>
<rscale>  0 0.34868028E+03</rscale>
<asrwt>0</asrwt>
<pdfrwt beam="1">  1        2 0.70320480E-02 0.34868028E+03</pdfrwt>
<pdfrwt beam="2">  1       -2 0.10230250E+00 0.34868028E+03</pdfrwt>
<totfact> 0.82083228E+02</totfact>
</mgrwt>
</event>
<event>
 4    1  0.6086918E-004  0.2941745E+03  0.7818608E-02  0.1088190E+00
          2   -1    0    0  501    0  0.00000000000E+00  0.00000000000E+00  0.25650621031E+04  0.25650621031E+04  0.25500000000E-02 0.  1.
         -2   -1    0    0    0  501 -0.00000000000E+00 -0.00000000000E+00 -0.84343619649E+01  0.84343623504E+01  0.25500000000E-02 0. -1.
    5000001    1    1    2    0    0  0.33308293958E+02 -0.11685356864E+03  0.15467372414E+04  0.15534121452E+04  0.77000000000E+02 0.  0.
   -5000001    1    1    2    0    0 -0.33308293958E+02  0.11685356864E+03  0.10098904997E+04  0.10200843202E+04  0.77000000000E+02 0.  0.
<mgrwt>
<rscale>  0 0.29417452E+03</rscale>
<asrwt>0</asrwt>
<pdfrwt beam="1">  1        2 0.39462455E+00 0.29417452E+03</pdfrwt>
<pdfrwt beam="2">  1       -2 0.12975954E-02 0.29417452E+03</pdfrwt>
<totfact> 0.53838646E+03</totfact>
</mgrwt>
</event>
<event>
 4    1  0.6086918E-004  0.2927732E+03  0.7818608E-02  0.1088910E+00
          2   -1    0    0  501    0  0.00000000000E+00  0.00000000000E+00  0.28583606703E+03  0.28583606704E+03  0.25500000000E-02 0.  1.
         -2   -1    0    0    0  501 -0.00000000000E+00 -0.00000000000E+00 -0.74969670287E+02  0.74969670331E+02  0.25500000000E-02 0. -1.
    5000001    1    1    2    0    0  0.10068928976E+03  0.23808906653E+01  0.19562431991E+03  0.23311344074E+03  0.77000000000E+02 0.  0.
   -5000001    1    1    2    0    0 -0.10068928976E+03 -0.23808906653E+01  0.15242076834E+02  0.12769229663E+03  0.77000000000E+02 0.  0.
<mgrwt>
<rscale>  0 0.29277319E+03</rscale>
<asrwt>0</asrwt>
<pdfrwt beam="1">  1        2 0.43974779E-01 0.29277319E+03</pdfrwt>
<pdfrwt beam="2">  1       -2 0.11533796E-01 0.29277319E+03</pdfrwt>
<totfact> 0.60523022E+03</totfact>
</mgrwt>
</event>
<event>
 4    1  0.6086918E-004  0.3279228E+03  0.7818608E-02  0.1072060E+00
         -2   -1    0    0    0  501 -0.00000000000E+00  0.00000000000E+00  0.25318158155E+02  0.25318158283E+02  0.25500000000E-02 0. -1.
          2   -1    0    0  501    0  0.00000000000E+00 -0.00000000000E+00 -0.10618207418E+04  0.10618207418E+04  0.25500000000E-02 0.  1.
    5000001    1    1    2    0    0 -0.77520839842E+02 -0.27305478394E+02 -0.91329621078E+03  0.92021412638E+03  0.77000000000E+02 0.  0.
   -5000001    1    1    2    0    0  0.77520839842E+02  0.27305478394E+02 -0.12320637283E+03  0.16692477368E+03  0.77000000000E+02 0.  0.
<mgrwt>
<rscale>  0 0.32792283E+03</rscale>
<asrwt>0</asrwt>
<pdfrwt beam="1">  1        2 0.16335700E+00 0.32792283E+03</pdfrwt>
<pdfrwt beam="2">  1       -2 0.38951021E-02 0.32792283E+03</pdfrwt>
<totfact> 0.69099454E+03</totfact>
</mgrwt>
</event>
<event>
 4    1  0.6086918E-004  0.2709788E+03  0.7818608E-02  0.1100721E+00
         -2   -1    0    0    0  501 -0.00000000000E+00  0.00000000000E+00  0.11545800713E+03  0.11545800716E+03  0.25500000000E-02 0. -1.
          2   -1    0    0  501    0  0.00000000000E+00 -0.00000000000E+00 -0.15899609124E+03  0.15899609126E+03  0.25500000000E-02 0.  1.
    5000001    1    1    2    0    0  0.63887974054E+02 -0.74290202276E+02  0.32088733108E+02  0.12868330962E+03  0.77000000000E+02 0.  0.
   -5000001    1    1    2    0    0 -0.63887974054E+02  0.74290202276E+02 -0.75626817219E+02  0.14577078879E+03  0.77000000000E+02 0.  0.
<mgrwt>
<rscale>  0 0.27097876E+03</rscale>
<asrwt>0</asrwt>
<pdfrwt beam="1">  1        2 0.24460937E-01 0.27097876E+03</pdfrwt>
<pdfrwt beam="2">  1       -2 0.17762770E-01 0.27097876E+03</pdfrwt>
<totfact> 0.56328351E+03</totfact>
</mgrwt>
</event>
<event>
 4    1  0.6086918E-004  0.2694266E+03  0.7818608E-02  0.1101608E+00
          2   -1    0    0  501    0  0.00000000000E+00  0.00000000000E+00  0.19216176400E+04  0.19216176400E+04  0.25500000000E-02 0.  1.
         -2   -1    0    0    0  501 -0.00000000000E+00 -0.00000000000E+00 -0.94439574774E+01  0.94439578217E+01  0.25500000000E-02 0. -1.
    5000001    1    1    2    0    0  0.33934628209E+02 -0.61124280848E+02  0.15697575976E+04  0.15731991775E+04  0.77000000000E+02 0.  0.
   -5000001    1    1    2    0    0 -0.33934628209E+02  0.61124280848E+02  0.34241608485E+03  0.35786242030E+03  0.77000000000E+02 0.  0.
<mgrwt>
<rscale>  0 0.26942662E+03</rscale>
<asrwt>0</asrwt>
<pdfrwt beam="1">  1        2 0.29563342E+00 0.26942662E+03</pdfrwt>
<pdfrwt beam="2">  1       -2 0.14529169E-02 0.26942662E+03</pdfrwt>
<totfact> 0.10095311E+04</totfact>
</mgrwt>
</event>
<event>
 4    1  0.6086918E-004  0.2175930E+03  0.7818608E-02  0.1135690E+00
          2   -1    0    0  501    0  0.00000000000E+00  0.00000000000E+00  0.11477291938E+03  0.11477291941E+03  0.25500000000E-02 0.  1.
         -2   -1    0    0    0  501 -0.00000000000E+00 -0.00000000000E+00 -0.10313129607E+03  0.10313129610E+03  0.25500000000E-02 0. -1.
    5000001    1    1    2    0    0 -0.16648409997E+02  0.73751938634E+02 -0.80250945513E+01  0.10821238446E+03  0.77000000000E+02 0.  0.
   -5000001    1    1    2    0    0  0.16648409997E+02 -0.73751938634E+02  0.19666717860E+02  0.10969183105E+03  0.77000000000E+02 0.  0.
<mgrwt>
<rscale>  0 0.21759301E+03</rscale>
<asrwt>0</asrwt>
<pdfrwt beam="1">  1        2 0.17657372E-01 0.21759301E+03</pdfrwt>
<pdfrwt beam="2">  1       -2 0.15866353E-01 0.21759301E+03</pdfrwt>
<totfact> 0.97548165E+03</totfact>
</mgrwt>
</event>
<event>
 4    1  0.6086918E-004  0.3629150E+03  0.7818608E-02  0.1057436E+00
          2   -1    0    0  501    0  0.00000000000E+00  0.00000000000E+00  0.17477278550E+04  0.17477278550E+04  0.25500000000E-02 0.  1.
         -2   -1    0    0    0  501 -0.00000000000E+00 -0.00000000000E+00 -0.18839785879E+02  0.18839786052E+02  0.25500000000E-02 0. -1.
    5000001    1    1    2    0    0 -0.14566617940E+03  0.71844989679E+02  0.98540269295E+03  0.10016625208E+04  0.77000000000E+02 0.  0.
   -5000001    1    1    2    0    0  0.14566617940E+03 -0.71844989679E+02  0.74348537618E+03  0.76490512023E+03  0.77000000000E+02 0.  0.
<mgrwt>
<rscale>  0 0.36291497E+03</rscale>
<asrwt>0</asrwt>
<pdfrwt beam="1">  1        2 0.26888115E+00 0.36291497E+03</pdfrwt>
<pdfrwt beam="2">  1       -2 0.28984293E-02 0.36291497E+03</pdfrwt>
<totfact> 0.44971860E+03</totfact>
</mgrwt>
</event>
<event>
 4    1  0.6086918E-004  0.1982353E+03  0.7818608E-02  0.1151237E+00
         -2   -1    0    0    0  501 -0.00000000000E+00  0.00000000000E+00  0.22301222961E+02  0.22301223107E+02  0.25500000000E-02 0. -1.
          2   -1    0    0  501    0  0.00000000000E+00 -0.00000000000E+00 -0.44052764843E+03  0.44052764844E+03  0.25500000000E-02 0.  1.
    5000001    1    1    2    0    0 -0.59561778443E+02  0.17120028443E+02 -0.19186064222E+03  0.21582448160E+03  0.77000000000E+02 0.  0.
   -5000001    1    1    2    0    0  0.59561778443E+02 -0.17120028443E+02 -0.22636578325E+03  0.24700438995E+03  0.77000000000E+02 0.  0.
<mgrwt>
<rscale>  0 0.19823527E+03</rscale>
<asrwt>0</asrwt>
<pdfrwt beam="1">  1        2 0.67773478E-01 0.19823527E+03</pdfrwt>
<pdfrwt beam="2">  1       -2 0.34309577E-02 0.19823527E+03</pdfrwt>
<totfact> 0.24054308E+04</totfact>
</mgrwt>
</event>
<event>
 4    1  0.6086918E-004  0.2986675E+03  0.7818608E-02  0.1085909E+00
         -2   -1    0    0    0  501 -0.00000000000E+00  0.00000000000E+00  0.26341072188E+02  0.26341072311E+02  0.25500000000E-02 0. -1.
          2   -1    0    0  501    0  0.00000000000E+00 -0.00000000000E+00 -0.84660835561E+03  0.84660835562E+03  0.25500000000E-02 0.  1.
    5000001    1    1    2    0    0  0.11450879395E+03  0.56616190221E+02 -0.43159493108E+03  0.45664082321E+03  0.77000000000E+02 0.  0.
   -5000001    1    1    2    0    0 -0.11450879395E+03 -0.56616190221E+02 -0.38867235234E+03  0.41630860472E+03  0.77000000000E+02 0.  0.
<mgrwt>
<rscale>  0 0.29866752E+03</rscale>
<asrwt>0</asrwt>
<pdfrwt beam="1">  1        2 0.13024742E+00 0.29866752E+03</pdfrwt>
<pdfrwt beam="2">  1       -2 0.40524733E-02 0.29866752E+03</pdfrwt>
<totfact> 0.88841961E+03</totfact>
</mgrwt>
</event>
<event>
 4    1  0.6086918E-004  0.2244335E+03  0.7818608E-02  0.1130620E+00
         -2   -1    0    0    0  501 -0.00000000000E+00  0.00000000000E+00  0.43126796593E+02  0.43126796668E+02  0.25500000000E-02 0. -1.
          2   -1    0    0  501    0  0.00000000000E+00 -0.00000000000E+00 -0.29199005462E+03  0.29199005464E+03  0.25500000000E-02 0.  1.
    5000001    1    1    2    0    0 -0.76358362668E+02 -0.35729794278E+01 -0.81667812302E+02  0.13580131552E+03  0.77000000000E+02 0.  0.
   -5000001    1    1    2    0    0  0.76358362668E+02  0.35729794278E+01 -0.16719544573E+03  0.19931553578E+03  0.77000000000E+02 0.  0.
<mgrwt>
<rscale>  0 0.22443347E+03</rscale>
<asrwt>0</asrwt>
<pdfrwt beam="1">  1        2 0.44921546E-01 0.22443347E+03</pdfrwt>
<pdfrwt beam="2">  1       -2 0.66348920E-02 0.22443347E+03</pdfrwt>
<totfact> 0.13942625E+04</totfact>
</mgrwt>
</event>
<event>
 4    1  0.6086918E-004  0.4193634E+03  0.7818608E-02  0.1037274E+00
          2   -1    0    0  501    0  0.00000000000E+00  0.00000000000E+00  0.16065055511E+04  0.16065055511E+04  0.25500000000E-02 0.  1.
         -2   -1    0    0    0  501 -0.00000000000E+00 -0.00000000000E+00 -0.27367734635E+02  0.27367734754E+02  0.25500000000E-02 0. -1.
    5000001    1    1    2    0    0 -0.82683663093E+02  0.17620934651E+03  0.74167789896E+03  0.77065000341E+03  0.77000000000E+02 0.  0.
   -5000001    1    1    2    0    0  0.82683663093E+02 -0.17620934651E+03  0.83745991747E+03  0.86322328242E+03  0.77000000000E+02 0.  0.
<mgrwt>
<rscale>  0 0.41936341E+03</rscale>
<asrwt>0</asrwt>
<pdfrwt beam="1">  1        2 0.24715474E+00 0.41936341E+03</pdfrwt>
<pdfrwt beam="2">  1       -2 0.42104201E-02 0.41936341E+03</pdfrwt>
<totfact> 0.30402504E+03</totfact>
</mgrwt>
</event>
<event>
 4    1  0.6086918E-004  0.3897712E+03  0.7818608E-02  0.1047380E+00
          2   -1    0    0  501    0  0.00000000000E+00  0.00000000000E+00  0.34447547691E+04  0.34447547691E+04  0.25500000000E-02 0.  1.
         -2   -1    0    0    0  501 -0.00000000000E+00 -0.00000000000E+00 -0.11025571444E+02  0.11025571739E+02  0.25500000000E-02 0. -1.
    5000001    1    1    2    0    0 -0.47332379328E+02  0.14161159421E+03  0.84107686026E+03  0.85769078497E+03  0.77000000000E+02 0.  0.
   -5000001    1    1    2    0    0  0.47332379328E+02 -0.14161159421E+03  0.25926523374E+04  0.25980895559E+04  0.77000000000E+02 0.  0.
<mgrwt>
<rscale>  0 0.38977117E+03</rscale>
<asrwt>0</asrwt>
<pdfrwt beam="1">  1        2 0.52996206E+00 0.38977117E+03</pdfrwt>
<pdfrwt beam="2">  1       -2 0.16962425E-02 0.38977117E+03</pdfrwt>
<totfact> 0.10647207E+03</totfact>
</mgrwt>
</event>
<event>
 4    1  0.6086918E-004  0.2165293E+03  0.7818608E-02  0.1136497E+00
          2   -1    0    0  501    0  0.00000000000E+00  0.00000000000E+00  0.19017134761E+04  0.19017134761E+04  0.25500000000E-02 0.  1.
         -2   -1    0    0    0  501 -0.00000000000E+00 -0.00000000000E+00 -0.61635105580E+01  0.61635110855E+01  0.25500000000E-02 0. -1.
    5000001    1    1    2    0    0 -0.42328015235E+02  0.58055806634E+02  0.72659977973E+03  0.73419233002E+03  0.77000000000E+02 0.  0.
   -5000001    1    1    2    0    0  0.42328015235E+02 -0.58055806634E+02  0.11689501858E+04  0.11736846571E+04  0.77000000000E+02 0.  0.
<mgrwt>
<rscale>  0 0.21652927E+03</rscale>
<asrwt>0</asrwt>
<pdfrwt beam="1">  1        2 0.29257152E+00 0.21652927E+03</pdfrwt>
<pdfrwt beam="2">  1       -2 0.94823173E-03 0.21652927E+03</pdfrwt>
<totfact> 0.19112905E+04</totfact>
</mgrwt>
</event>
<event>
 4    1  0.6086918E-004  0.2252339E+03  0.7818608E-02  0.1130040E+00
          2   -1    0    0  501    0  0.00000000000E+00  0.00000000000E+00  0.33365254751E+03  0.33365254752E+03  0.25500000000E-02 0.  1.
         -2   -1    0    0    0  501 -0.00000000000E+00 -0.00000000000E+00 -0.38011314909E+02  0.38011314995E+02  0.25500000000E-02 0. -1.
    5000001    1    1    2    0    0  0.81213390311E+02  0.72232713041E+01  0.13084905276E+03  0.17233184564E+03  0.77000000000E+02 0.  0.
   -5000001    1    1    2    0    0 -0.81213390311E+02 -0.72232713041E+01  0.16479217985E+03  0.19933201688E+03  0.77000000000E+02 0.  0.
<mgrwt>
<rscale>  0 0.22523385E+03</rscale>
<asrwt>0</asrwt>
<pdfrwt beam="1">  1        2 0.51331161E-01 0.22523385E+03</pdfrwt>
<pdfrwt beam="2">  1       -2 0.58478946E-02 0.22523385E+03</pdfrwt>
<totfact> 0.14669318E+04</totfact>
</mgrwt>
</event>
<event>
 4    1  0.6086918E-004  0.2740042E+03  0.7818608E-02  0.1099010E+00
          2   -1    0    0  501    0  0.00000000000E+00  0.00000000000E+00  0.32243054993E+03  0.32243054994E+03  0.25500000000E-02 0.  1.
         -2   -1    0    0    0  501 -0.00000000000E+00 -0.00000000000E+00 -0.58212762316E+02  0.58212762372E+02  0.25500000000E-02 0. -1.
    5000001    1    1    2    0    0  0.97144217174E+02 -0.58330547506E+02  0.13357990945E+03  0.19134273937E+03  0.77000000000E+02 0.  0.
   -5000001    1    1    2    0    0 -0.97144217174E+02  0.58330547506E+02  0.13063787816E+03  0.18930057294E+03  0.77000000000E+02 0.  0.
<mgrwt>
<rscale>  0 0.27400418E+03</rscale>
<asrwt>0</asrwt>
<pdfrwt beam="1">  1        2 0.49604701E-01 0.27400418E+03</pdfrwt>
<pdfrwt beam="2">  1       -2 0.89558095E-02 0.27400418E+03</pdfrwt>
<totfact> 0.79360085E+03</totfact>
</mgrwt>
</event>
<event>
 4    1  0.6086918E-004  0.3323707E+03  0.7818608E-02  0.1070093E+00
          2   -1    0    0  501    0  0.00000000000E+00  0.00000000000E+00  0.89402831595E+03  0.89402831595E+03  0.25500000000E-02 0.  1.
         -2   -1    0    0    0  501 -0.00000000000E+00 -0.00000000000E+00 -0.30891156356E+02  0.30891156462E+02  0.25500000000E-02 0. -1.
    5000001    1    1    2    0    0 -0.13745867551E+03 -0.30181336705E+02  0.31082067342E+03  0.34977748867E+03  0.77000000000E+02 0.  0.
   -5000001    1    1    2    0    0  0.13745867551E+03  0.30181336705E+02  0.55231648617E+03  0.57514198374E+03  0.77000000000E+02 0.  0.
<mgrwt>
<rscale>  0 0.33237069E+03</rscale>
<asrwt>0</asrwt>
<pdfrwt beam="1">  1        2 0.13754279E+00 0.33237069E+03</pdfrwt>
<pdfrwt beam="2">  1       -2 0.47524866E-02 0.33237069E+03</pdfrwt>
<totfact> 0.65074806E+03</totfact>
</mgrwt>
</event>
<event>
 4    1  0.6086918E-004  0.3490080E+03  0.7818608E-02  0.1063023E+00
         -2   -1    0    0    0  501 -0.00000000000E+00  0.00000000000E+00  0.11760976004E+02  0.11760976281E+02  0.25500000000E-02 0. -1.
          2   -1    0    0  501    0  0.00000000000E+00 -0.00000000000E+00 -0.25892104894E+04  0.25892104894E+04  0.25500000000E-02 0.  1.
    5000001    1    1    2    0    0 -0.91900024771E+02  0.11676181815E+02 -0.34780225383E+03  0.36807248681E+03  0.77000000000E+02 0.  0.
   -5000001    1    1    2    0    0  0.91900024771E+02 -0.11676181815E+02 -0.22296472595E+04  0.22328989788E+04  0.77000000000E+02 0.  0.
<mgrwt>
<rscale>  0 0.34900798E+03</rscale>
<asrwt>0</asrwt>
<pdfrwt beam="1">  1        2 0.39833962E+00 0.34900798E+03</pdfrwt>
<pdfrwt beam="2">  1       -2 0.18093830E-02 0.34900798E+03</pdfrwt>
<totfact> 0.31923650E+03</totfact>
</mgrwt>
</event>
<event>
 4    1  0.6086918E-004  0.2504724E+03  0.7818608E-02  0.1113007E+00
          2   -1    0    0  501    0  0.00000000000E+00  0.00000000000E+00  0.32716431739E+02  0.32716431838E+02  0.25500000000E-02 0.  1.
         -2   -1    0    0    0  501 -0.00000000000E+00 -0.00000000000E+00 -0.47939525950E+03  0.47939525951E+03  0.25500000000E-02 0. -1.
    5000001    1    1    2    0    0  0.14005710022E+02  0.91595926770E+02 -0.29324888288E+03  0.31703293366E+03  0.77000000000E+02 0.  0.
   -5000001    1    1    2    0    0 -0.14005710022E+02 -0.91595926770E+02 -0.15342994488E+03  0.19507875769E+03  0.77000000000E+02 0.  0.
<mgrwt>
<rscale>  0 0.25047237E+03</rscale>
<asrwt>0</asrwt>
<pdfrwt beam="1">  1        2 0.50332975E-02 0.25047237E+03</pdfrwt>
<pdfrwt beam="2">  1       -2 0.73753112E-01 0.25047237E+03</pdfrwt>
<totfact> 0.26356638E+03</totfact>
</mgrwt>
</event>
<event>
 4    1  0.6086918E-004  0.2527079E+03  0.7818608E-02  0.1111605E+00
          2   -1    0    0  501    0  0.00000000000E+00  0.00000000000E+00  0.57218504202E+03  0.57218504202E+03  0.25500000000E-02 0.  1.
         -2   -1    0    0    0  501 -0.00000000000E+00 -0.00000000000E+00 -0.27902380749E+02  0.27902380866E+02  0.25500000000E-02 0. -1.
    5000001    1    1    2    0    0 -0.11513986036E+02  0.86003460688E+02  0.39104259796E+03  0.40788782839E+03  0.77000000000E+02 0.  0.
   -5000001    1    1    2    0    0  0.11513986036E+02 -0.86003460688E+02  0.15324006330E+03  0.19219959450E+03  0.77000000000E+02 0.  0.
<mgrwt>
<rscale>  0 0.25270793E+03</rscale>
<asrwt>0</asrwt>
<pdfrwt beam="1">  1        2 0.88028457E-01 0.25270793E+03</pdfrwt>
<pdfrwt beam="2">  1       -2 0.42926745E-02 0.25270793E+03</pdfrwt>
<totfact> 0.13039473E+04</totfact>
</mgrwt>
</event>
<event>
 4    1  0.6086918E-004  0.2819377E+03  0.7818608E-02  0.1094635E+00
         -2   -1    0    0    0  501 -0.00000000000E+00  0.00000000000E+00  0.46440970776E+02  0.46440970846E+02  0.25500000000E-02 0. -1.
          2   -1    0    0  501    0  0.00000000000E+00 -0.00000000000E+00 -0.42790255682E+03  0.42790255683E+03  0.25500000000E-02 0.  1.
    5000001    1    1    2    0    0 -0.76942696360E+02  0.89016966929E+02 -0.20747182119E+03  0.25063470533E+03  0.77000000000E+02 0.  0.
   -5000001    1    1    2    0    0  0.76942696360E+02 -0.89016966929E+02 -0.17398976485E+03  0.22370882235E+03  0.77000000000E+02 0.  0.
<mgrwt>
<rscale>  0 0.28193765E+03</rscale>
<asrwt>0</asrwt>
<pdfrwt beam="1">  1        2 0.65831160E-01 0.28193765E+03</pdfrwt>
<pdfrwt beam="2">  1       -2 0.71447650E-02 0.28193765E+03</pdfrwt>
<totfact> 0.83223439E+03</totfact>
</mgrwt>
</event>
<event>
 4    1  0.6086918E-004  0.4210218E+03  0.7818608E-02  0.1036734E+00
         -2   -1    0    0    0  501 -0.00000000000E+00  0.00000000000E+00  0.31852170779E+02  0.31852170881E+02  0.25500000000E-02 0. -1.
          2   -1    0    0  501    0  0.00000000000E+00 -0.00000000000E+00 -0.13912661446E+04  0.13912661446E+04  0.25500000000E-02 0.  1.
    5000001    1    1    2    0    0 -0.52448823904E+02 -0.14533191657E+03 -0.10869221937E+04  0.11005458192E+04  0.77000000000E+02 0.  0.
   -5000001    1    1    2    0    0  0.52448823904E+02  0.14533191657E+03 -0.27249178018E+03  0.32257249630E+03  0.77000000000E+02 0.  0.
<mgrwt>
<rscale>  0 0.42102184E+03</rscale>
<asrwt>0</asrwt>
<pdfrwt beam="1">  1        2 0.21404090E+00 0.42102184E+03</pdfrwt>
<pdfrwt beam="2">  1       -2 0.49003351E-02 0.42102184E+03</pdfrwt>
<totfact> 0.31578726E+03</totfact>
</mgrwt>
</event>
<event>
 4    1  0.6086918E-004  0.2237883E+03  0.7818608E-02  0.1131090E+00
         -2   -1    0    0    0  501 -0.00000000000E+00  0.00000000000E+00  0.71565331035E+01  0.71565335578E+01  0.25500000000E-02 0. -1.
          2   -1    0    0  501    0  0.00000000000E+00 -0.00000000000E+00 -0.17494919487E+04  0.17494919487E+04  0.25500000000E-02 0.  1.
    5000001    1    1    2    0    0 -0.47037092721E+02 -0.64852909340E+02 -0.97438607349E+03  0.98070158976E+03  0.77000000000E+02 0.  0.
   -5000001    1    1    2    0    0  0.47037092721E+02  0.64852909340E+02 -0.76794934207E+03  0.77594689247E+03  0.77000000000E+02 0.  0.
<mgrwt>
<rscale>  0 0.22378827E+03</rscale>
<asrwt>0</asrwt>
<pdfrwt beam="1">  1        2 0.26915227E+00 0.22378827E+03</pdfrwt>
<pdfrwt beam="2">  1       -2 0.11010065E-02 0.22378827E+03</pdfrwt>
<totfact> 0.18506130E+04</totfact>
</mgrwt>
</event>
<event>
 4    1  0.6086918E-004  0.3315546E+03  0.7818608E-02  0.1070451E+00
          2   -1    0    0  501    0  0.00000000000E+00  0.00000000000E+00  0.30177642063E+04  0.30177642063E+04  0.25500000000E-02 0.  1.
         -2   -1    0    0    0  501 -0.00000000000E+00 -0.00000000000E+00 -0.91067811015E+01  0.91067814585E+01  0.25500000000E-02 0. -1.
    5000001    1    1    2    0    0  0.53699498135E+02 -0.11108309529E+03  0.77798590479E+03  0.79146330187E+03  0.77000000000E+02 0.  0.
   -5000001    1    1    2    0    0 -0.53699498135E+02  0.11108309529E+03  0.22306715204E+04  0.22354076858E+04  0.77000000000E+02 0.  0.
<mgrwt>
<rscale>  0 0.33155463E+03</rscale>
<asrwt>0</asrwt>
<pdfrwt beam="1">  1        2 0.46427118E+00 0.33155463E+03</pdfrwt>
<pdfrwt beam="2">  1       -2 0.14010440E-02 0.33155463E+03</pdfrwt>
<totfact> 0.26360206E+03</totfact>
</mgrwt>
</event>
<event>
 4    1  0.6086918E-004  0.2237490E+03  0.7818608E-02  0.1131118E+00
          2   -1    0    0  501    0  0.00000000000E+00  0.00000000000E+00  0.51961264360E+03  0.51961264361E+03  0.25500000000E-02 0.  1.
         -2   -1    0    0    0  501 -0.00000000000E+00 -0.00000000000E+00 -0.24086994081E+02  0.24086994216E+02  0.25500000000E-02 0. -1.
    5000001    1    1    2    0    0 -0.58101514491E+02  0.54722556150E+02  0.28352217258E+03  0.30444074379E+03  0.77000000000E+02 0.  0.
   -5000001    1    1    2    0    0  0.58101514491E+02 -0.54722556150E+02  0.21200347694E+03  0.23925889403E+03  0.77000000000E+02 0.  0.
<mgrwt>
<rscale>  0 0.22374903E+03</rscale>
<asrwt>0</asrwt>
<pdfrwt beam="1">  1        2 0.79940399E-01 0.22374903E+03</pdfrwt>
<pdfrwt beam="2">  1       -2 0.37056917E-02 0.22374903E+03</pdfrwt>
<totfact> 0.18016957E+04</totfact>
</mgrwt>
</event>
<event>
 4    1  0.6086918E-004  0.3322550E+03  0.7818608E-02  0.1070143E+00
         -2   -1    0    0    0  501 -0.00000000000E+00  0.00000000000E+00  0.16628326407E+02  0.16628326602E+02  0.25500000000E-02 0. -1.
          2   -1    0    0  501    0  0.00000000000E+00 -0.00000000000E+00 -0.16597188747E+04  0.16597188747E+04  0.25500000000E-02 0.  1.
    5000001    1    1    2    0    0  0.52393509132E+02  0.13038317984E+03 -0.10428805914E+04  0.10551178993E+04  0.77000000000E+02 0.  0.
   -5000001    1    1    2    0    0 -0.52393509132E+02 -0.13038317984E+03 -0.60020995690E+03  0.62122930207E+03  0.77000000000E+02 0.  0.
<mgrwt>
<rscale>  0 0.33225501E+03</rscale>
<asrwt>0</asrwt>
<pdfrwt beam="1">  1        2 0.25534124E+00 0.33225501E+03</pdfrwt>
<pdfrwt beam="2">  1       -2 0.25582054E-02 0.33225501E+03</pdfrwt>
<totfact> 0.60358559E+03</totfact>
</mgrwt>
</event>
<event>
 4    1  0.6086918E-004  0.2327566E+03  0.7818608E-02  0.1124714E+00
         -2   -1    0    0    0  501 -0.00000000000E+00  0.00000000000E+00  0.22583281886E+02  0.22583282030E+02  0.25500000000E-02 0. -1.
          2   -1    0    0  501    0  0.00000000000E+00 -0.00000000000E+00 -0.59973144426E+03  0.59973144426E+03  0.25500000000E-02 0.  1.
    5000001    1    1    2    0    0 -0.67271826439E+02 -0.13060917612E+02 -0.43302212340E+03  0.44512160760E+03  0.77000000000E+02 0.  0.
   -5000001    1    1    2    0    0  0.67271826439E+02  0.13060917612E+02 -0.14412603897E+03  0.17719311869E+03  0.77000000000E+02 0.  0.
<mgrwt>
<rscale>  0 0.23275656E+03</rscale>
<asrwt>0</asrwt>
<pdfrwt beam="1">  1        2 0.92266364E-01 0.23275656E+03</pdfrwt>
<pdfrwt beam="2">  1       -2 0.34743515E-02 0.23275656E+03</pdfrwt>
<totfact> 0.16891126E+04</totfact>
</mgrwt>
</event>
<event>
 4    1  0.6086918E-004  0.2078063E+03  0.7818608E-02  0.1143315E+00
         -2   -1    0    0    0  501 -0.00000000000E+00  0.00000000000E+00  0.49518635757E+01  0.49518642323E+01  0.25500000000E-02 0. -1.
          2   -1    0    0  501    0  0.00000000000E+00 -0.00000000000E+00 -0.21801610266E+04  0.21801610266E+04  0.25500000000E-02 0.  1.
    5000001    1    1    2    0    0 -0.95149333291E+00 -0.54482113213E+02 -0.62954302743E+03  0.63657099320E+03  0.77000000000E+02 0.  0.
   -5000001    1    1    2    0    0  0.95149333291E+00  0.54482113213E+02 -0.15456661356E+04  0.15485418976E+04  0.77000000000E+02 0.  0.
<mgrwt>
<rscale>  0 0.20780626E+03</rscale>
<asrwt>0</asrwt>
<pdfrwt beam="1">  1        2 0.33540862E+00 0.20780626E+03</pdfrwt>
<pdfrwt beam="2">  1       -2 0.76182696E-03 0.20780626E+03</pdfrwt>
<totfact> 0.18716342E+04</totfact>
</mgrwt>
</event>
<event>
 4    1  0.6086918E-004  0.3178599E+03  0.7818608E-02  0.1076638E+00
         -2   -1    0    0    0  501 -0.00000000000E+00  0.00000000000E+00  0.49542439496E+02  0.49542439562E+02  0.25500000000E-02 0. -1.
          2   -1    0    0  501    0  0.00000000000E+00 -0.00000000000E+00 -0.50984028984E+03  0.50984028985E+03  0.25500000000E-02 0.  1.
    5000001    1    1    2    0    0  0.11025248154E+03  0.12027663818E+02 -0.37769721766E+03  0.40110405459E+03  0.77000000000E+02 0.  0.
   -5000001    1    1    2    0    0 -0.11025248154E+03 -0.12027663818E+02 -0.82600632690E+02  0.15827867482E+03  0.77000000000E+02 0.  0.
<mgrwt>
<rscale>  0 0.31785992E+03</rscale>
<asrwt>0</asrwt>
<pdfrwt beam="1">  1        2 0.78436964E-01 0.31785992E+03</pdfrwt>
<pdfrwt beam="2">  1       -2 0.76219141E-02 0.31785992E+03</pdfrwt>
<totfact> 0.62172878E+03</totfact>
</mgrwt>
</event>
<event>
 4    1  0.6086918E-004  0.2062340E+03  0.7818608E-02  0.1144583E+00
          2   -1    0    0  501    0  0.00000000000E+00  0.00000000000E+00  0.19986940076E+03  0.19986940078E+03  0.25500000000E-02 0.  1.
         -2   -1    0    0    0  501 -0.00000000000E+00 -0.00000000000E+00 -0.53200304001E+02  0.53200304062E+02  0.25500000000E-02 0. -1.
    5000001    1    1    2    0    0 -0.60368017044E+02 -0.32407831059E+02  0.69542850161E+02  0.12433733552E+03  0.77000000000E+02 0.  0.
   -5000001    1    1    2    0    0  0.60368017044E+02  0.32407831059E+02  0.77126246598E+02  0.12873236932E+03  0.77000000000E+02 0.  0.
<mgrwt>
<rscale>  0 0.20623397E+03</rscale>
<asrwt>0</asrwt>
<pdfrwt beam="1">  1        2 0.30749139E-01 0.20623397E+03</pdfrwt>
<pdfrwt beam="2">  1       -2 0.81846620E-02 0.20623397E+03</pdfrwt>
<totfact> 0.15079354E+04</totfact>
</mgrwt>
</event>
<event>
 4    1  0.6086918E-004  0.3377827E+03  0.7818608E-02  0.1067744E+00
          2   -1    0    0  501    0  0.00000000000E+00  0.00000000000E+00  0.49980758175E+03  0.49980758175E+03  0.25500000000E-02 0.  1.
         -2   -1    0    0    0  501 -0.00000000000E+00 -0.00000000000E+00 -0.57070528569E+02  0.57070528626E+02  0.25500000000E-02 0. -1.
    5000001    1    1    2    0    0  0.79953113033E+02 -0.59971397084E+01  0.11747403200E+02  0.11178312686E+03  0.77000000000E+02 0.  0.
   -5000001    1    1    2    0    0 -0.79953113033E+02  0.59971397084E+01  0.43098964998E+03  0.44509498352E+03  0.77000000000E+02 0.  0.
<mgrwt>
<rscale>  0 0.33778267E+03</rscale>
<asrwt>0</asrwt>
<pdfrwt beam="1">  1        2 0.76893474E-01 0.33778267E+03</pdfrwt>
<pdfrwt beam="2">  1       -2 0.87800813E-02 0.33778267E+03</pdfrwt>
<totfact> 0.50985253E+03</totfact>
</mgrwt>
</event>
<event>
 4    1  0.6086918E-004  0.2312066E+03  0.7818608E-02  0.1125793E+00
         -2   -1    0    0    0  501 -0.00000000000E+00  0.00000000000E+00  0.42508917170E+01  0.42508924818E+01  0.25500000000E-02 0. -1.
          2   -1    0    0  501    0  0.00000000000E+00 -0.00000000000E+00 -0.31438402604E+04  0.31438402604E+04  0.25500000000E-02 0.  1.
    5000001    1    1    2    0    0  0.63273877216E+02  0.25226533306E+02 -0.22896590734E+04  0.22919658885E+04  0.77000000000E+02 0.  0.
   -5000001    1    1    2    0    0 -0.63273877216E+02 -0.25226533306E+02 -0.84993029525E+03  0.85612526438E+03  0.77000000000E+02 0.  0.
<mgrwt>
<rscale>  0 0.23120662E+03</rscale>
<asrwt>0</asrwt>
<pdfrwt beam="1">  1        2 0.48366587E+00 0.23120662E+03</pdfrwt>
<pdfrwt beam="2">  1       -2 0.65398591E-03 0.23120662E+03</pdfrwt>
<totfact> 0.67468000E+03</totfact>
</mgrwt>
</event>
<event>
 4    1  0.6086918E-004  0.2675505E+03  0.7818608E-02  0.1102690E+00
          2   -1    0    0  501    0  0.00000000000E+00  0.00000000000E+00  0.53384906579E+03  0.53384906580E+03  0.25500000000E-02 0.  1.
         -2   -1    0    0    0  501 -0.00000000000E+00 -0.00000000000E+00 -0.33522231892E+02  0.33522231989E+02  0.25500000000E-02 0. -1.
    5000001    1    1    2    0    0  0.61199357692E+02 -0.79581607448E+02  0.34231181571E+03  0.36494516410E+03  0.77000000000E+02 0.  0.
   -5000001    1    1    2    0    0 -0.61199357692E+02  0.79581607448E+02  0.15801501819E+03  0.20242613369E+03  0.77000000000E+02 0.  0.
<mgrwt>
<rscale>  0 0.26755046E+03</rscale>
<asrwt>0</asrwt>
<pdfrwt beam="1">  1        2 0.82130628E-01 0.26755046E+03</pdfrwt>
<pdfrwt beam="2">  1       -2 0.51572663E-02 0.26755046E+03</pdfrwt>
<totfact> 0.10714554E+04</totfact>
</mgrwt>
</event>
<event>
 4    1  0.6086918E-004  0.3897349E+03  0.7818608E-02  0.1047393E+00
         -2   -1    0    0    0  501 -0.00000000000E+00  0.00000000000E+00  0.36993525826E+02  0.36993525914E+02  0.25500000000E-02 0. -1.
          2   -1    0    0  501    0  0.00000000000E+00 -0.00000000000E+00 -0.10264854742E+04  0.10264854742E+04  0.25500000000E-02 0.  1.
    5000001    1    1    2    0    0 -0.10803805062E+03  0.14106296775E+03 -0.43537908605E+03  0.47650281197E+03  0.77000000000E+02 0.  0.
   -5000001    1    1    2    0    0  0.10803805062E+03 -0.14106296775E+03 -0.55411286236E+03  0.58697618818E+03  0.77000000000E+02 0.  0.
<mgrwt>
<rscale>  0 0.38973487E+03</rscale>
<asrwt>0</asrwt>
<pdfrwt beam="1">  1        2 0.15792082E+00 0.38973487E+03</pdfrwt>
<pdfrwt beam="2">  1       -2 0.56913124E-02 0.38973487E+03</pdfrwt>
<totfact> 0.40777577E+03</totfact>
</mgrwt>
</event>
<event>
 4    1  0.6086918E-004  0.4163766E+03  0.7818608E-02  0.1038252E+00
         -2   -1    0    0    0  501 -0.00000000000E+00  0.00000000000E+00  0.76416410814E+03  0.76416410814E+03  0.25500000000E-02 0. -1.
          2   -1    0    0  501    0  0.00000000000E+00 -0.00000000000E+00 -0.56718677292E+02  0.56718677349E+02  0.25500000000E-02 0.  1.
    5000001    1    1    2    0    0 -0.14443114358E+03 -0.75520875040E+02  0.55907618493E+03  0.58741717574E+03  0.77000000000E+02 0.  0.
   -5000001    1    1    2    0    0  0.14443114358E+03  0.75520875040E+02  0.14836924592E+03  0.23346560975E+03  0.77000000000E+02 0.  0.
<mgrwt>
<rscale>  0 0.41637664E+03</rscale>
<asrwt>0</asrwt>
<pdfrwt beam="1">  1        2 0.87259504E-02 0.41637664E+03</pdfrwt>
<pdfrwt beam="2">  1       -2 0.11756371E+00 0.41637664E+03</pdfrwt>
<totfact> 0.44649066E+02</totfact>
</mgrwt>
</event>
<event>
 4    1  0.6086918E-004  0.3129385E+03  0.7818608E-02  0.1078946E+00
         -2   -1    0    0    0  501 -0.00000000000E+00  0.00000000000E+00  0.31720163550E+03  0.31720163551E+03  0.25500000000E-02 0. -1.
          2   -1    0    0  501    0  0.00000000000E+00 -0.00000000000E+00 -0.77183187015E+02  0.77183187058E+02  0.25500000000E-02 0.  1.
    5000001    1    1    2    0    0 -0.76768340476E+02 -0.51983589510E+02  0.24577033255E+03  0.27372929700E+03  0.77000000000E+02 0.  0.
   -5000001    1    1    2    0    0  0.76768340476E+02  0.51983589510E+02 -0.57518840665E+01  0.12065552556E+03  0.77000000000E+02 0.  0.
<mgrwt>
<rscale>  0 0.31293854E+03</rscale>
<asrwt>0</asrwt>
<pdfrwt beam="1">  1        2 0.11874337E-01 0.31293854E+03</pdfrwt>
<pdfrwt beam="2">  1       -2 0.48800250E-01 0.31293854E+03</pdfrwt>
<totfact> 0.20913733E+03</totfact>
</mgrwt>
</event>
<event>
 4    1  0.6086918E-004  0.1955838E+03  0.7818608E-02  0.1153519E+00
         -2   -1    0    0    0  501 -0.00000000000E+00  0.00000000000E+00  0.12260393656E+02  0.12260393921E+02  0.25500000000E-02 0. -1.
          2   -1    0    0  501    0  0.00000000000E+00 -0.00000000000E+00 -0.78001196373E+03  0.78001196373E+03  0.25500000000E-02 0.  1.
    5000001    1    1    2    0    0  0.34731571409E+02 -0.15920321013E+02 -0.57277183945E+03  0.57918591034E+03  0.77000000000E+02 0.  0.
   -5000001    1    1    2    0    0 -0.34731571409E+02  0.15920321013E+02 -0.19497973062E+03  0.21308644731E+03  0.77000000000E+02 0.  0.
<mgrwt>
<rscale>  0 0.19558378E+03</rscale>
<asrwt>0</asrwt>
<pdfrwt beam="1">  1        2 0.12000180E+00 0.19558378E+03</pdfrwt>
<pdfrwt beam="2">  1       -2 0.18862150E-02 0.19558378E+03</pdfrwt>
<totfact> 0.30011125E+04</totfact>
</mgrwt>
</event>
<event>
 4    1  0.6086918E-004  0.1979151E+03  0.7818608E-02  0.1151510E+00
          2   -1    0    0  501    0  0.00000000000E+00  0.00000000000E+00  0.29855545014E+04  0.29855545014E+04  0.25500000000E-02 0.  1.
         -2   -1    0    0    0  501 -0.00000000000E+00 -0.00000000000E+00 -0.32799929325E+01  0.32799939238E+01  0.25500000000E-02 0. -1.
    5000001    1    1    2    0    0 -0.86319085649E+01  0.55137284426E+02  0.19044272118E+04  0.19068001036E+04  0.77000000000E+02 0.  0.
   -5000001    1    1    2    0    0  0.86319085649E+01 -0.55137284426E+02  0.10778472967E+04  0.10820343918E+04  0.77000000000E+02 0.  0.
<mgrwt>
<rscale>  0 0.19791512E+03</rscale>
<asrwt>0</asrwt>
<pdfrwt beam="1">  1        2 0.45931693E+00 0.19791512E+03</pdfrwt>
<pdfrwt beam="2">  1       -2 0.50461344E-03 0.19791512E+03</pdfrwt>
<totfact> 0.12155779E+04</totfact>
</mgrwt>
</event>
<event>
 4    1  0.6086918E-004  0.2311872E+03  0.7818608E-02  0.1125807E+00
         -2   -1    0    0    0  501 -0.00000000000E+00  0.00000000000E+00  0.42305569138E+02  0.42305569215E+02  0.25500000000E-02 0. -1.
          2   -1    0    0  501    0  0.00000000000E+00 -0.00000000000E+00 -0.31584215393E+03  0.31584215394E+03  0.25500000000E-02 0.  1.
    5000001    1    1    2    0    0  0.61348679445E+02  0.60368536928E+02 -0.14449262474E+03  0.18497334760E+03  0.77000000000E+02 0.  0.
   -5000001    1    1    2    0    0 -0.61348679445E+02 -0.60368536928E+02 -0.12904396006E+03  0.17317437555E+03  0.77000000000E+02 0.  0.
<mgrwt>
<rscale>  0 0.23118722E+03</rscale>
<asrwt>0</asrwt>
<pdfrwt beam="1">  1        2 0.48591099E-01 0.23118722E+03</pdfrwt>
<pdfrwt beam="2">  1       -2 0.65085493E-02 0.23118722E+03</pdfrwt>
<totfact> 0.13225419E+04</totfact>
</mgrwt>
</event>
<event>
 4    1  0.6086918E-004  0.2365469E+03  0.7818608E-02  0.1122115E+00
          2   -1    0    0  501    0  0.00000000000E+00  0.00000000000E+00  0.15892251520E+04  0.15892251520E+04  0.25500000000E-02 0.  1.
         -2   -1    0    0    0  501 -0.00000000000E+00 -0.00000000000E+00 -0.88021587872E+01  0.88021591566E+01  0.25500000000E-02 0. -1.
    5000001    1    1    2    0    0 -0.80488355236E+02  0.66119873386E+01  0.52531446601E+03  0.53703480511E+03  0.77000000000E+02 0.  0.
   -5000001    1    1    2    0    0  0.80488355236E+02 -0.66119873386E+01  0.10551085272E+04  0.10609925060E+04  0.77000000000E+02 0.  0.
<mgrwt>
<rscale>  0 0.23654693E+03</rscale>
<asrwt>0</asrwt>
<pdfrwt beam="1">  1        2 0.24449588E+00 0.23654693E+03</pdfrwt>
<pdfrwt beam="2">  1       -2 0.13541799E-02 0.23654693E+03</pdfrwt>
<totfact> 0.16662335E+04</totfact>
</mgrwt>
</event>
<event>
 4    1  0.6086918E-004  0.2835135E+03  0.7818608E-02  0.1093785E+00
          2   -1    0    0  501    0  0.00000000000E+00  0.00000000000E+00  0.97428627351E+03  0.97428627352E+03  0.25500000000E-02 0. -1.
         -2   -1    0    0    0  501 -0.00000000000E+00 -0.00000000000E+00 -0.20625328464E+02  0.20625328621E+02  0.25500000000E-02 0.  1.
    5000001    1    1    2    0    0 -0.89430290512E+02 -0.77990084271E+02  0.50932525324E+03  0.52860329519E+03  0.77000000000E+02 0.  0.
   -5000001    1    1    2    0    0  0.89430290512E+02  0.77990084271E+02  0.44433569181E+03  0.46630830694E+03  0.77000000000E+02 0.  0.
<mgrwt>
<rscale>  0 0.28351349E+03</rscale>
<asrwt>0</asrwt>
<pdfrwt beam="1">  1        2 0.14989019E+00 0.28351349E+03</pdfrwt>
<pdfrwt beam="2">  1       -2 0.31731275E-02 0.28351349E+03</pdfrwt>
<totfact> 0.10594752E+04</totfact>
</mgrwt>
</event>
<event>
 4    1  0.6086918E-004  0.2275275E+03  0.7818608E-02  0.1128392E+00
          2   -1    0    0  501    0  0.00000000000E+00  0.00000000000E+00  0.65245459448E+03  0.65245459448E+03  0.25500000000E-02 0.  1.
         -2   -1    0    0    0  501 -0.00000000000E+00 -0.00000000000E+00 -0.19836147857E+02  0.19836148021E+02  0.25500000000E-02 0. -1.
    5000001    1    1    2    0    0  0.46229106445E+02  0.53884040666E+02  0.44754101623E+03  0.45963309425E+03  0.77000000000E+02 0.  0.
   -5000001    1    1    2    0    0 -0.46229106445E+02 -0.53884040666E+02  0.18507743040E+03  0.21265764826E+03  0.77000000000E+02 0.  0.
<mgrwt>
<rscale>  0 0.22752746E+03</rscale>
<asrwt>0</asrwt>
<pdfrwt beam="1">  1        2 0.10037763E+00 0.22752746E+03</pdfrwt>
<pdfrwt beam="2">  1       -2 0.30517151E-02 0.22752746E+03</pdfrwt>
<totfact> 0.18541576E+04</totfact>
</mgrwt>
</event>
<event>
 4    1  0.6086918E-004  0.3714908E+03  0.7818608E-02  0.1054124E+00
         -2   -1    0    0    0  501 -0.00000000000E+00  0.00000000000E+00  0.29531584815E+02  0.29531584925E+02  0.25500000000E-02 0. -1.
          2   -1    0    0  501    0  0.00000000000E+00 -0.00000000000E+00 -0.11682864698E+04  0.11682864698E+04  0.25500000000E-02 0.  1.
    5000001    1    1    2    0    0 -0.14103342878E+02  0.15498988808E+03 -0.35667799503E+03  0.39669756973E+03  0.77000000000E+02 0.  0.
   -5000001    1    1    2    0    0  0.14103342878E+02 -0.15498988808E+03 -0.78207688992E+03  0.80112048497E+03  0.77000000000E+02 0.  0.
<mgrwt>
<rscale>  0 0.37149079E+03</rscale>
<asrwt>0</asrwt>
<pdfrwt beam="1">  1        2 0.17973634E+00 0.37149079E+03</pdfrwt>
<pdfrwt beam="2">  1       -2 0.45433216E-02 0.37149079E+03</pdfrwt>
<totfact> 0.47403630E+03</totfact>
</mgrwt>
</event>
<event>
 4    1  0.6086918E-004  0.1981707E+03  0.7818608E-02  0.1151292E+00
         -2   -1    0    0    0  501 -0.00000000000E+00  0.00000000000E+00  0.47962249453E+03  0.47962249454E+03  0.25500000000E-02 0. -1.
          2   -1    0    0  501    0  0.00000000000E+00 -0.00000000000E+00 -0.20470063797E+02  0.20470063956E+02  0.25500000000E-02 0.  1.
    5000001    1    1    2    0    0 -0.29407879748E+02  0.47542242460E+02  0.15983249877E+03  0.18601213904E+03  0.77000000000E+02 0.  0.
   -5000001    1    1    2    0    0  0.29407879748E+02 -0.47542242460E+02  0.29931993197E+03  0.31408041945E+03  0.77000000000E+02 0.  0.
<mgrwt>
<rscale>  0 0.19817066E+03</rscale>
<asrwt>0</asrwt>
<pdfrwt beam="1">  1        2 0.31492406E-02 0.19817066E+03</pdfrwt>
<pdfrwt beam="2">  1       -2 0.73788076E-01 0.19817066E+03</pdfrwt>
<totfact> 0.48688232E+03</totfact>
</mgrwt>
</event>
<event>
 4    1  0.6086918E-004  0.2175239E+03  0.7818608E-02  0.1135743E+00
          2   -1    0    0  501    0  0.00000000000E+00  0.00000000000E+00  0.21410064853E+04  0.21410064853E+04  0.25500000000E-02 0.  1.
         -2   -1    0    0    0  501 -0.00000000000E+00 -0.00000000000E+00 -0.55250484539E+01  0.55250490423E+01  0.25500000000E-02 0. -1.
    5000001    1    1    2    0    0  0.28219156250E+02  0.62507956706E+02  0.72638696159E+03  0.73366926022E+03  0.77000000000E+02 0.  0.
   -5000001    1    1    2    0    0 -0.28219156250E+02 -0.62507956706E+02  0.14090944752E+04  0.14128622741E+04  0.77000000000E+02 0.  0.
<mgrwt>
<rscale>  0 0.21752393E+03</rscale>
<asrwt>0</asrwt>
<pdfrwt beam="1">  1        2 0.32938487E+00 0.21752393E+03</pdfrwt>
<pdfrwt beam="2">  1       -2 0.85000942E-03 0.21752393E+03</pdfrwt>
<totfact> 0.16784714E+04</totfact>
</mgrwt>
</event>
<event>
 4    1  0.6086918E-004  0.3640314E+03  0.7818608E-02  0.1056999E+00
          2   -1    0    0  501    0  0.00000000000E+00  0.00000000000E+00  0.13965472253E+03  0.13965472256E+03  0.25500000000E-02 0.  1.
         -2   -1    0    0    0  501 -0.00000000000E+00 -0.00000000000E+00 -0.23722591047E+03  0.23722591048E+03  0.25500000000E-02 0. -1.
    5000001    1    1    2    0    0 -0.14908257563E+03 -0.75026858331E+01  0.23824191510E+02  0.16964226110E+03  0.77000000000E+02 0.  0.
   -5000001    1    1    2    0    0  0.14908257563E+03  0.75026858331E+01 -0.12139537945E+03  0.20723837193E+03  0.77000000000E+02 0.  0.
<mgrwt>
<rscale>  0 0.36403142E+03</rscale>
<asrwt>0</asrwt>
<pdfrwt beam="1">  1        2 0.21485342E-01 0.36403142E+03</pdfrwt>
<pdfrwt beam="2">  1       -2 0.36496294E-01 0.36403142E+03</pdfrwt>
<totfact> 0.18249299E+03</totfact>
</mgrwt>
</event>
<event>
 4    1  0.6086918E-004  0.5686865E+03  0.7818608E-02  0.9972589E-01
         -2   -1    0    0    0  501 -0.00000000000E+00  0.00000000000E+00  0.22911773564E+03  0.22911773566E+03  0.25500000000E-02 0. -1.
          2   -1    0    0  501    0  0.00000000000E+00 -0.00000000000E+00 -0.35288003725E+03  0.35288003726E+03  0.25500000000E-02 0.  1.
    5000001    1    1    2    0    0  0.20241230927E+03  0.49660414553E+02 -0.24347514698E+03  0.32961499802E+03  0.77000000000E+02 0.  0.
   -5000001    1    1    2    0    0 -0.20241230927E+03 -0.49660414553E+02  0.11971284538E+03  0.25238277490E+03  0.77000000000E+02 0.  0.
<mgrwt>
<rscale>  0 0.56868647E+03</rscale>
<asrwt>0</asrwt>
<pdfrwt beam="1">  1        2 0.54289236E-01 0.56868647E+03</pdfrwt>
<pdfrwt beam="2">  1       -2 0.35248883E-01 0.56868647E+03</pdfrwt>
<totfact> 0.69595430E+02</totfact>
</mgrwt>
</event>
<event>
 4    1  0.6086918E-004  0.1769301E+03  0.7818608E-02  0.1170808E+00
         -2   -1    0    0    0  501 -0.00000000000E+00  0.00000000000E+00  0.11834046080E+02  0.11834046355E+02  0.25500000000E-02 0. -1.
          2   -1    0    0  501    0  0.00000000000E+00 -0.00000000000E+00 -0.66131785660E+03  0.66131785660E+03  0.25500000000E-02 0.  1.
    5000001    1    1    2    0    0 -0.15694928387E+02  0.32570647600E+02 -0.23233675261E+03  0.24741977382E+03  0.77000000000E+02 0.  0.
   -5000001    1    1    2    0    0  0.15694928387E+02 -0.32570647600E+02 -0.41714705790E+03  0.42573212914E+03  0.77000000000E+02 0.  0.
<mgrwt>
<rscale>  0 0.17693011E+03</rscale>
<asrwt>0</asrwt>
<pdfrwt beam="1">  1        2 0.10174118E+00 0.17693011E+03</pdfrwt>
<pdfrwt beam="2">  1       -2 0.18206230E-02 0.17693011E+03</pdfrwt>
<totfact> 0.38283370E+04</totfact>
</mgrwt>
</event>
<event>
 4    1  0.6086918E-004  0.2425625E+03  0.7818608E-02  0.1118097E+00
         -2   -1    0    0    0  501 -0.00000000000E+00  0.00000000000E+00  0.11309779692E+02  0.11309779980E+02  0.25500000000E-02 0. -1.
          2   -1    0    0  501    0  0.00000000000E+00 -0.00000000000E+00 -0.13005680382E+04  0.13005680382E+04  0.25500000000E-02 0.  1.
    5000001    1    1    2    0    0  0.51039629032E+02 -0.23961068398E+02 -0.10493923833E+04  0.10537231850E+04  0.77000000000E+02 0.  0.
   -5000001    1    1    2    0    0 -0.51039629032E+02  0.23961068398E+02 -0.23986587518E+03  0.25815463313E+03  0.77000000000E+02 0.  0.
<mgrwt>
<rscale>  0 0.24256247E+03</rscale>
<asrwt>0</asrwt>
<pdfrwt beam="1">  1        2 0.20008727E+00 0.24256247E+03</pdfrwt>
<pdfrwt beam="2">  1       -2 0.17399672E-02 0.24256247E+03</pdfrwt>
<totfact> 0.16538603E+04</totfact>
</mgrwt>
</event>
<event>
 4    1  0.6086918E-004  0.2435787E+03  0.7818608E-02  0.1117432E+00
          2   -1    0    0  501    0  0.00000000000E+00  0.00000000000E+00  0.23892217741E+04  0.23892217741E+04  0.25500000000E-02 0.  1.
         -2   -1    0    0    0  501 -0.00000000000E+00 -0.00000000000E+00 -0.62081469179E+01  0.62081474416E+01  0.25500000000E-02 0. -1.
    5000001    1    1    2    0    0  0.55269644447E+02 -0.17298544983E+02  0.45888860417E+03  0.46889415041E+03  0.77000000000E+02 0.  0.
   -5000001    1    1    2    0    0 -0.55269644447E+02  0.17298544983E+02  0.19241250230E+04  0.19265357712E+04  0.77000000000E+02 0.  0.
<mgrwt>
<rscale>  0 0.24357866E+03</rscale>
<asrwt>0</asrwt>
<pdfrwt beam="1">  1        2 0.36757199E+00 0.24357866E+03</pdfrwt>
<pdfrwt beam="2">  1       -2 0.95510111E-03 0.24357866E+03</pdfrwt>
<totfact> 0.10489878E+04</totfact>
</mgrwt>
</event>
<event>
 4    1  0.6086918E-004  0.1856449E+03  0.7818608E-02  0.1162449E+00
         -2   -1    0    0    0  501 -0.00000000000E+00  0.00000000000E+00  0.74813096814E+01  0.74813101159E+01  0.25500000000E-02 0. -1.
          2   -1    0    0  501    0  0.00000000000E+00 -0.00000000000E+00 -0.11516706816E+04  0.11516706816E+04  0.25500000000E-02 0.  1.
    5000001    1    1    2    0    0  0.57100551000E+00 -0.51679014357E+02 -0.59703811634E+03  0.60419745028E+03  0.77000000000E+02 0.  0.
   -5000001    1    1    2    0    0 -0.57100551000E+00  0.51679014357E+02 -0.54715125555E+03  0.55495454140E+03  0.77000000000E+02 0.  0.
<mgrwt>
<rscale>  0 0.18564488E+03</rscale>
<asrwt>0</asrwt>
<pdfrwt beam="1">  1        2 0.17717996E+00 0.18564488E+03</pdfrwt>
<pdfrwt beam="2">  1       -2 0.11509717E-02 0.18564488E+03</pdfrwt>
<totfact> 0.35992770E+04</totfact>
</mgrwt>
</event>
<event>
 4    1  0.6086918E-004  0.2728287E+03  0.7818608E-02  0.1099672E+00
         -2   -1    0    0    0  501 -0.00000000000E+00  0.00000000000E+00  0.14222745546E+02  0.14222745775E+02  0.25500000000E-02 0. -1.
          2   -1    0    0  501    0  0.00000000000E+00 -0.00000000000E+00 -0.13083879790E+04  0.13083879790E+04  0.25500000000E-02 0.  1.
    5000001    1    1    2    0    0  0.40616911559E+02  0.10184865200E+03 -0.77133959263E+03  0.78288993388E+03  0.77000000000E+02 0.  0.
   -5000001    1    1    2    0    0 -0.40616911559E+02 -0.10184865200E+03 -0.52282564077E+03  0.53972079084E+03  0.77000000000E+02 0.  0.
<mgrwt>
<rscale>  0 0.27282866E+03</rscale>
<asrwt>0</asrwt>
<pdfrwt beam="1">  1        2 0.20129036E+00 0.27282866E+03</pdfrwt>
<pdfrwt beam="2">  1       -2 0.21881158E-02 0.27282866E+03</pdfrwt>
<totfact> 0.11739853E+04</totfact>
</mgrwt>
</event>
<event>
 4    1  0.6086918E-004  0.1815269E+03  0.7818608E-02  0.1166333E+00
         -2   -1    0    0    0  501 -0.00000000000E+00  0.00000000000E+00  0.11289085297E+03  0.11289085300E+03  0.25500000000E-02 0. -1.
          2   -1    0    0  501    0  0.00000000000E+00 -0.00000000000E+00 -0.72973169924E+02  0.72973169968E+02  0.25500000000E-02 0.  1.
    5000001    1    1    2    0    0  0.45109313695E+02 -0.10649704250E+02  0.32939965910E+02  0.95719944300E+02  0.77000000000E+02 0.  0.
   -5000001    1    1    2    0    0 -0.45109313695E+02  0.10649704250E+02  0.69777171387E+01  0.90144078669E+02  0.77000000000E+02 0.  0.
<mgrwt>
<rscale>  0 0.18152690E+03</rscale>
<asrwt>0</asrwt>
<pdfrwt beam="1">  1        2 0.11226642E-01 0.18152690E+03</pdfrwt>
<pdfrwt beam="2">  1       -2 0.17367823E-01 0.18152690E+03</pdfrwt>
<totfact> 0.14198212E+04</totfact>
</mgrwt>
</event>
<event>
 4    1  0.6086918E-004  0.2294679E+03  0.7818608E-02  0.1127015E+00
          2   -1    0    0  501    0  0.00000000000E+00  0.00000000000E+00  0.39605095187E+03  0.39605095187E+03  0.25500000000E-02 0.  1.
         -2   -1    0    0    0  501 -0.00000000000E+00 -0.00000000000E+00 -0.33237836531E+02  0.33237836629E+02  0.25500000000E-02 0. -1.
    5000001    1    1    2    0    0 -0.41933005420E+02 -0.72179328580E+02  0.15085777700E+03  0.18882611392E+03  0.77000000000E+02 0.  0.
   -5000001    1    1    2    0    0  0.41933005420E+02  0.72179328580E+02  0.21195533834E+03  0.24046267458E+03  0.77000000000E+02 0.  0.
<mgrwt>
<rscale>  0 0.22946788E+03</rscale>
<asrwt>0</asrwt>
<pdfrwt beam="1">  1        2 0.60930918E-01 0.22946788E+03</pdfrwt>
<pdfrwt beam="2">  1       -2 0.51135131E-02 0.22946788E+03</pdfrwt>
<totfact> 0.14976347E+04</totfact>
</mgrwt>
</event>
<event>
 4    1  0.6086918E-004  0.2151888E+03  0.7818608E-02  0.1137522E+00
         -2   -1    0    0    0  501 -0.00000000000E+00  0.00000000000E+00  0.12376014036E+02  0.12376014299E+02  0.25500000000E-02 0. -1.
          2   -1    0    0  501    0  0.00000000000E+00 -0.00000000000E+00 -0.93540231662E+03  0.93540231662E+03  0.25500000000E-02 0.  1.
    5000001    1    1    2    0    0 -0.68970355267E+02 -0.21191234113E+02 -0.55406581351E+03  0.56402473706E+03  0.77000000000E+02 0.  0.
   -5000001    1    1    2    0    0  0.68970355267E+02  0.21191234113E+02 -0.36896048907E+03  0.38375359386E+03  0.77000000000E+02 0.  0.
<mgrwt>
<rscale>  0 0.21518878E+03</rscale>
<asrwt>0</asrwt>
<pdfrwt beam="1">  1        2 0.14390799E+00 0.21518878E+03</pdfrwt>
<pdfrwt beam="2">  1       -2 0.19040029E-02 0.21518878E+03</pdfrwt>
<totfact> 0.23533500E+04</totfact>
</mgrwt>
</event>
<event>
 4    1  0.6086918E-004  0.4630765E+03  0.7818608E-02  0.1023893E+00
          2   -1    0    0  501    0  0.00000000000E+00  0.00000000000E+00  0.11154723329E+04  0.11154723329E+04  0.25500000000E-02 0.  1.
         -2   -1    0    0    0  501 -0.00000000000E+00 -0.00000000000E+00 -0.48060317611E+02  0.48060317678E+02  0.25500000000E-02 0. -1.
    5000001    1    1    2    0    0  0.19221883657E+02  0.17014853803E+03  0.87417174981E+03  0.89410584047E+03  0.77000000000E+02 0.  0.
   -5000001    1    1    2    0    0 -0.19221883657E+02 -0.17014853803E+03  0.19324026551E+03  0.26942681014E+03  0.77000000000E+02 0.  0.
<mgrwt>
<rscale>  0 0.46307647E+03</rscale>
<asrwt>0</asrwt>
<pdfrwt beam="1">  1        2 0.17161112E+00 0.46307647E+03</pdfrwt>
<pdfrwt beam="2">  1       -2 0.73938954E-02 0.46307647E+03</pdfrwt>
<totfact> 0.23951703E+03</totfact>
</mgrwt>
</event>
<event>
 4    1  0.6086918E-004  0.3147513E+03  0.7818608E-02  0.1078091E+00
          2   -1    0    0  501    0  0.00000000000E+00  0.00000000000E+00  0.85114526886E+02  0.85114526924E+02  0.25500000000E-02 0.  1.
         -2   -1    0    0    0  501 -0.00000000000E+00 -0.00000000000E+00 -0.29098544085E+03  0.29098544086E+03  0.25500000000E-02 0. -1.
    5000001    1    1    2    0    0 -0.12455503136E+03 -0.34372787626E+02 -0.47624545913E+02  0.15777370421E+03  0.77000000000E+02 0.  0.
   -5000001    1    1    2    0    0  0.12455503136E+03  0.34372787626E+02 -0.15824636805E+03  0.21832626358E+03  0.77000000000E+02 0.  0.
<mgrwt>
<rscale>  0 0.31475126E+03</rscale>
<asrwt>0</asrwt>
<pdfrwt beam="1">  1        2 0.13094543E-01 0.31475126E+03</pdfrwt>
<pdfrwt beam="2">  1       -2 0.44766990E-01 0.31475126E+03</pdfrwt>
<totfact> 0.22016305E+03</totfact>
</mgrwt>
</event>
<event>
 4    1  0.6086918E-004  0.2876698E+03  0.7818608E-02  0.1091572E+00
         -2   -1    0    0    0  501 -0.00000000000E+00  0.00000000000E+00  0.11227792804E+03  0.11227792806E+03  0.25500000000E-02 0. -1.
          2   -1    0    0  501    0  0.00000000000E+00 -0.00000000000E+00 -0.18426130288E+03  0.18426130290E+03  0.25500000000E-02 0.  1.
    5000001    1    1    2    0    0  0.34885044973E+02 -0.74765691961E+02 -0.12791856915E+03  0.17058439375E+03  0.77000000000E+02 0.  0.
   -5000001    1    1    2    0    0 -0.34885044973E+02  0.74765691961E+02  0.55935194299E+02  0.12595483722E+03  0.77000000000E+02 0.  0.
<mgrwt>
<rscale>  0 0.28766979E+03</rscale>
<asrwt>0</asrwt>
<pdfrwt beam="1">  1        2 0.28347893E-01 0.28766979E+03</pdfrwt>
<pdfrwt beam="2">  1       -2 0.17273527E-01 0.28766979E+03</pdfrwt>
<totfact> 0.50209327E+03</totfact>
</mgrwt>
</event>
<event>
 4    1  0.6086918E-004  0.1928822E+03  0.7818608E-02  0.1155887E+00
          2   -1    0    0  501    0  0.00000000000E+00  0.00000000000E+00  0.65911715984E+03  0.65911715985E+03  0.25500000000E-02 0.  1.
         -2   -1    0    0    0  501 -0.00000000000E+00 -0.00000000000E+00 -0.14111133915E+02  0.14111134145E+02  0.25500000000E-02 0. -1.
    5000001    1    1    2    0    0 -0.44291335632E+02 -0.36823930254E+02  0.34819128114E+03  0.36122554245E+03  0.77000000000E+02 0.  0.
   -5000001    1    1    2    0    0  0.44291335632E+02  0.36823930254E+02  0.29681474479E+03  0.31200275155E+03  0.77000000000E+02 0.  0.
<mgrwt>
<rscale>  0 0.19288225E+03</rscale>
<asrwt>0</asrwt>
<pdfrwt beam="1">  1        2 0.10140263E+00 0.19288225E+03</pdfrwt>
<pdfrwt beam="2">  1       -2 0.21709438E-02 0.19288225E+03</pdfrwt>
<totfact> 0.29935409E+04</totfact>
</mgrwt>
</event>
<event>
 4    1  0.6086918E-004  0.4282815E+03  0.7818608E-02  0.1034404E+00
          2   -1    0    0  501    0  0.00000000000E+00  0.00000000000E+00  0.90810394001E+02  0.90810394037E+02  0.25500000000E-02 0.  1.
         -2   -1    0    0    0  501 -0.00000000000E+00 -0.00000000000E+00 -0.50496719318E+03  0.50496719319E+03  0.25500000000E-02 0. -1.
    5000001    1    1    2    0    0 -0.16986948540E+03  0.23713775916E+02 -0.34968557541E+03  0.39702265287E+03  0.77000000000E+02 0.  0.
   -5000001    1    1    2    0    0  0.16986948540E+03 -0.23713775916E+02 -0.64471223766E+02  0.19875493436E+03  0.77000000000E+02 0.  0.
<mgrwt>
<rscale>  0 0.42828154E+03</rscale>
<asrwt>0</asrwt>
<pdfrwt beam="1">  1        2 0.13970830E-01 0.42828154E+03</pdfrwt>
<pdfrwt beam="2">  1       -2 0.77687259E-01 0.42828154E+03</pdfrwt>
<totfact> 0.64935259E+02</totfact>
</mgrwt>
</event>
<event>
 4    1  0.6086918E-004  0.1647428E+03  0.7818608E-02  0.1183444E+00
          2   -1    0    0  501    0  0.00000000000E+00  0.00000000000E+00  0.19323383446E+02  0.19323383614E+02  0.25500000000E-02 0.  1.
         -2   -1    0    0    0  501 -0.00000000000E+00 -0.00000000000E+00 -0.35113147213E+03  0.35113147214E+03  0.25500000000E-02 0. -1.
    5000001    1    1    2    0    0 -0.36138818887E+01 -0.11092285220E+02 -0.10556759498E+03  0.13118542618E+03  0.77000000000E+02 0.  0.
   -5000001    1    1    2    0    0  0.36138818887E+01  0.11092285220E+02 -0.22624049370E+03  0.23926942956E+03  0.77000000000E+02 0.  0.
<mgrwt>
<rscale>  0 0.16474281E+03</rscale>
<asrwt>0</asrwt>
<pdfrwt beam="1">  1        2 0.29728285E-02 0.16474281E+03</pdfrwt>
<pdfrwt beam="2">  1       -2 0.54020222E-01 0.16474281E+03</pdfrwt>
<totfact> 0.99413120E+03</totfact>
</mgrwt>
</event>
<event>
 4    1  0.6086918E-004  0.2646492E+03  0.7818608E-02  0.1104382E+00
         -2   -1    0    0    0  501 -0.00000000000E+00  0.00000000000E+00  0.13974134411E+02  0.13974134644E+02  0.25500000000E-02 0. -1.
          2   -1    0    0  501    0  0.00000000000E+00 -0.00000000000E+00 -0.12530151057E+04  0.12530151057E+04  0.25500000000E-02 0.  1.
    5000001    1    1    2    0    0 -0.73652813214E+02 -0.42426989057E+02 -0.30354963524E+03  0.32449370926E+03  0.77000000000E+02 0.  0.
   -5000001    1    1    2    0    0  0.73652813214E+02  0.42426989057E+02 -0.93549133600E+03  0.94249553104E+03  0.77000000000E+02 0.  0.
<mgrwt>
<rscale>  0 0.26464921E+03</rscale>
<asrwt>0</asrwt>
<pdfrwt beam="1">  1        2 0.19277146E+00 0.26464921E+03</pdfrwt>
<pdfrwt beam="2">  1       -2 0.21498679E-02 0.26464921E+03</pdfrwt>
<totfact> 0.12922818E+04</totfact>
</mgrwt>
</event>
<event>
 4    1  0.6086918E-004  0.2257689E+03  0.7818608E-02  0.1129654E+00
          2   -1    0    0  501    0  0.00000000000E+00  0.00000000000E+00  0.64950116685E+03  0.64950116686E+03  0.25500000000E-02 0.  1.
         -2   -1    0    0    0  501 -0.00000000000E+00 -0.00000000000E+00 -0.19619509139E+02  0.19619509304E+02  0.25500000000E-02 0. -1.
    5000001    1    1    2    0    0 -0.43730689155E+02 -0.70010554786E+02  0.31432496665E+03  0.33398059168E+03  0.77000000000E+02 0.  0.
   -5000001    1    1    2    0    0  0.43730689155E+02  0.70010554786E+02  0.31555669106E+03  0.33514008449E+03  0.77000000000E+02 0.  0.
<mgrwt>
<rscale>  0 0.22576886E+03</rscale>
<asrwt>0</asrwt>
<pdfrwt beam="1">  1        2 0.99923247E-01 0.22576886E+03</pdfrwt>
<pdfrwt beam="2">  1       -2 0.30183863E-02 0.22576886E+03</pdfrwt>
<totfact> 0.18938847E+04</totfact>
</mgrwt>
</event>
<event>
 4    1  0.6086918E-004  0.3018486E+03  0.7818608E-02  0.1084320E+00
         -2   -1    0    0    0  501 -0.00000000000E+00  0.00000000000E+00  0.34005952564E+02  0.34005952660E+02  0.25500000000E-02 0. -1.
          2   -1    0    0  501    0  0.00000000000E+00 -0.00000000000E+00 -0.66982815784E+03  0.66982815784E+03  0.25500000000E-02 0.  1.
    5000001    1    1    2    0    0 -0.11947030558E+03 -0.83523380385E+01 -0.43464353338E+03  0.45736956236E+03  0.77000000000E+02 0.  0.
   -5000001    1    1    2    0    0  0.11947030558E+03  0.83523380385E+01 -0.20117867190E+03  0.24646454815E+03  0.77000000000E+02 0.  0.
<mgrwt>
<rscale>  0 0.30184860E+03</rscale>
<asrwt>0</asrwt>
<pdfrwt beam="1">  1        2 0.10305048E+00 0.30184860E+03</pdfrwt>
<pdfrwt beam="2">  1       -2 0.52316855E-02 0.30184860E+03</pdfrwt>
<totfact> 0.80842928E+03</totfact>
</mgrwt>
</event>
<event>
 4    1  0.6086918E-004  0.2200820E+03  0.7818608E-02  0.1133822E+00
          2   -1    0    0  501    0  0.00000000000E+00  0.00000000000E+00  0.28662654569E+03  0.28662654570E+03  0.25500000000E-02 0.  1.
         -2   -1    0    0    0  501 -0.00000000000E+00 -0.00000000000E+00 -0.42246697650E+02  0.42246697727E+02  0.25500000000E-02 0. -1.
    5000001    1    1    2    0    0  0.60514344704E+02  0.19320624921E+01  0.19711946026E+03  0.22011542516E+03  0.77000000000E+02 0.  0.
   -5000001    1    1    2    0    0 -0.60514344704E+02 -0.19320624921E+01  0.47260387774E+02  0.10875781826E+03  0.77000000000E+02 0.  0.
<mgrwt>
<rscale>  0 0.22008203E+03</rscale>
<asrwt>0</asrwt>
<pdfrwt beam="1">  1        2 0.44096392E-01 0.22008203E+03</pdfrwt>
<pdfrwt beam="2">  1       -2 0.64994920E-02 0.22008203E+03</pdfrwt>
<totfact> 0.14662586E+04</totfact>
</mgrwt>
</event>
<event>
 4    1  0.6086918E-004  0.2856963E+03  0.7818608E-02  0.1092618E+00
         -2   -1    0    0    0  501 -0.00000000000E+00  0.00000000000E+00  0.21901405155E+02  0.21901405303E+02  0.25500000000E-02 0. -1.
          2   -1    0    0  501    0  0.00000000000E+00 -0.00000000000E+00 -0.93170279803E+03  0.93170279803E+03  0.25500000000E-02 0.  1.
    5000001    1    1    2    0    0 -0.56560651698E+02 -0.10597496557E+03 -0.43206649228E+03  0.45501676277E+03  0.77000000000E+02 0.  0.
   -5000001    1    1    2    0    0  0.56560651698E+02  0.10597496557E+03 -0.47773490060E+03  0.49858744057E+03  0.77000000000E+02 0.  0.
<mgrwt>
<rscale>  0 0.28569635E+03</rscale>
<asrwt>0</asrwt>
<pdfrwt beam="1">  1        2 0.14333886E+00 0.28569635E+03</pdfrwt>
<pdfrwt beam="2">  1       -2 0.33694477E-02 0.28569635E+03</pdfrwt>
<totfact> 0.10303332E+04</totfact>
</mgrwt>
</event>
<event>
 4    1  0.6086918E-004  0.2373247E+03  0.7818608E-02  0.1121588E+00
         -2   -1    0    0    0  501 -0.00000000000E+00  0.00000000000E+00  0.39517740524E+03  0.39517740525E+03  0.25500000000E-02 0. -1.
          2   -1    0    0  501    0  0.00000000000E+00 -0.00000000000E+00 -0.35631487095E+02  0.35631487186E+02  0.25500000000E-02 0.  1.
    5000001    1    1    2    0    0 -0.82441116912E+02 -0.28756862478E+02  0.13805077480E+03  0.18058380692E+03  0.77000000000E+02 0.  0.
   -5000001    1    1    2    0    0  0.82441116912E+02  0.28756862478E+02  0.22149514334E+03  0.25022508552E+03  0.77000000000E+02 0.  0.
<mgrwt>
<rscale>  0 0.23732474E+03</rscale>
<asrwt>0</asrwt>
<pdfrwt beam="1">  1        2 0.54817668E-02 0.23732474E+03</pdfrwt>
<pdfrwt beam="2">  1       -2 0.60796529E-01 0.23732474E+03</pdfrwt>
<totfact> 0.35394254E+03</totfact>
</mgrwt>
</event>
<event>
 4    1  0.6086918E-004  0.3832821E+03  0.7818608E-02  0.1049727E+00
          2   -1    0    0  501    0  0.00000000000E+00  0.00000000000E+00  0.14820138029E+04  0.14820138029E+04  0.25500000000E-02 0. -1.
         -2   -1    0    0    0  501 -0.00000000000E+00 -0.00000000000E+00 -0.24781340496E+02  0.24781340627E+02  0.25500000000E-02 0.  1.
    5000001    1    1    2    0    0  0.89630067016E+02 -0.37340487847E+02  0.13033042470E+04  0.13091825011E+04  0.77000000000E+02 0.  0.
   -5000001    1    1    2    0    0 -0.89630067016E+02  0.37340487847E+02  0.15392821537E+03  0.19761264239E+03  0.77000000000E+02 0.  0.
<mgrwt>
<rscale>  0 0.38328208E+03</rscale>
<asrwt>0</asrwt>
<pdfrwt beam="1">  1        2 0.22800221E+00 0.38328208E+03</pdfrwt>
<pdfrwt beam="2">  1       -2 0.38125125E-02 0.38328208E+03</pdfrwt>
<totfact> 0.41309819E+03</totfact>
</mgrwt>
</event>
<event>
 4    1  0.6086918E-004  0.3252875E+03  0.7818608E-02  0.1073241E+00
          2   -1    0    0  501    0  0.00000000000E+00  0.00000000000E+00  0.20231792169E+04  0.20231792169E+04  0.25500000000E-02 0.  1.
         -2   -1    0    0    0  501 -0.00000000000E+00 -0.00000000000E+00 -0.13074963009E+02  0.13074963258E+02  0.25500000000E-02 0. -1.
    5000001    1    1    2    0    0  0.46226147272E+02 -0.50426761060E+02  0.21709821429E+03  0.24029221704E+03  0.77000000000E+02 0.  0.
   -5000001    1    1    2    0    0 -0.46226147272E+02  0.50426761060E+02  0.17930060396E+04  0.17959619631E+04  0.77000000000E+02 0.  0.
<mgrwt>
<rscale>  0 0.32528753E+03</rscale>
<asrwt>0</asrwt>
<pdfrwt beam="1">  1        2 0.31125824E+00 0.32528753E+03</pdfrwt>
<pdfrwt beam="2">  1       -2 0.20115334E-02 0.32528753E+03</pdfrwt>
<totfact> 0.55372934E+03</totfact>
</mgrwt>
</event>
<event>
 4    1  0.6086918E-004  0.1830753E+03  0.7818608E-02  0.1164859E+00
         -2   -1    0    0    0  501 -0.00000000000E+00  0.00000000000E+00  0.26050804471E+01  0.26050816951E+01  0.25500000000E-02 0. -1.
          2   -1    0    0  501    0  0.00000000000E+00 -0.00000000000E+00 -0.32164617472E+04  0.32164617472E+04  0.25500000000E-02 0.  1.
    5000001    1    1    2    0    0  0.27689581460E+02 -0.40813381303E+02 -0.16809007253E+04  0.16833860797E+04  0.77000000000E+02 0.  0.
   -5000001    1    1    2    0    0 -0.27689581460E+02  0.40813381303E+02 -0.15329559415E+04  0.15356807492E+04  0.77000000000E+02 0.  0.
<mgrwt>
<rscale>  0 0.18307532E+03</rscale>
<asrwt>0</asrwt>
<pdfrwt beam="1">  1        2 0.49483709E+00 0.18307532E+03</pdfrwt>
<pdfrwt beam="2">  1       -2 0.40078428E-03 0.18307532E+03</pdfrwt>
<totfact> 0.12277892E+04</totfact>
</mgrwt>
</event>
<event>
 4    1  0.6086918E-004  0.2063707E+03  0.7818608E-02  0.1144473E+00
          2   -1    0    0  501    0  0.00000000000E+00  0.00000000000E+00  0.11952988493E+02  0.11952988765E+02  0.25500000000E-02 0.  1.
         -2   -1    0    0    0  501 -0.00000000000E+00 -0.00000000000E+00 -0.89075762063E+03  0.89075762064E+03  0.25500000000E-02 0. -1.
    5000001    1    1    2    0    0  0.49082519307E+01 -0.48473541240E+02 -0.65119947940E+03  0.65754356290E+03  0.77000000000E+02 0.  0.
   -5000001    1    1    2    0    0 -0.49082519307E+01  0.48473541240E+02 -0.22760515274E+03  0.24516704650E+03  0.77000000000E+02 0.  0.
<mgrwt>
<rscale>  0 0.20637069E+03</rscale>
<asrwt>0</asrwt>
<pdfrwt beam="1">  1        2 0.18389220E-02 0.20637069E+03</pdfrwt>
<pdfrwt beam="2">  1       -2 0.13703958E+00 0.20637069E+03</pdfrwt>
<totfact> 0.24198196E+03</totfact>
</mgrwt>
</event>
<event>
 4    1  0.6086918E-004  0.4882388E+03  0.7818608E-02  0.1016895E+00
         -2   -1    0    0    0  501 -0.00000000000E+00  0.00000000000E+00  0.47140915415E+02  0.47140915483E+02  0.25500000000E-02 0. -1.
          2   -1    0    0  501    0  0.00000000000E+00 -0.00000000000E+00 -0.12641731536E+04  0.12641731536E+04  0.25500000000E-02 0.  1.
    5000001    1    1    2    0    0  0.51887989356E+02 -0.18856547189E+03 -0.94198859519E+03  0.96515325939E+03  0.77000000000E+02 0.  0.
   -5000001    1    1    2    0    0 -0.51887989356E+02  0.18856547189E+03 -0.27504364303E+03  0.34616080974E+03  0.77000000000E+02 0.  0.
<mgrwt>
<rscale>  0 0.48823879E+03</rscale>
<asrwt>0</asrwt>
<pdfrwt beam="1">  1        2 0.19448815E+00 0.48823879E+03</pdfrwt>
<pdfrwt beam="2">  1       -2 0.72524495E-02 0.48823879E+03</pdfrwt>
<totfact> 0.20209882E+03</totfact>
</mgrwt>
</event>
<event>
 4    1  0.6086918E-004  0.2801444E+03  0.7818608E-02  0.1095610E+00
         -2   -1    0    0    0  501 -0.00000000000E+00  0.00000000000E+00  0.24474254170E+03  0.24474254171E+03  0.25500000000E-02 0. -1.
          2   -1    0    0  501    0  0.00000000000E+00 -0.00000000000E+00 -0.80166806923E+02  0.80166806964E+02  0.25500000000E-02 0.  1.
    5000001    1    1    2    0    0  0.84750934407E+02  0.14142485984E+02  0.17440558028E+03  0.20911489002E+03  0.77000000000E+02 0.  0.
   -5000001    1    1    2    0    0 -0.84750934407E+02 -0.14142485984E+02 -0.98298455105E+01  0.11579445866E+03  0.77000000000E+02 0.  0.
<mgrwt>
<rscale>  0 0.28014445E+03</rscale>
<asrwt>0</asrwt>
<pdfrwt beam="1">  1        2 0.12333355E-01 0.28014445E+03</pdfrwt>
<pdfrwt beam="2">  1       -2 0.37652699E-01 0.28014445E+03</pdfrwt>
<totfact> 0.32928510E+03</totfact>
</mgrwt>
</event>
<event>
 4    1  0.6086918E-004  0.2494905E+03  0.7818608E-02  0.1113627E+00
         -2   -1    0    0    0  501 -0.00000000000E+00  0.00000000000E+00  0.26483721070E+02  0.26483721193E+02  0.25500000000E-02 0. -1.
          2   -1    0    0  501    0  0.00000000000E+00 -0.00000000000E+00 -0.58758255586E+03  0.58758255587E+03  0.25500000000E-02 0.  1.
    5000001    1    1    2    0    0 -0.29740670414E+02  0.88572747913E+02 -0.20659892694E+03  0.23946138679E+03  0.77000000000E+02 0.  0.
   -5000001    1    1    2    0    0  0.29740670414E+02 -0.88572747913E+02 -0.35449990785E+03  0.37460489027E+03  0.77000000000E+02 0.  0.
<mgrwt>
<rscale>  0 0.24949046E+03</rscale>
<asrwt>0</asrwt>
<pdfrwt beam="1">  1        2 0.90397307E-01 0.24949046E+03</pdfrwt>
<pdfrwt beam="2">  1       -2 0.40744191E-02 0.24949046E+03</pdfrwt>
<totfact> 0.13672537E+04</totfact>
</mgrwt>
</event>
<event>
 4    1  0.6086918E-004  0.2103044E+03  0.7818608E-02  0.1141325E+00
         -2   -1    0    0    0  501 -0.00000000000E+00  0.00000000000E+00  0.78273550412E+01  0.78273554566E+01  0.25500000000E-02 0. -1.
          2   -1    0    0  501    0  0.00000000000E+00 -0.00000000000E+00 -0.14126075455E+04  0.14126075455E+04  0.25500000000E-02 0.  1.
    5000001    1    1    2    0    0 -0.49776109861E+02  0.45019160944E+02 -0.87105487782E+03  0.87702336693E+03  0.77000000000E+02 0.  0.
   -5000001    1    1    2    0    0  0.49776109861E+02 -0.45019160944E+02 -0.53372531261E+03  0.54341153400E+03  0.77000000000E+02 0.  0.
<mgrwt>
<rscale>  0 0.21030436E+03</rscale>
<asrwt>0</asrwt>
<pdfrwt beam="1">  1        2 0.21732403E+00 0.21030436E+03</pdfrwt>
<pdfrwt beam="2">  1       -2 0.12042096E-02 0.21030436E+03</pdfrwt>
<totfact> 0.24401845E+04</totfact>
</mgrwt>
</event>
<event>
 4    1  0.6086918E-004  0.2003759E+03  0.7818608E-02  0.1149422E+00
         -2   -1    0    0    0  501 -0.00000000000E+00  0.00000000000E+00  0.32084090363E+02  0.32084090464E+02  0.25500000000E-02 0. -1.
          2   -1    0    0  501    0  0.00000000000E+00 -0.00000000000E+00 -0.31285353526E+03  0.31285353527E+03  0.25500000000E-02 0.  1.
    5000001    1    1    2    0    0  0.32817534780E+02  0.48481233826E+02 -0.95455112176E+02  0.13589738431E+03  0.77000000000E+02 0.  0.
   -5000001    1    1    2    0    0 -0.32817534780E+02 -0.48481233826E+02 -0.18531433272E+03  0.20904024143E+03  0.77000000000E+02 0.  0.
<mgrwt>
<rscale>  0 0.20037586E+03</rscale>
<asrwt>0</asrwt>
<pdfrwt beam="1">  1        2 0.48131311E-01 0.20037586E+03</pdfrwt>
<pdfrwt beam="2">  1       -2 0.49360141E-02 0.20037586E+03</pdfrwt>
<totfact> 0.20174251E+04</totfact>
</mgrwt>
</event>
<event>
 4    1  0.6086918E-004  0.1880300E+03  0.7818608E-02  0.1160250E+00
          2   -1    0    0  501    0  0.00000000000E+00  0.00000000000E+00  0.35888166205E+04  0.35888166205E+04  0.25500000000E-02 0.  1.
         -2   -1    0    0    0  501 -0.00000000000E+00 -0.00000000000E+00 -0.24628773679E+01  0.24628786880E+01  0.25500000000E-02 0. -1.
    5000001    1    1    2    0    0  0.45732039171E+02  0.12664547550E+02  0.22831108096E+04  0.22849017001E+04  0.77000000000E+02 0.  0.
   -5000001    1    1    2    0    0 -0.45732039171E+02 -0.12664547550E+02  0.13032429335E+04  0.13063777990E+04  0.77000000000E+02 0.  0.
<mgrwt>
<rscale>  0 0.18802997E+03</rscale>
<asrwt>0</asrwt>
<pdfrwt beam="1">  1        2 0.55212917E+00 0.18802997E+03</pdfrwt>
<pdfrwt beam="2">  1       -2 0.37890189E-03 0.18802997E+03</pdfrwt>
<totfact> 0.76864085E+03</totfact>
</mgrwt>
</event>
<event>
 4    1  0.6086918E-004  0.7084888E+03  0.7818608E-02  0.9702824E-01
         -2   -1    0    0    0  501 -0.00000000000E+00  0.00000000000E+00  0.92575410751E+02  0.92575410786E+02  0.25500000000E-02 0. -1.
          2   -1    0    0  501    0  0.00000000000E+00 -0.00000000000E+00 -0.13555336575E+04  0.13555336575E+04  0.25500000000E-02 0.  1.
    5000001    1    1    2    0    0 -0.30420550844E+03 -0.15096253328E+03 -0.76440454849E+03  0.83998451865E+03  0.77000000000E+02 0.  0.
   -5000001    1    1    2    0    0  0.30420550844E+03  0.15096253328E+03 -0.49855369824E+03  0.60812454962E+03  0.77000000000E+02 0.  0.
<mgrwt>
<rscale>  0 0.70848877E+03</rscale>
<asrwt>0</asrwt>
<pdfrwt beam="1">  1        2 0.20854363E+00 0.70848877E+03</pdfrwt>
<pdfrwt beam="2">  1       -2 0.14242372E-01 0.70848877E+03</pdfrwt>
<totfact> 0.59380654E+02</totfact>
</mgrwt>
</event>
<event>
 4    1  0.6086918E-004  0.1974994E+03  0.7818608E-02  0.1151866E+00
          2   -1    0    0  501    0  0.00000000000E+00  0.00000000000E+00  0.17038076934E+03  0.17038076936E+03  0.25500000000E-02 0.  1.
         -2   -1    0    0    0  501 -0.00000000000E+00 -0.00000000000E+00 -0.57233601737E+02  0.57233601794E+02  0.25500000000E-02 0. -1.
    5000001    1    1    2    0    0  0.15559861809E+02 -0.56269655512E+02  0.80026553228E+02  0.12546566324E+03  0.77000000000E+02 0.  0.
   -5000001    1    1    2    0    0 -0.15559861809E+02  0.56269655512E+02  0.33120614371E+02  0.10214870791E+03  0.77000000000E+02 0.  0.
<mgrwt>
<rscale>  0 0.19749942E+03</rscale>
<asrwt>0</asrwt>
<pdfrwt beam="1">  1        2 0.26212426E-01 0.19749942E+03</pdfrwt>
<pdfrwt beam="2">  1       -2 0.88051695E-02 0.19749942E+03</pdfrwt>
<totfact> 0.15980806E+04</totfact>
</mgrwt>
</event>
<event>
 4    1  0.6086918E-004  0.3879134E+03  0.7818608E-02  0.1048047E+00
          2   -1    0    0  501    0  0.00000000000E+00  0.00000000000E+00  0.39452363902E+03  0.39452363903E+03  0.25500000000E-02 0.  1.
         -2   -1    0    0    0  501 -0.00000000000E+00 -0.00000000000E+00 -0.95353497346E+02  0.95353497380E+02  0.25500000000E-02 0. -1.
    5000001    1    1    2    0    0 -0.17037557008E+03 -0.49406827752E+02  0.16837311546E+03  0.25641251045E+03  0.77000000000E+02 0.  0.
   -5000001    1    1    2    0    0  0.17037557008E+03  0.49406827752E+02  0.13079702622E+03  0.23346462596E+03  0.77000000000E+02 0.  0.
<mgrwt>
<rscale>  0 0.38791344E+03</rscale>
<asrwt>0</asrwt>
<pdfrwt beam="1">  1        2 0.60695945E-01 0.38791344E+03</pdfrwt>
<pdfrwt beam="2">  1       -2 0.14669769E-01 0.38791344E+03</pdfrwt>
<totfact> 0.28958338E+03</totfact>
</mgrwt>
</event>
<event>
 4    1  0.6086918E-004  0.1831178E+03  0.7818608E-02  0.1164819E+00
          2   -1    0    0  501    0  0.00000000000E+00  0.00000000000E+00  0.10741616165E+04  0.10741616165E+04  0.25500000000E-02 0.  1.
         -2   -1    0    0    0  501 -0.00000000000E+00 -0.00000000000E+00 -0.78042567078E+01  0.78042571244E+01  0.25500000000E-02 0. -1.
    5000001    1    1    2    0    0 -0.89176340968E+01 -0.39799224036E+02  0.36705085842E+03  0.37725168668E+03  0.77000000000E+02 0.  0.
   -5000001    1    1    2    0    0  0.89176340968E+01  0.39799224036E+02  0.69930650137E+03  0.70471418695E+03  0.77000000000E+02 0.  0.
<mgrwt>
<rscale>  0 0.18311781E+03</rscale>
<asrwt>0</asrwt>
<pdfrwt beam="1">  1        2 0.16525565E+00 0.18311781E+03</pdfrwt>
<pdfrwt beam="2">  1       -2 0.12006548E-02 0.18311781E+03</pdfrwt>
<totfact> 0.37495973E+04</totfact>
</mgrwt>
</event>
<event>
 4    1  0.6086918E-004  0.2919718E+03  0.7818608E-02  0.1089324E+00
         -2   -1    0    0    0  501 -0.00000000000E+00  0.00000000000E+00  0.78428232542E+01  0.78428236688E+01  0.25500000000E-02 0. -1.
          2   -1    0    0  501    0  0.00000000000E+00 -0.00000000000E+00 -0.27173731545E+04  0.27173731545E+04  0.25500000000E-02 0.  1.
    5000001    1    1    2    0    0 -0.16283022086E+02  0.10572058740E+03 -0.19407113048E+04  0.19451815720E+04  0.77000000000E+02 0.  0.
   -5000001    1    1    2    0    0  0.16283022086E+02 -0.10572058740E+03 -0.76881902643E+03  0.78003440617E+03  0.77000000000E+02 0.  0.
<mgrwt>
<rscale>  0 0.29197177E+03</rscale>
<asrwt>0</asrwt>
<pdfrwt beam="1">  1        2 0.41805666E+00 0.29197177E+03</pdfrwt>
<pdfrwt beam="2">  1       -2 0.12065904E-02 0.29197177E+03</pdfrwt>
<totfact> 0.49203731E+03</totfact>
</mgrwt>
</event>
<event>
 4    1  0.6086918E-004  0.2674041E+03  0.7818608E-02  0.1102775E+00
          2   -1    0    0  501    0  0.00000000000E+00  0.00000000000E+00  0.26813873594E+04  0.26813873594E+04  0.25500000000E-02 0.  1.
         -2   -1    0    0    0  501 -0.00000000000E+00 -0.00000000000E+00 -0.66667857237E+01  0.66667862114E+01  0.25500000000E-02 0. -1.
    5000001    1    1    2    0    0 -0.25029251898E+02  0.51450855069E+02  0.22735615399E+04  0.22755844809E+04  0.77000000000E+02 0.  0.
   -5000001    1    1    2    0    0  0.25029251898E+02 -0.51450855069E+02  0.40115903372E+03  0.41246966467E+03  0.77000000000E+02 0.  0.
<mgrwt>
<rscale>  0 0.26740408E+03</rscale>
<asrwt>0</asrwt>
<pdfrwt beam="1">  1        2 0.41252087E+00 0.26740408E+03</pdfrwt>
<pdfrwt beam="2">  1       -2 0.10256600E-02 0.26740408E+03</pdfrwt>
<totfact> 0.65378020E+03</totfact>
</mgrwt>
</event>
<event>
 4    1  0.6086918E-004  0.1821565E+03  0.7818608E-02  0.1165732E+00
         -2   -1    0    0    0  501 -0.00000000000E+00  0.00000000000E+00  0.59305313685E+01  0.59305319168E+01  0.25500000000E-02 0. -1.
          2   -1    0    0  501    0  0.00000000000E+00 -0.00000000000E+00 -0.13987361988E+04  0.13987361988E+04  0.25500000000E-02 0.  1.
    5000001    1    1    2    0    0  0.30372377653E+02 -0.11153890888E+02 -0.97650084133E+03  0.98006621395E+03  0.77000000000E+02 0.  0.
   -5000001    1    1    2    0    0 -0.30372377653E+02  0.11153890888E+02 -0.41630482611E+03  0.42460051678E+03  0.77000000000E+02 0.  0.
<mgrwt>
<rscale>  0 0.18215652E+03</rscale>
<asrwt>0</asrwt>
<pdfrwt beam="1">  1        2 0.21518992E+00 0.18215652E+03</pdfrwt>
<pdfrwt beam="2">  1       -2 0.91239059E-03 0.18215652E+03</pdfrwt>
<totfact> 0.36732035E+04</totfact>
</mgrwt>
</event>
<event>
 4    1  0.6086918E-004  0.2465307E+03  0.7818608E-02  0.1115517E+00
          2   -1    0    0  501    0  0.00000000000E+00  0.00000000000E+00  0.97852814390E+03  0.97852814390E+03  0.25500000000E-02 0.  1.
         -2   -1    0    0    0  501 -0.00000000000E+00 -0.00000000000E+00 -0.15527751220E+02  0.15527751429E+02  0.25500000000E-02 0. -1.
    5000001    1    1    2    0    0 -0.19471607771E+02  0.93742496094E+02  0.52152708931E+03  0.53580435233E+03  0.77000000000E+02 0.  0.
   -5000001    1    1    2    0    0  0.19471607771E+02 -0.93742496094E+02  0.44147330337E+03  0.45825154301E+03  0.77000000000E+02 0.  0.
<mgrwt>
<rscale>  0 0.24653066E+03</rscale>
<asrwt>0</asrwt>
<pdfrwt beam="1">  1        2 0.15054277E+00 0.24653066E+03</pdfrwt>
<pdfrwt beam="2">  1       -2 0.23888851E-02 0.24653066E+03</pdfrwt>
<totfact> 0.15964574E+04</totfact>
</mgrwt>
</event>
<event>
 4    1  0.6086918E-004  0.2666562E+03  0.7818608E-02  0.1103209E+00
          2   -1    0    0  501    0  0.00000000000E+00  0.00000000000E+00  0.16411880980E+04  0.16411880980E+04  0.25500000000E-02 0.  1.
         -2   -1    0    0    0  501 -0.00000000000E+00 -0.00000000000E+00 -0.10831412178E+02  0.10831412478E+02  0.25500000000E-02 0. -1.
    5000001    1    1    2    0    0 -0.79558162272E+02 -0.51391782792E+02  0.48288938619E+03  0.49807808205E+03  0.77000000000E+02 0.  0.
   -5000001    1    1    2    0    0  0.79558162272E+02  0.51391782792E+02  0.11474672996E+04  0.11539414284E+04  0.77000000000E+02 0.  0.
<mgrwt>
<rscale>  0 0.26665622E+03</rscale>
<asrwt>0</asrwt>
<pdfrwt beam="1">  1        2 0.25249035E+00 0.26665622E+03</pdfrwt>
<pdfrwt beam="2">  1       -2 0.16663720E-02 0.26665622E+03</pdfrwt>
<totfact> 0.11594431E+04</totfact>
</mgrwt>
</event>
<event>
 4    1  0.6086918E-004  0.1977754E+03  0.7818608E-02  0.1151630E+00
          2   -1    0    0  501    0  0.00000000000E+00  0.00000000000E+00  0.29040633744E+03  0.29040633745E+03  0.25500000000E-02 0.  1.
         -2   -1    0    0    0  501 -0.00000000000E+00 -0.00000000000E+00 -0.33672744924E+02  0.33672745020E+02  0.25500000000E-02 0. -1.
    5000001    1    1    2    0    0  0.47711073892E+02 -0.27807472096E+02  0.17471912805E+03  0.19875959293E+03  0.77000000000E+02 0.  0.
   -5000001    1    1    2    0    0 -0.47711073892E+02  0.27807472096E+02  0.82014464464E+02  0.12531948954E+03  0.77000000000E+02 0.  0.
<mgrwt>
<rscale>  0 0.19777541E+03</rscale>
<asrwt>0</asrwt>
<pdfrwt beam="1">  1        2 0.44677899E-01 0.19777541E+03</pdfrwt>
<pdfrwt beam="2">  1       -2 0.51804222E-02 0.19777541E+03</pdfrwt>
<totfact> 0.20285838E+04</totfact>
</mgrwt>
</event>
<event>
 4    1  0.6086918E-004  0.1970142E+03  0.7818608E-02  0.1152283E+00
          2   -1    0    0  501    0  0.00000000000E+00  0.00000000000E+00  0.38778088276E+03  0.38778088276E+03  0.25500000000E-02 0.  1.
         -2   -1    0    0    0  501 -0.00000000000E+00 -0.00000000000E+00 -0.25023547675E+02  0.25023547805E+02  0.25500000000E-02 0. -1.
    5000001    1    1    2    0    0 -0.59971048853E+02  0.67017366157E+01  0.15719507750E+03  0.18515056674E+03  0.77000000000E+02 0.  0.
   -5000001    1    1    2    0    0  0.59971048853E+02 -0.67017366157E+01  0.20556225758E+03  0.22765386383E+03  0.77000000000E+02 0.  0.
<mgrwt>
<rscale>  0 0.19701425E+03</rscale>
<asrwt>0</asrwt>
<pdfrwt beam="1">  1        2 0.59658598E-01 0.19701425E+03</pdfrwt>
<pdfrwt beam="2">  1       -2 0.38497765E-02 0.19701425E+03</pdfrwt>
<totfact> 0.23249469E+04</totfact>
</mgrwt>
</event>
<event>
 4    1  0.6086918E-004  0.1707256E+03  0.7818608E-02  0.1177093E+00
         -2   -1    0    0    0  501 -0.00000000000E+00  0.00000000000E+00  0.25318960391E+02  0.25318960519E+02  0.25500000000E-02 0. -1.
          2   -1    0    0  501    0  0.00000000000E+00 -0.00000000000E+00 -0.28780034115E+03  0.28780034116E+03  0.25500000000E-02 0.  1.
    5000001    1    1    2    0    0  0.25074862714E+02  0.10225699495E+02 -0.17707330393E+03  0.19498017498E+03  0.77000000000E+02 0.  0.
   -5000001    1    1    2    0    0 -0.25074862714E+02 -0.10225699495E+02 -0.85408076833E+02  0.11813912671E+03  0.77000000000E+02 0.  0.
<mgrwt>
<rscale>  0 0.17072557E+03</rscale>
<asrwt>0</asrwt>
<pdfrwt beam="1">  1        2 0.44276973E-01 0.17072557E+03</pdfrwt>
<pdfrwt beam="2">  1       -2 0.38952249E-02 0.17072557E+03</pdfrwt>
<totfact> 0.31049208E+04</totfact>
</mgrwt>
</event>
<event>
 4    1  0.6086918E-004  0.2090881E+03  0.7818608E-02  0.1142290E+00
         -2   -1    0    0    0  501 -0.00000000000E+00  0.00000000000E+00  0.93448290561E+03  0.93448290562E+03  0.25500000000E-02 0. -1.
          2   -1    0    0  501    0  0.00000000000E+00 -0.00000000000E+00 -0.11695730784E+02  0.11695731062E+02  0.25500000000E-02 0.  1.
    5000001    1    1    2    0    0  0.43084366940E+02 -0.54401676391E+02  0.39990068930E+03  0.41311664984E+03  0.77000000000E+02 0.  0.
   -5000001    1    1    2    0    0 -0.43084366940E+02  0.54401676391E+02  0.52288648553E+03  0.53306198684E+03  0.77000000000E+02 0.  0.
<mgrwt>
<rscale>  0 0.20908812E+03</rscale>
<asrwt>0</asrwt>
<pdfrwt beam="1">  1        2 0.17993432E-02 0.20908812E+03</pdfrwt>
<pdfrwt beam="2">  1       -2 0.14376661E+00 0.20908812E+03</pdfrwt>
<totfact> 0.22107651E+03</totfact>
</mgrwt>
</event>
<event>
 4    1  0.6086918E-004  0.2845063E+03  0.7818608E-02  0.1093253E+00
          2   -1    0    0  501    0  0.00000000000E+00  0.00000000000E+00  0.30854325652E+03  0.30854325653E+03  0.25500000000E-02 0.  1.
         -2   -1    0    0    0  501 -0.00000000000E+00 -0.00000000000E+00 -0.65585475969E+02  0.65585476018E+02  0.25500000000E-02 0. -1.
    5000001    1    1    2    0    0  0.87018414845E+02  0.30664931506E+02  0.21378918886E+02  0.12205982434E+03  0.77000000000E+02 0.  0.
   -5000001    1    1    2    0    0 -0.87018414845E+02 -0.30664931506E+02  0.22157886167E+03  0.25206890821E+03  0.77000000000E+02 0.  0.
<mgrwt>
<rscale>  0 0.28450628E+03</rscale>
<asrwt>0</asrwt>
<pdfrwt beam="1">  1        2 0.47468195E-01 0.28450628E+03</pdfrwt>
<pdfrwt beam="2">  1       -2 0.10090073E-01 0.28450628E+03</pdfrwt>
<totfact> 0.68987260E+03</totfact>
</mgrwt>
</event>
<event>
 4    1  0.6086918E-004  0.1844095E+03  0.7818608E-02  0.1163602E+00
          2   -1    0    0  501    0  0.00000000000E+00  0.00000000000E+00  0.28388299217E+03  0.28388299218E+03  0.25500000000E-02 0.  1.
         -2   -1    0    0    0  501 -0.00000000000E+00 -0.00000000000E+00 -0.29947946885E+02  0.29947946994E+02  0.25500000000E-02 0. -1.
    5000001    1    1    2    0    0  0.40263669630E+02  0.28739953793E+02  0.10789771022E+03  0.14148520738E+03  0.77000000000E+02 0.  0.
   -5000001    1    1    2    0    0 -0.40263669630E+02 -0.28739953793E+02  0.14603733506E+03  0.17234573179E+03  0.77000000000E+02 0.  0.
<mgrwt>
<rscale>  0 0.18440947E+03</rscale>
<asrwt>0</asrwt>
<pdfrwt beam="1">  1        2 0.43674308E-01 0.18440947E+03</pdfrwt>
<pdfrwt beam="2">  1       -2 0.46073763E-02 0.18440947E+03</pdfrwt>
<totfact> 0.24669226E+04</totfact>
</mgrwt>
</event>
<event>
 4    1  0.6086918E-004  0.1809544E+03  0.7818608E-02  0.1166883E+00
          2   -1    0    0  501    0  0.00000000000E+00  0.00000000000E+00  0.69571437285E+01  0.69571441958E+01  0.25500000000E-02 0.  1.
         -2   -1    0    0    0  501 -0.00000000000E+00 -0.00000000000E+00 -0.11766497993E+04  0.11766497993E+04  0.25500000000E-02 0. -1.
    5000001    1    1    2    0    0 -0.88577860382E+01  0.36367120924E+02 -0.39346517060E+03  0.40267215987E+03  0.77000000000E+02 0.  0.
   -5000001    1    1    2    0    0  0.88577860382E+01 -0.36367120924E+02 -0.77622748492E+03  0.78093478358E+03  0.77000000000E+02 0.  0.
<mgrwt>
<rscale>  0 0.18095438E+03</rscale>
<asrwt>0</asrwt>
<pdfrwt beam="1">  1        2 0.10703308E-02 0.18095438E+03</pdfrwt>
<pdfrwt beam="2">  1       -2 0.18102289E+00 0.18095438E+03</pdfrwt>
<totfact> 0.24507283E+03</totfact>
</mgrwt>
</event>
<event>
 4    1  0.6086918E-004  0.3227034E+03  0.7818608E-02  0.1074412E+00
         -2   -1    0    0    0  501 -0.00000000000E+00  0.00000000000E+00  0.32892105129E+02  0.32892105228E+02  0.25500000000E-02 0. -1.
          2   -1    0    0  501    0  0.00000000000E+00 -0.00000000000E+00 -0.79150835397E+03  0.79150835398E+03  0.25500000000E-02 0.  1.
    5000001    1    1    2    0    0 -0.12512600593E+03  0.66689078309E+02 -0.37625798866E+03  0.40939348378E+03  0.77000000000E+02 0.  0.
   -5000001    1    1    2    0    0  0.12512600593E+03 -0.66689078309E+02 -0.38235826018E+03  0.41500697543E+03  0.77000000000E+02 0.  0.
<mgrwt>
<rscale>  0 0.32270343E+03</rscale>
<asrwt>0</asrwt>
<pdfrwt beam="1">  1        2 0.12177050E+00 0.32270343E+03</pdfrwt>
<pdfrwt beam="2">  1       -2 0.50603245E-02 0.32270343E+03</pdfrwt>
<totfact> 0.69314508E+03</totfact>
</mgrwt>
</event>
<event>
 4    1  0.6086918E-004  0.2597197E+03  0.7818608E-02  0.1107312E+00
         -2   -1    0    0    0  501 -0.00000000000E+00  0.00000000000E+00  0.92200763667E+01  0.92200767194E+01  0.25500000000E-02 0. -1.
          2   -1    0    0  501    0  0.00000000000E+00 -0.00000000000E+00 -0.18290071092E+04  0.18290071092E+04  0.25500000000E-02 0.  1.
    5000001    1    1    2    0    0  0.87054707430E+02  0.78218608963E+01 -0.50362407328E+03  0.51691963668E+03  0.77000000000E+02 0.  0.
   -5000001    1    1    2    0    0 -0.87054707430E+02 -0.78218608963E+01 -0.13161629596E+04  0.13213075493E+04  0.77000000000E+02 0.  0.
<mgrwt>
<rscale>  0 0.25971974E+03</rscale>
<asrwt>0</asrwt>
<pdfrwt beam="1">  1        2 0.28138542E+00 0.25971974E+03</pdfrwt>
<pdfrwt beam="2">  1       -2 0.14184748E-02 0.25971974E+03</pdfrwt>
<totfact> 0.11684689E+04</totfact>
</mgrwt>
</event>
<event>
 4    1  0.6086918E-004  0.1922433E+03  0.7818608E-02  0.1156453E+00
         -2   -1    0    0    0  501 -0.00000000000E+00  0.00000000000E+00  0.24182697664E+02  0.24182697799E+02  0.25500000000E-02 0. -1.
          2   -1    0    0  501    0  0.00000000000E+00 -0.00000000000E+00 -0.38206528932E+03  0.38206528933E+03  0.25500000000E-02 0.  1.
    5000001    1    1    2    0    0  0.15767722046E+02 -0.52223116862E+02 -0.21758996078E+03  0.23717138534E+03  0.77000000000E+02 0.  0.
   -5000001    1    1    2    0    0 -0.15767722046E+02  0.52223116862E+02 -0.14029263088E+03  0.16907660179E+03  0.77000000000E+02 0.  0.
<mgrwt>
<rscale>  0 0.19224328E+03</rscale>
<asrwt>0</asrwt>
<pdfrwt beam="1">  1        2 0.58779271E-01 0.19224328E+03</pdfrwt>
<pdfrwt beam="2">  1       -2 0.37204153E-02 0.19224328E+03</pdfrwt>
<totfact> 0.24813588E+04</totfact>
</mgrwt>
</event>
<event>
 4    1  0.6086918E-004  0.4795324E+03  0.7818608E-02  0.1019264E+00
         -2   -1    0    0    0  501 -0.00000000000E+00  0.00000000000E+00  0.31718748825E+02  0.31718748927E+02  0.25500000000E-02 0. -1.
          2   -1    0    0  501    0  0.00000000000E+00 -0.00000000000E+00 -0.18124241716E+04  0.18124241717E+04  0.25500000000E-02 0.  1.
    5000001    1    1    2    0    0  0.14023257548E+03 -0.17169945635E+03 -0.70144457204E+03  0.73966165656E+03  0.77000000000E+02 0.  0.
   -5000001    1    1    2    0    0 -0.14023257548E+03  0.17169945635E+03 -0.10792608508E+04  0.11044812640E+04  0.77000000000E+02 0.  0.
<mgrwt>
<rscale>  0 0.47953239E+03</rscale>
<asrwt>0</asrwt>
<pdfrwt beam="1">  1        2 0.27883441E+00 0.47953239E+03</pdfrwt>
<pdfrwt beam="2">  1       -2 0.48798089E-02 0.47953239E+03</pdfrwt>
<totfact> 0.18753833E+03</totfact>
</mgrwt>
</event>
<event>
 4    1  0.6086918E-004  0.1912754E+03  0.7818608E-02  0.1157316E+00
         -2   -1    0    0    0  501 -0.00000000000E+00  0.00000000000E+00  0.45364735910E+01  0.45364743077E+01  0.25500000000E-02 0. -1.
          2   -1    0    0  501    0  0.00000000000E+00 -0.00000000000E+00 -0.20162292484E+04  0.20162292484E+04  0.25500000000E-02 0.  1.
    5000001    1    1    2    0    0  0.42140415698E+02  0.32689430582E+02 -0.12099276623E+04  0.12135478406E+04  0.77000000000E+02 0.  0.
   -5000001    1    1    2    0    0 -0.42140415698E+02 -0.32689430582E+02 -0.80176511256E+03  0.80721788212E+03  0.77000000000E+02 0.  0.
<mgrwt>
<rscale>  0 0.19127542E+03</rscale>
<asrwt>0</asrwt>
<pdfrwt beam="1">  1        2 0.31018840E+00 0.19127542E+03</pdfrwt>
<pdfrwt beam="2">  1       -2 0.69792068E-03 0.19127542E+03</pdfrwt>
<totfact> 0.25769169E+04</totfact>
</mgrwt>
</event>
<event>
 4    1  0.6086918E-004  0.2442546E+03  0.7818608E-02  0.1116991E+00
         -2   -1    0    0    0  501 -0.00000000000E+00  0.00000000000E+00  0.49931147775E+03  0.49931147776E+03  0.25500000000E-02 0. -1.
          2   -1    0    0  501    0  0.00000000000E+00 -0.00000000000E+00 -0.29871294303E+02  0.29871294412E+02  0.25500000000E-02 0.  1.
    5000001    1    1    2    0    0 -0.61948553174E+02 -0.15615190712E+02  0.38644808301E+03  0.39918990253E+03  0.77000000000E+02 0.  0.
   -5000001    1    1    2    0    0  0.61948553174E+02  0.15615190712E+02  0.82992100436E+02  0.12999286964E+03  0.77000000000E+02 0.  0.
<mgrwt>
<rscale>  0 0.24425462E+03</rscale>
<asrwt>0</asrwt>
<pdfrwt beam="1">  1        2 0.45955839E-02 0.24425462E+03</pdfrwt>
<pdfrwt beam="2">  1       -2 0.76817148E-01 0.24425462E+03</pdfrwt>
<totfact> 0.27185418E+03</totfact>
</mgrwt>
</event>
<event>
 4    1  0.6086918E-004  0.1723911E+03  0.7818608E-02  0.1175377E+00
         -2   -1    0    0    0  501 -0.00000000000E+00  0.00000000000E+00  0.15510885049E+02  0.15510885259E+02  0.25500000000E-02 0. -1.
          2   -1    0    0  501    0  0.00000000000E+00 -0.00000000000E+00 -0.47899729237E+03  0.47899729238E+03  0.25500000000E-02 0.  1.
    5000001    1    1    2    0    0 -0.11425963773E+02  0.35680736962E+02 -0.25999553429E+03  0.27373407806E+03  0.77000000000E+02 0.  0.
   -5000001    1    1    2    0    0  0.11425963773E+02 -0.35680736962E+02 -0.20349087302E+03  0.22077409957E+03  0.77000000000E+02 0.  0.
<mgrwt>
<rscale>  0 0.17239109E+03</rscale>
<asrwt>0</asrwt>
<pdfrwt beam="1">  1        2 0.73691880E-01 0.17239109E+03</pdfrwt>
<pdfrwt beam="2">  1       -2 0.23862904E-02 0.17239109E+03</pdfrwt>
<totfact> 0.37077740E+04</totfact>
</mgrwt>
</event>
<event>
 4    1  0.6086918E-004  0.2936595E+03  0.7818608E-02  0.1088454E+00
          2   -1    0    0  501    0  0.00000000000E+00  0.00000000000E+00  0.16241199085E+03  0.16241199087E+03  0.25500000000E-02 0.  1.
         -2   -1    0    0    0  501 -0.00000000000E+00 -0.00000000000E+00 -0.13274246889E+03  0.13274246892E+03  0.25500000000E-02 0. -1.
    5000001    1    1    2    0    0  0.36744624087E+02  0.11349879963E+03  0.52412579844E+02  0.15135462808E+03  0.77000000000E+02 0.  0.
   -5000001    1    1    2    0    0 -0.36744624087E+02 -0.11349879963E+03 -0.22743057889E+02  0.14379983170E+03  0.77000000000E+02 0.  0.
<mgrwt>
<rscale>  0 0.29365945E+03</rscale>
<asrwt>0</asrwt>
<pdfrwt beam="1">  1        2 0.24986460E-01 0.29365945E+03</pdfrwt>
<pdfrwt beam="2">  1       -2 0.20421918E-01 0.29365945E+03</pdfrwt>
<totfact> 0.43499315E+03</totfact>
</mgrwt>
</event>
<event>
 4    1  0.6086918E-004  0.1119050E+04  0.7818608E-02  0.9186821E-01
         -2   -1    0    0    0  501 -0.00000000000E+00  0.00000000000E+00  0.42196676199E+03  0.42196676200E+03  0.25500000000E-02 0. -1.
          2   -1    0    0  501    0  0.00000000000E+00 -0.00000000000E+00 -0.74192610695E+03  0.74192610696E+03  0.25500000000E-02 0.  1.
    5000001    1    1    2    0    0 -0.28691357468E+03 -0.45939922030E+03 -0.37922341617E+02  0.54839232939E+03  0.77000000000E+02 0.  0.
   -5000001    1    1    2    0    0  0.28691357468E+03  0.45939922030E+03 -0.28203700334E+03  0.61550053956E+03  0.77000000000E+02 0.  0.
<mgrwt>
<rscale>  0 0.11190499E+04</rscale>
<asrwt>0</asrwt>
<pdfrwt beam="1">  1        2 0.11414248E+00 0.11190499E+04</pdfrwt>
<pdfrwt beam="2">  1       -2 0.64917963E-01 0.11190499E+04</pdfrwt>
<totfact> 0.82604183E+01</totfact>
</mgrwt>
</event>
<event>
 4    1  0.6086918E-004  0.2286435E+03  0.7818608E-02  0.1127598E+00
         -2   -1    0    0    0  501 -0.00000000000E+00  0.00000000000E+00  0.36071805971E+02  0.36071806061E+02  0.25500000000E-02 0. -1.
          2   -1    0    0  501    0  0.00000000000E+00 -0.00000000000E+00 -0.36231800448E+03  0.36231800449E+03  0.25500000000E-02 0.  1.
    5000001    1    1    2    0    0 -0.81258454423E+02 -0.19461568482E+02 -0.14116769881E+03  0.18121536428E+03  0.77000000000E+02 0.  0.
   -5000001    1    1    2    0    0  0.81258454423E+02  0.19461568482E+02 -0.18507849970E+03  0.21717444628E+03  0.77000000000E+02 0.  0.
<mgrwt>
<rscale>  0 0.22864352E+03</rscale>
<asrwt>0</asrwt>
<pdfrwt beam="1">  1        2 0.55741229E-01 0.22864352E+03</pdfrwt>
<pdfrwt beam="2">  1       -2 0.55495089E-02 0.22864352E+03</pdfrwt>
<totfact> 0.14554963E+04</totfact>
</mgrwt>
</event>
<event>
 4    1  0.6086918E-004  0.2334912E+03  0.7818608E-02  0.1124206E+00
         -2   -1    0    0    0  501 -0.00000000000E+00  0.00000000000E+00  0.41037643677E+02  0.41037643756E+02  0.25500000000E-02 0. -1.
          2   -1    0    0  501    0  0.00000000000E+00 -0.00000000000E+00 -0.33212273296E+03  0.33212273297E+03  0.25500000000E-02 0.  1.
    5000001    1    1    2    0    0  0.29175970901E+02  0.82297911466E+02 -0.15950725840E+03  0.19747341338E+03  0.77000000000E+02 0.  0.
   -5000001    1    1    2    0    0 -0.29175970901E+02 -0.82297911466E+02 -0.13157783088E+03  0.17568696334E+03  0.77000000000E+02 0.  0.
<mgrwt>
<rscale>  0 0.23349119E+03</rscale>
<asrwt>0</asrwt>
<pdfrwt beam="1">  1        2 0.51095803E-01 0.23349119E+03</pdfrwt>
<pdfrwt beam="2">  1       -2 0.63134839E-02 0.23349119E+03</pdfrwt>
<totfact> 0.13138209E+04</totfact>
</mgrwt>
</event>
<event>
 4    1  0.6086918E-004  0.2216782E+03  0.7818608E-02  0.1132638E+00
          2   -1    0    0  501    0  0.00000000000E+00  0.00000000000E+00  0.29866440015E+04  0.29866440015E+04  0.25500000000E-02 0.  1.
         -2   -1    0    0    0  501 -0.00000000000E+00 -0.00000000000E+00 -0.41134147376E+01  0.41134155280E+01  0.25500000000E-02 0. -1.
    5000001    1    1    2    0    0  0.35676943809E+01 -0.46852254624E+02  0.62230320175E+03  0.62880691561E+03  0.77000000000E+02 0.  0.
   -5000001    1    1    2    0    0 -0.35676943809E+01  0.46852254624E+02  0.23602273850E+04  0.23619505014E+04  0.77000000000E+02 0.  0.
<mgrwt>
<rscale>  0 0.22167820E+03</rscale>
<asrwt>0</asrwt>
<pdfrwt beam="1">  1        2 0.45948327E+00 0.22167820E+03</pdfrwt>
<pdfrwt beam="2">  1       -2 0.63283368E-03 0.22167820E+03</pdfrwt>
<totfact> 0.87809502E+03</totfact>
</mgrwt>
</event>
<event>
 4    1  0.6086918E-004  0.2609615E+03  0.7818608E-02  0.1106567E+00
          2   -1    0    0  501    0  0.00000000000E+00  0.00000000000E+00  0.23996444253E+04  0.23996444253E+04  0.25500000000E-02 0.  1.
         -2   -1    0    0    0  501 -0.00000000000E+00 -0.00000000000E+00 -0.70948967852E+01  0.70948972435E+01  0.25500000000E-02 0. -1.
    5000001    1    1    2    0    0 -0.20075870128E+02  0.94381038854E+02  0.15859667057E+04  0.15907640343E+04  0.77000000000E+02 0.  0.
   -5000001    1    1    2    0    0  0.20075870128E+02 -0.94381038854E+02  0.80658282278E+03  0.81597528826E+03  0.77000000000E+02 0.  0.
<mgrwt>
<rscale>  0 0.26096153E+03</rscale>
<asrwt>0</asrwt>
<pdfrwt beam="1">  1        2 0.36917602E+00 0.26096153E+03</pdfrwt>
<pdfrwt beam="2">  1       -2 0.10915227E-02 0.26096153E+03</pdfrwt>
<totfact> 0.85360628E+03</totfact>
</mgrwt>
</event>
<event>
 4    1  0.6086918E-004  0.2573751E+03  0.7818608E-02  0.1108731E+00
         -2   -1    0    0    0  501 -0.00000000000E+00  0.00000000000E+00  0.64756086989E+01  0.64756092010E+01  0.25500000000E-02 0.  1.
          2   -1    0    0  501    0  0.00000000000E+00 -0.00000000000E+00 -0.25573632017E+04  0.25573632017E+04  0.25500000000E-02 0. -1.
    5000001    1    1    2    0    0  0.28877834749E+02 -0.96958174459E+02 -0.10770457907E+04  0.10845236061E+04  0.77000000000E+02 0.  0.
   -5000001    1    1    2    0    0 -0.28877834749E+02  0.96958174459E+02 -0.14738418022E+04  0.14793152047E+04  0.77000000000E+02 0.  0.
<mgrwt>
<rscale>  0 0.25737509E+03</rscale>
<asrwt>0</asrwt>
<pdfrwt beam="1">  1        2 0.39343969E+00 0.25737509E+03</pdfrwt>
<pdfrwt beam="2">  1       -2 0.99624957E-03 0.25737509E+03</pdfrwt>
<totfact> 0.79943216E+03</totfact>
</mgrwt>
</event>
<event>
 4    1  0.6086918E-004  0.2344137E+03  0.7818608E-02  0.1123571E+00
          2   -1    0    0  501    0  0.00000000000E+00  0.00000000000E+00  0.14477613717E+04  0.14477613717E+04  0.25500000000E-02 0.  1.
         -2   -1    0    0    0  501 -0.00000000000E+00 -0.00000000000E+00 -0.94887503942E+01  0.94887507368E+01  0.25500000000E-02 0. -1.
    5000001    1    1    2    0    0  0.74072646645E+02  0.90924248992E+00  0.10186218340E+04  0.10242104395E+04  0.77000000000E+02 0.  0.
   -5000001    1    1    2    0    0 -0.74072646645E+02 -0.90924248992E+00  0.41965078728E+03  0.43303968290E+03  0.77000000000E+02 0.  0.
<mgrwt>
<rscale>  0 0.23441371E+03</rscale>
<asrwt>0</asrwt>
<pdfrwt beam="1">  1        2 0.22273258E+00 0.23441371E+03</pdfrwt>
<pdfrwt beam="2">  1       -2 0.14598074E-02 0.23441371E+03</pdfrwt>
<totfact> 0.17753432E+04</totfact>
</mgrwt>
</event>
<event>
 4    1  0.6086918E-004  0.3319111E+03  0.7818608E-02  0.1070294E+00
         -2   -1    0    0    0  501 -0.00000000000E+00  0.00000000000E+00  0.77393884481E+02  0.77393884523E+02  0.25500000000E-02 0. -1.
          2   -1    0    0  501    0  0.00000000000E+00 -0.00000000000E+00 -0.35585805273E+03  0.35585805274E+03  0.25500000000E-02 0.  1.
    5000001    1    1    2    0    0 -0.10649072967E+03  0.57266536101E+02 -0.30079203760E+02  0.14647009989E+03  0.77000000000E+02 0.  0.
   -5000001    1    1    2    0    0  0.10649072967E+03 -0.57266536101E+02 -0.24838496449E+03  0.28678183737E+03  0.77000000000E+02 0.  0.
<mgrwt>
<rscale>  0 0.33191105E+03</rscale>
<asrwt>0</asrwt>
<pdfrwt beam="1">  1        2 0.54747392E-01 0.33191105E+03</pdfrwt>
<pdfrwt beam="2">  1       -2 0.11906752E-01 0.33191105E+03</pdfrwt>
<totfact> 0.45521078E+03</totfact>
</mgrwt>
</event>
<event>
 4    1  0.6086918E-004  0.2449309E+03  0.7818608E-02  0.1116551E+00
         -2   -1    0    0    0  501 -0.00000000000E+00  0.00000000000E+00  0.46301423748E+01  0.46301430770E+01  0.25500000000E-02 0. -1.
          2   -1    0    0  501    0  0.00000000000E+00 -0.00000000000E+00 -0.32391636901E+04  0.32391636901E+04  0.25500000000E-02 0.  1.
    5000001    1    1    2    0    0  0.79166272518E+02  0.51388742628E+02 -0.14493855287E+04  0.14544949337E+04  0.77000000000E+02 0.  0.
   -5000001    1    1    2    0    0 -0.79166272518E+02 -0.51388742628E+02 -0.17851480191E+04  0.17892988994E+04  0.77000000000E+02 0.  0.
<mgrwt>
<rscale>  0 0.24493093E+03</rscale>
<asrwt>0</asrwt>
<pdfrwt beam="1">  1        2 0.49833107E+00 0.24493093E+03</pdfrwt>
<pdfrwt beam="2">  1       -2 0.71233224E-03 0.24493093E+03</pdfrwt>
<totfact> 0.52102914E+03</totfact>
</mgrwt>
</event>
<event>
 4    1  0.6086918E-004  0.2212968E+03  0.7818608E-02  0.1132920E+00
         -2   -1    0    0    0  501 -0.00000000000E+00  0.00000000000E+00  0.50071380657E+02  0.50071380722E+02  0.25500000000E-02 0. -1.
          2   -1    0    0  501    0  0.00000000000E+00 -0.00000000000E+00 -0.24451222427E+03  0.24451222428E+03  0.25500000000E-02 0.  1.
    5000001    1    1    2    0    0  0.45526912608E+02 -0.64642539147E+02 -0.10776165977E+03  0.15424958008E+03  0.77000000000E+02 0.  0.
   -5000001    1    1    2    0    0 -0.45526912608E+02  0.64642539147E+02 -0.86679183841E+02  0.14033402492E+03  0.77000000000E+02 0.  0.
<mgrwt>
<rscale>  0 0.22129677E+03</rscale>
<asrwt>0</asrwt>
<pdfrwt beam="1">  1        2 0.37617265E-01 0.22129677E+03</pdfrwt>
<pdfrwt beam="2">  1       -2 0.77032895E-02 0.22129677E+03</pdfrwt>
<totfact> 0.13380192E+04</totfact>
</mgrwt>
</event>
<event>
 4    1  0.6086918E-004  0.2467962E+03  0.7818608E-02  0.1115346E+00
          2   -1    0    0  501    0  0.00000000000E+00  0.00000000000E+00  0.18390376515E+04  0.18390376515E+04  0.25500000000E-02 0.  1.
         -2   -1    0    0    0  501 -0.00000000000E+00 -0.00000000000E+00 -0.82799223016E+01  0.82799226942E+01  0.25500000000E-02 0. -1.
    5000001    1    1    2    0    0 -0.19309451648E+02 -0.12717823781E+02  0.21466340559E+03  0.22922472743E+03  0.77000000000E+02 0.  0.
   -5000001    1    1    2    0    0  0.19309451648E+02  0.12717823781E+02  0.16160943236E+04  0.16180928468E+04  0.77000000000E+02 0.  0.
<mgrwt>
<rscale>  0 0.24679618E+03</rscale>
<asrwt>0</asrwt>
<pdfrwt beam="1">  1        2 0.28292866E+00 0.24679618E+03</pdfrwt>
<pdfrwt beam="2">  1       -2 0.12738352E-02 0.24679618E+03</pdfrwt>
<totfact> 0.13487626E+04</totfact>
</mgrwt>
</event>
<event>
 4    1  0.6086918E-004  0.2111321E+03  0.7818608E-02  0.1140673E+00
          2   -1    0    0  501    0  0.00000000000E+00  0.00000000000E+00  0.23491094694E+03  0.23491094695E+03  0.25500000000E-02 0.  1.
         -2   -1    0    0    0  501 -0.00000000000E+00 -0.00000000000E+00 -0.47440062916E+02  0.47440062985E+02  0.25500000000E-02 0. -1.
    5000001    1    1    2    0    0  0.69855779616E+02 -0.12006855683E+01  0.69298022254E+02  0.12494993990E+03  0.77000000000E+02 0.  0.
   -5000001    1    1    2    0    0 -0.69855779616E+02  0.12006855683E+01  0.11817286177E+03  0.15740107004E+03  0.77000000000E+02 0.  0.
<mgrwt>
<rscale>  0 0.21113209E+03</rscale>
<asrwt>0</asrwt>
<pdfrwt beam="1">  1        2 0.36140145E-01 0.21113209E+03</pdfrwt>
<pdfrwt beam="2">  1       -2 0.72984714E-02 0.21113209E+03</pdfrwt>
<totfact> 0.15144456E+04</totfact>
</mgrwt>
</event>
<event>
 4    1  0.6086918E-004  0.1828281E+03  0.7818608E-02  0.1165094E+00
         -2   -1    0    0    0  501 -0.00000000000E+00  0.00000000000E+00  0.66695572393E+02  0.66695572442E+02  0.25500000000E-02 0. -1.
          2   -1    0    0  501    0  0.00000000000E+00 -0.00000000000E+00 -0.12529366828E+03  0.12529366831E+03  0.25500000000E-02 0.  1.
    5000001    1    1    2    0    0  0.22337890790E+02  0.42051289368E+02 -0.16006135325E+02  0.91937417141E+02  0.77000000000E+02 0.  0.
   -5000001    1    1    2    0    0 -0.22337890790E+02 -0.42051289368E+02 -0.42591960562E+02  0.10005182361E+03  0.77000000000E+02 0.  0.
<mgrwt>
<rscale>  0 0.18282815E+03</rscale>
<asrwt>0</asrwt>
<pdfrwt beam="1">  1        2 0.19275949E-01 0.18282815E+03</pdfrwt>
<pdfrwt beam="2">  1       -2 0.10260857E-01 0.18282815E+03</pdfrwt>
<totfact> 0.17636367E+04</totfact>
</mgrwt>
</event>
<event>
 4    1  0.6086918E-004  0.4019474E+03  0.7818608E-02  0.1043107E+00
         -2   -1    0    0    0  501 -0.00000000000E+00  0.00000000000E+00  0.10239697928E+04  0.10239697928E+04  0.25500000000E-02 0. -1.
          2   -1    0    0  501    0  0.00000000000E+00 -0.00000000000E+00 -0.39444937261E+02  0.39444937344E+02  0.25500000000E-02 0.  1.
    5000001    1    1    2    0    0  0.16956173077E+03  0.71828992881E+02  0.55435590978E+03  0.58919441568E+03  0.77000000000E+02 0.  0.
   -5000001    1    1    2    0    0 -0.16956173077E+03 -0.71828992881E+02  0.43016894576E+03  0.47422031447E+03  0.77000000000E+02 0.  0.
<mgrwt>
<rscale>  0 0.40194738E+03</rscale>
<asrwt>0</asrwt>
<pdfrwt beam="1">  1        2 0.60684528E-02 0.40194738E+03</pdfrwt>
<pdfrwt beam="2">  1       -2 0.15753379E+00 0.40194738E+03</pdfrwt>
<totfact> 0.34048166E+02</totfact>
</mgrwt>
</event>
<event>
 4    1  0.6086918E-004  0.1928369E+03  0.7818608E-02  0.1155927E+00
         -2   -1    0    0    0  501 -0.00000000000E+00  0.00000000000E+00  0.74547566252E+03  0.74547566252E+03  0.25500000000E-02 0. -1.
          2   -1    0    0  501    0  0.00000000000E+00 -0.00000000000E+00 -0.12470583945E+02  0.12470584206E+02  0.25500000000E-02 0.  1.
    5000001    1    1    2    0    0  0.21652206094E+02 -0.50946829556E+02  0.29807117680E+03  0.31279358035E+03  0.77000000000E+02 0.  0.
   -5000001    1    1    2    0    0 -0.21652206094E+02  0.50946829556E+02  0.43493390177E+03  0.44515266637E+03  0.77000000000E+02 0.  0.
<mgrwt>
<rscale>  0 0.19283689E+03</rscale>
<asrwt>0</asrwt>
<pdfrwt beam="1">  1        2 0.19185510E-02 0.19283689E+03</pdfrwt>
<pdfrwt beam="2">  1       -2 0.11468859E+00 0.19283689E+03</pdfrwt>
<totfact> 0.35119736E+03</totfact>
</mgrwt>
</event>
<event>
 4    1  0.6086918E-004  0.2246328E+03  0.7818608E-02  0.1130475E+00
          2   -1    0    0  501    0  0.00000000000E+00  0.00000000000E+00  0.17387391227E+04  0.17387391227E+04  0.25500000000E-02 0.  1.
         -2   -1    0    0    0  501 -0.00000000000E+00 -0.00000000000E+00 -0.72552434884E+01  0.72552439365E+01  0.25500000000E-02 0. -1.
    5000001    1    1    2    0    0 -0.73071666042E+02 -0.29733260869E+02  0.69859526122E+03  0.70723961582E+03  0.77000000000E+02 0.  0.
   -5000001    1    1    2    0    0  0.73071666042E+02  0.29733260869E+02  0.10328886180E+04  0.10387547508E+04  0.77000000000E+02 0.  0.
<mgrwt>
<rscale>  0 0.22463282E+03</rscale>
<asrwt>0</asrwt>
<pdfrwt beam="1">  1        2 0.26749888E+00 0.22463282E+03</pdfrwt>
<pdfrwt beam="2">  1       -2 0.11161890E-02 0.22463282E+03</pdfrwt>
<totfact> 0.18380991E+04</totfact>
</mgrwt>
</event>
<event>
 4    1  0.6086918E-004  0.2809520E+03  0.7818608E-02  0.1095170E+00
          2   -1    0    0  501    0  0.00000000000E+00  0.00000000000E+00  0.59777485284E+03  0.59777485285E+03  0.25500000000E-02 0.  1.
         -2   -1    0    0    0  501 -0.00000000000E+00 -0.00000000000E+00 -0.33011599823E+02  0.33011599922E+02  0.25500000000E-02 0. -1.
    5000001    1    1    2    0    0 -0.11634303632E+03  0.83003568487E+01  0.31412575627E+03  0.34381475939E+03  0.77000000000E+02 0.  0.
   -5000001    1    1    2    0    0  0.11634303632E+03 -0.83003568487E+01  0.25063749675E+03  0.28697169338E+03  0.77000000000E+02 0.  0.
<mgrwt>
<rscale>  0 0.28095198E+03</rscale>
<asrwt>0</asrwt>
<pdfrwt beam="1">  1        2 0.91965360E-01 0.28095198E+03</pdfrwt>
<pdfrwt beam="2">  1       -2 0.50787078E-02 0.28095198E+03</pdfrwt>
<totfact> 0.96531248E+03</totfact>
</mgrwt>
</event>
<event>
 4    1  0.6086918E-004  0.3628700E+03  0.7818608E-02  0.1057453E+00
          2   -1    0    0  501    0  0.00000000000E+00  0.00000000000E+00  0.20201087288E+04  0.20201087288E+04  0.25500000000E-02 0.  1.
         -2   -1    0    0    0  501 -0.00000000000E+00 -0.00000000000E+00 -0.16295487979E+02  0.16295488179E+02  0.25500000000E-02 0. -1.
    5000001    1    1    2    0    0  0.12782645936E+03  0.75993276940E+02  0.13937419776E+04  0.14037664628E+04  0.77000000000E+02 0.  0.
   -5000001    1    1    2    0    0 -0.12782645936E+03 -0.75993276940E+02  0.61007126318E+03  0.63263775418E+03  0.77000000000E+02 0.  0.
<mgrwt>
<rscale>  0 0.36286999E+03</rscale>
<asrwt>0</asrwt>
<pdfrwt beam="1">  1        2 0.31078565E+00 0.36286999E+03</pdfrwt>
<pdfrwt beam="2">  1       -2 0.25070006E-02 0.36286999E+03</pdfrwt>
<totfact> 0.40042820E+03</totfact>
</mgrwt>
</event>
<event>
 4    1  0.6086918E-004  0.4706292E+03  0.7818608E-02  0.1021743E+00
          2   -1    0    0  501    0  0.00000000000E+00  0.00000000000E+00  0.16745363292E+04  0.16745363292E+04  0.25500000000E-02 0.  1.
         -2   -1    0    0    0  501 -0.00000000000E+00 -0.00000000000E+00 -0.33067633501E+02  0.33067633600E+02  0.25500000000E-02 0. -1.
    5000001    1    1    2    0    0 -0.19775630260E+03 -0.18975006711E+02  0.45832941562E+03  0.50543294246E+03  0.77000000000E+02 0.  0.
   -5000001    1    1    2    0    0  0.19775630260E+03  0.18975006711E+02  0.11831392801E+04  0.12021710203E+04  0.77000000000E+02 0.  0.
<mgrwt>
<rscale>  0 0.47062917E+03</rscale>
<asrwt>0</asrwt>
<pdfrwt beam="1">  1        2 0.25762103E+00 0.47062917E+03</pdfrwt>
<pdfrwt beam="2">  1       -2 0.50873271E-02 0.47062917E+03</pdfrwt>
<totfact> 0.20867305E+03</totfact>
</mgrwt>
</event>
<event>
 4    1  0.6086918E-004  0.3032116E+03  0.7818608E-02  0.1083646E+00
          2   -1    0    0  501    0  0.00000000000E+00  0.00000000000E+00  0.71262864175E+02  0.71262864220E+02  0.25500000000E-02 0.  1.
         -2   -1    0    0    0  501 -0.00000000000E+00 -0.00000000000E+00 -0.32252877468E+03  0.32252877469E+03  0.25500000000E-02 0. -1.
    5000001    1    1    2    0    0  0.43131053897E+02  0.12916130336E+02 -0.28484438896E+03  0.29848356765E+03  0.77000000000E+02 0.  0.
   -5000001    1    1    2    0    0 -0.43131053897E+02 -0.12916130336E+02  0.33578478453E+02  0.95308071265E+02  0.77000000000E+02 0.  0.
<mgrwt>
<rscale>  0 0.30321164E+03</rscale>
<asrwt>0</asrwt>
<pdfrwt beam="1">  1        2 0.10963518E-01 0.30321164E+03</pdfrwt>
<pdfrwt beam="2">  1       -2 0.49619811E-01 0.30321164E+03</pdfrwt>
<totfact> 0.22299729E+03</totfact>
</mgrwt>
</event>
<event>
 4    1  0.6086918E-004  0.1746944E+03  0.7818608E-02  0.1173039E+00
         -2   -1    0    0    0  501 -0.00000000000E+00  0.00000000000E+00  0.25619348587E+01  0.25619361277E+01  0.25500000000E-02 0. -1.
          2   -1    0    0  501    0  0.00000000000E+00 -0.00000000000E+00 -0.29780345757E+04  0.29780345757E+04  0.25500000000E-02 0.  1.
    5000001    1    1    2    0    0 -0.26074055403E+02  0.30421584571E+02 -0.13212608490E+04  0.13241089684E+04  0.77000000000E+02 0.  0.
   -5000001    1    1    2    0    0  0.26074055403E+02 -0.30421584571E+02 -0.16542117918E+04  0.16564875434E+04  0.77000000000E+02 0.  0.
<mgrwt>
<rscale>  0 0.17469439E+03</rscale>
<asrwt>0</asrwt>
<pdfrwt beam="1">  1        2 0.45815640E+00 0.17469439E+03</pdfrwt>
<pdfrwt beam="2">  1       -2 0.39414630E-03 0.17469439E+03</pdfrwt>
<totfact> 0.17426686E+04</totfact>
</mgrwt>
</event>
<event>
 4    1  0.6086918E-004  0.3851614E+03  0.7818608E-02  0.1049042E+00
          2   -1    0    0  501    0  0.00000000000E+00  0.00000000000E+00  0.18882556124E+04  0.18882556124E+04  0.25500000000E-02 0.  1.
         -2   -1    0    0    0  501 -0.00000000000E+00 -0.00000000000E+00 -0.19641053408E+02  0.19641053573E+02  0.25500000000E-02 0. -1.
    5000001    1    1    2    0    0  0.14498233591E+03  0.98822978869E+02  0.10299073205E+04  0.10475800436E+04  0.77000000000E+02 0.  0.
   -5000001    1    1    2    0    0 -0.14498233591E+03 -0.98822978869E+02  0.83870723856E+03  0.86031662247E+03  0.77000000000E+02 0.  0.
<mgrwt>
<rscale>  0 0.38516142E+03</rscale>
<asrwt>0</asrwt>
<pdfrwt beam="1">  1        2 0.29050087E+00 0.38516142E+03</pdfrwt>
<pdfrwt beam="2">  1       -2 0.30217005E-02 0.38516142E+03</pdfrwt>
<totfact> 0.35555141E+03</totfact>
</mgrwt>
</event>
<event>
 4    1  0.6086918E-004  0.1914264E+03  0.7818608E-02  0.1157181E+00
         -2   -1    0    0    0  501 -0.00000000000E+00  0.00000000000E+00  0.10873381486E+03  0.10873381489E+03  0.25500000000E-02 0. -1.
          2   -1    0    0  501    0  0.00000000000E+00 -0.00000000000E+00 -0.84251743795E+02  0.84251743833E+02  0.25500000000E-02 0.  1.
    5000001    1    1    2    0    0  0.39264370310E+02  0.98120354721E+01  0.52491748222E+02  0.10159896873E+03  0.77000000000E+02 0.  0.
   -5000001    1    1    2    0    0 -0.39264370310E+02 -0.98120354721E+01 -0.28009677156E+02  0.91386589992E+02  0.77000000000E+02 0.  0.
<mgrwt>
<rscale>  0 0.19142637E+03</rscale>
<asrwt>0</asrwt>
<pdfrwt beam="1">  1        2 0.12961807E-01 0.19142637E+03</pdfrwt>
<pdfrwt beam="2">  1       -2 0.16728279E-01 0.19142637E+03</pdfrwt>
<totfact> 0.12755628E+04</totfact>
</mgrwt>
</event>
<event>
 4    1  0.6086918E-004  0.5671350E+03  0.7818608E-02  0.9976039E-01
          2   -1    0    0  501    0  0.00000000000E+00  0.00000000000E+00  0.14125908826E+03  0.14125908829E+03  0.25500000000E-02 0.  1.
         -2   -1    0    0    0  501 -0.00000000000E+00 -0.00000000000E+00 -0.56924141401E+03  0.56924141402E+03  0.25500000000E-02 0. -1.
    5000001    1    1    2    0    0  0.98404641066E+02 -0.20202167956E+03 -0.19969401194E+02  0.23837787099E+03  0.77000000000E+02 0.  0.
   -5000001    1    1    2    0    0 -0.98404641066E+02  0.20202167956E+03 -0.40801292455E+03  0.47212263131E+03  0.77000000000E+02 0.  0.
<mgrwt>
<rscale>  0 0.56713499E+03</rscale>
<asrwt>0</asrwt>
<pdfrwt beam="1">  1        2 0.21732168E-01 0.56713499E+03</pdfrwt>
<pdfrwt beam="2">  1       -2 0.87575601E-01 0.56713499E+03</pdfrwt>
<totfact> 0.29341169E+02</totfact>
</mgrwt>
</event>
<event>
 4    1  0.6086918E-004  0.1894047E+03  0.7818608E-02  0.1158999E+00
          2   -1    0    0  501    0  0.00000000000E+00  0.00000000000E+00  0.66960756586E+03  0.66960756586E+03  0.25500000000E-02 0.  1.
         -2   -1    0    0    0  501 -0.00000000000E+00 -0.00000000000E+00 -0.13393720444E+02  0.13393720687E+02  0.25500000000E-02 0. -1.
    5000001    1    1    2    0    0  0.12118479984E+02  0.45525511160E+02  0.22483887485E+03  0.24228278801E+03  0.77000000000E+02 0.  0.
   -5000001    1    1    2    0    0 -0.12118479984E+02 -0.45525511160E+02  0.43137497057E+03  0.44071849854E+03  0.77000000000E+02 0.  0.
<mgrwt>
<rscale>  0 0.18940472E+03</rscale>
<asrwt>0</asrwt>
<pdfrwt beam="1">  1        2 0.10301655E+00 0.18940472E+03</pdfrwt>
<pdfrwt beam="2">  1       -2 0.20605724E-02 0.18940472E+03</pdfrwt>
<totfact> 0.31668337E+04</totfact>
</mgrwt>
</event>
<event>
 4    1  0.6086918E-004  0.1815463E+03  0.7818608E-02  0.1166315E+00
         -2   -1    0    0    0  501 -0.00000000000E+00  0.00000000000E+00  0.13056669849E+02  0.13056670098E+02  0.25500000000E-02 0. -1.
          2   -1    0    0  501    0  0.00000000000E+00 -0.00000000000E+00 -0.63107715318E+03  0.63107715319E+03  0.25500000000E-02 0.  1.
    5000001    1    1    2    0    0  0.39285649842E+02 -0.64646828312E+01 -0.21343601151E+03  0.23036728374E+03  0.77000000000E+02 0.  0.
   -5000001    1    1    2    0    0 -0.39285649842E+02  0.64646828312E+01 -0.40458447182E+03  0.41376653954E+03  0.77000000000E+02 0.  0.
<mgrwt>
<rscale>  0 0.18154631E+03</rscale>
<asrwt>0</asrwt>
<pdfrwt beam="1">  1        2 0.97088769E-01 0.18154631E+03</pdfrwt>
<pdfrwt beam="2">  1       -2 0.20087190E-02 0.18154631E+03</pdfrwt>
<totfact> 0.35116099E+04</totfact>
</mgrwt>
</event>
<event>
 4    1  0.6086918E-004  0.2997873E+03  0.7818608E-02  0.1085347E+00
          2   -1    0    0  501    0  0.00000000000E+00  0.00000000000E+00  0.75951481564E+03  0.75951481564E+03  0.25500000000E-02 0.  1.
         -2   -1    0    0    0  501 -0.00000000000E+00 -0.00000000000E+00 -0.29582192413E+02  0.29582192522E+02  0.25500000000E-02 0. -1.
    5000001    1    1    2    0    0 -0.43415847549E+02  0.12026835984E+03  0.40121980987E+03  0.42808381192E+03  0.77000000000E+02 0.  0.
   -5000001    1    1    2    0    0  0.43415847549E+02 -0.12026835984E+03  0.32871281336E+03  0.36101319624E+03  0.77000000000E+02 0.  0.
<mgrwt>
<rscale>  0 0.29978735E+03</rscale>
<asrwt>0</asrwt>
<pdfrwt beam="1">  1        2 0.11684843E+00 0.29978735E+03</pdfrwt>
<pdfrwt beam="2">  1       -2 0.45511067E-02 0.29978735E+03</pdfrwt>
<totfact> 0.85653408E+03</totfact>
</mgrwt>
</event>
<event>
 4    1  0.6086918E-004  0.2072031E+03  0.7818608E-02  0.1143800E+00
         -2   -1    0    0    0  501 -0.00000000000E+00  0.00000000000E+00  0.15417806144E+02  0.15417806355E+02  0.25500000000E-02 0. -1.
          2   -1    0    0  501    0  0.00000000000E+00 -0.00000000000E+00 -0.69616128419E+03  0.69616128419E+03  0.25500000000E-02 0.  1.
    5000001    1    1    2    0    0  0.51757252688E+02 -0.38961758216E+02 -0.25573059840E+03  0.27481624909E+03  0.77000000000E+02 0.  0.
   -5000001    1    1    2    0    0 -0.51757252688E+02  0.38961758216E+02 -0.42501287965E+03  0.43676284145E+03  0.77000000000E+02 0.  0.
<mgrwt>
<rscale>  0 0.20720309E+03</rscale>
<asrwt>0</asrwt>
<pdfrwt beam="1">  1        2 0.10710171E+00 0.20720309E+03</pdfrwt>
<pdfrwt beam="2">  1       -2 0.23719707E-02 0.20720309E+03</pdfrwt>
<totfact> 0.24756280E+04</totfact>
</mgrwt>
</event>
<event>
 4    1  0.6086918E-004  0.2301455E+03  0.7818608E-02  0.1126537E+00
          2   -1    0    0  501    0  0.00000000000E+00  0.00000000000E+00  0.17261794191E+04  0.17261794191E+04  0.25500000000E-02 0.  1.
         -2   -1    0    0    0  501 -0.00000000000E+00 -0.00000000000E+00 -0.76711236355E+01  0.76711240594E+01  0.25500000000E-02 0. -1.
    5000001    1    1    2    0    0 -0.76261985455E+02 -0.26157027312E+02  0.10740186337E+04  0.10797893804E+04  0.77000000000E+02 0.  0.
   -5000001    1    1    2    0    0  0.76261985455E+02  0.26157027312E+02  0.64448966180E+03  0.65406116279E+03  0.77000000000E+02 0.  0.
<mgrwt>
<rscale>  0 0.23014549E+03</rscale>
<asrwt>0</asrwt>
<pdfrwt beam="1">  1        2 0.26556646E+00 0.23014549E+03</pdfrwt>
<pdfrwt beam="2">  1       -2 0.11801711E-02 0.23014549E+03</pdfrwt>
<totfact> 0.17226950E+04</totfact>
</mgrwt>
</event>
<event>
 4    1  0.6086918E-004  0.2655630E+03  0.7818608E-02  0.1103846E+00
          2   -1    0    0  501    0  0.00000000000E+00  0.00000000000E+00  0.15644476325E+04  0.15644476325E+04  0.25500000000E-02 0.  1.
         -2   -1    0    0    0  501 -0.00000000000E+00 -0.00000000000E+00 -0.11269742611E+02  0.11269742900E+02  0.25500000000E-02 0. -1.
    5000001    1    1    2    0    0 -0.19067114848E+02  0.78029736474E+02  0.34667730713E+03  0.36409662168E+03  0.77000000000E+02 0.  0.
   -5000001    1    1    2    0    0  0.19067114848E+02 -0.78029736474E+02  0.12065005828E+04  0.12116207537E+04  0.77000000000E+02 0.  0.
<mgrwt>
<rscale>  0 0.26556297E+03</rscale>
<asrwt>0</asrwt>
<pdfrwt beam="1">  1        2 0.24068432E+00 0.26556297E+03</pdfrwt>
<pdfrwt beam="2">  1       -2 0.17338060E-02 0.26556297E+03</pdfrwt>
<totfact> 0.12011163E+04</totfact>
</mgrwt>
</event>
<event>
 4    1  0.6086918E-004  0.1639042E+03  0.7818608E-02  0.1184358E+00
         -2   -1    0    0    0  501 -0.00000000000E+00  0.00000000000E+00  0.10982106875E+03  0.10982106878E+03  0.25500000000E-02 0. -1.
          2   -1    0    0  501    0  0.00000000000E+00 -0.00000000000E+00 -0.61155325788E+02  0.61155325841E+02  0.25500000000E-02 0.  1.
    5000001    1    1    2    0    0  0.11866594464E+02  0.62562604724E+01  0.50037255257E+02  0.92804546079E+02  0.77000000000E+02 0.  0.
   -5000001    1    1    2    0    0 -0.11866594464E+02 -0.62562604724E+01 -0.13715122903E+01  0.78171848547E+02  0.77000000000E+02 0.  0.
<mgrwt>
<rscale>  0 0.16390416E+03</rscale>
<asrwt>0</asrwt>
<pdfrwt beam="1">  1        2 0.94085117E-02 0.16390416E+03</pdfrwt>
<pdfrwt beam="2">  1       -2 0.16895549E-01 0.16390416E+03</pdfrwt>
<totfact> 0.18313041E+04</totfact>
</mgrwt>
</event>
<event>
 4    1  0.6086918E-004  0.1936746E+03  0.7818608E-02  0.1155188E+00
          2   -1    0    0  501    0  0.00000000000E+00  0.00000000000E+00  0.10186727986E+03  0.10186727989E+03  0.25500000000E-02 0.  1.
         -2   -1    0    0    0  501 -0.00000000000E+00 -0.00000000000E+00 -0.92055643446E+02  0.92055643481E+02  0.25500000000E-02 0. -1.
    5000001    1    1    2    0    0 -0.54137493435E+02  0.13702294006E+02  0.23090522317E+02  0.97881526742E+02  0.77000000000E+02 0.  0.
   -5000001    1    1    2    0    0  0.54137493435E+02 -0.13702294006E+02 -0.13278885902E+02  0.96041396633E+02  0.77000000000E+02 0.  0.
<mgrwt>
<rscale>  0 0.19367455E+03</rscale>
<asrwt>0</asrwt>
<pdfrwt beam="1">  1        2 0.15671889E-01 0.19367455E+03</pdfrwt>
<pdfrwt beam="2">  1       -2 0.14162407E-01 0.19367455E+03</pdfrwt>
<totfact> 0.13411853E+04</totfact>
</mgrwt>
</event>
<event>
 4    1  0.6086918E-004  0.2000411E+03  0.7818608E-02  0.1149704E+00
         -2   -1    0    0    0  501 -0.00000000000E+00  0.00000000000E+00  0.67624754935E+01  0.67624759743E+01  0.25500000000E-02 0. -1.
          2   -1    0    0  501    0  0.00000000000E+00 -0.00000000000E+00 -0.14793564361E+04  0.14793564361E+04  0.25500000000E-02 0.  1.
    5000001    1    1    2    0    0  0.37810409583E+01  0.63060234473E+02 -0.80447564902E+03  0.81061764063E+03  0.77000000000E+02 0.  0.
   -5000001    1    1    2    0    0 -0.37810409583E+01 -0.63060234473E+02 -0.66811831162E+03  0.67550127148E+03  0.77000000000E+02 0.  0.
<mgrwt>
<rscale>  0 0.20004112E+03</rscale>
<asrwt>0</asrwt>
<pdfrwt beam="1">  1        2 0.22759304E+00 0.20004112E+03</pdfrwt>
<pdfrwt beam="2">  1       -2 0.10403821E-02 0.20004112E+03</pdfrwt>
<totfact> 0.27699227E+04</totfact>
</mgrwt>
</event>
<event>
 4    1  0.6086918E-004  0.1713281E+03  0.7818608E-02  0.1176470E+00
         -2   -1    0    0    0  501 -0.00000000000E+00  0.00000000000E+00  0.97643651132E+01  0.97643654462E+01  0.25500000000E-02 0. -1.
          2   -1    0    0  501    0  0.00000000000E+00 -0.00000000000E+00 -0.75154154548E+03  0.75154154549E+03  0.25500000000E-02 0.  1.
    5000001    1    1    2    0    0 -0.28413146750E+02  0.30879758969E+01 -0.47904914188E+03  0.48603901370E+03  0.77000000000E+02 0.  0.
   -5000001    1    1    2    0    0  0.28413146750E+02 -0.30879758969E+01 -0.26272803849E+03  0.27526689723E+03  0.77000000000E+02 0.  0.
<mgrwt>
<rscale>  0 0.17132806E+03</rscale>
<asrwt>0</asrwt>
<pdfrwt beam="1">  1        2 0.11562173E+00 0.17132806E+03</pdfrwt>
<pdfrwt beam="2">  1       -2 0.15022106E-02 0.17132806E+03</pdfrwt>
<totfact> 0.43285955E+04</totfact>
</mgrwt>
</event>
<event>
 4    1  0.6086918E-004  0.2192758E+03  0.7818608E-02  0.1134424E+00
         -2   -1    0    0    0  501 -0.00000000000E+00  0.00000000000E+00  0.20551359014E+02  0.20551359173E+02  0.25500000000E-02 0. -1.
          2   -1    0    0  501    0  0.00000000000E+00 -0.00000000000E+00 -0.58489923151E+03  0.58489923152E+03  0.25500000000E-02 0.  1.
    5000001    1    1    2    0    0  0.52210054288E+02 -0.12739822640E+02 -0.12590039592E+03  0.15706082434E+03  0.77000000000E+02 0.  0.
   -5000001    1    1    2    0    0 -0.52210054288E+02  0.12739822640E+02 -0.43844747658E+03  0.44838976635E+03  0.77000000000E+02 0.  0.
<mgrwt>
<rscale>  0 0.21927585E+03</rscale>
<asrwt>0</asrwt>
<pdfrwt beam="1">  1        2 0.89984485E-01 0.21927585E+03</pdfrwt>
<pdfrwt beam="2">  1       -2 0.31617480E-02 0.21927585E+03</pdfrwt>
<totfact> 0.19933818E+04</totfact>
</mgrwt>
</event>
<event>
 4    1  0.6086918E-004  0.3554836E+03  0.7818608E-02  0.1060387E+00
         -2   -1    0    0    0  501 -0.00000000000E+00  0.00000000000E+00  0.13512667093E+03  0.13512667095E+03  0.25500000000E-02 0.  1.
          2   -1    0    0  501    0  0.00000000000E+00 -0.00000000000E+00 -0.23379659513E+03  0.23379659515E+03  0.25500000000E-02 0. -1.
    5000001    1    1    2    0    0 -0.14203266985E+03 -0.69946378178E+02 -0.74700374359E+02  0.19124570859E+03  0.77000000000E+02 0.  0.
   -5000001    1    1    2    0    0  0.14203266985E+03  0.69946378178E+02 -0.23969549845E+02  0.17767755751E+03  0.77000000000E+02 0.  0.
<mgrwt>
<rscale>  0 0.35548365E+03</rscale>
<asrwt>0</asrwt>
<pdfrwt beam="1">  1        2 0.35968707E-01 0.35548365E+03</pdfrwt>
<pdfrwt beam="2">  1       -2 0.20788719E-01 0.35548365E+03</pdfrwt>
<totfact> 0.28337659E+03</totfact>
</mgrwt>
</event>
<event>
 4    1  0.6086918E-004  0.3498588E+03  0.7818608E-02  0.1062673E+00
         -2   -1    0    0    0  501 -0.00000000000E+00  0.00000000000E+00  0.54279090266E+02  0.54279090326E+02  0.25500000000E-02 0. -1.
          2   -1    0    0  501    0  0.00000000000E+00 -0.00000000000E+00 -0.56375845928E+03  0.56375845929E+03  0.25500000000E-02 0.  1.
    5000001    1    1    2    0    0  0.42288709478E+02  0.12762198474E+03 -0.39820565095E+03  0.42728497094E+03  0.77000000000E+02 0.  0.
   -5000001    1    1    2    0    0 -0.42288709478E+02 -0.12762198474E+03 -0.11127371806E+03  0.19075257867E+03  0.77000000000E+02 0.  0.
<mgrwt>
<rscale>  0 0.34985881E+03</rscale>
<asrwt>0</asrwt>
<pdfrwt beam="1">  1        2 0.86732066E-01 0.34985881E+03</pdfrwt>
<pdfrwt beam="2">  1       -2 0.83506297E-02 0.34985881E+03</pdfrwt>
<totfact> 0.48137914E+03</totfact>
</mgrwt>
</event>
<event>
 4    1  0.6086918E-004  0.2981904E+03  0.7818608E-02  0.1086149E+00
          2   -1    0    0  501    0  0.00000000000E+00  0.00000000000E+00  0.71302471291E+03  0.71302471292E+03  0.25500000000E-02 0.  1.
         -2   -1    0    0    0  501 -0.00000000000E+00 -0.00000000000E+00 -0.31176177863E+02  0.31176177967E+02  0.25500000000E-02 0. -1.
    5000001    1    1    2    0    0  0.11649449030E+03 -0.41207846598E+02  0.42107284122E+03  0.44553382644E+03  0.77000000000E+02 0.  0.
   -5000001    1    1    2    0    0 -0.11649449030E+03  0.41207846598E+02  0.26077569383E+03  0.29866706444E+03  0.77000000000E+02 0.  0.
<mgrwt>
<rscale>  0 0.29819044E+03</rscale>
<asrwt>0</asrwt>
<pdfrwt beam="1">  1        2 0.10969611E+00 0.29819044E+03</pdfrwt>
<pdfrwt beam="2">  1       -2 0.47963351E-02 0.29819044E+03</pdfrwt>
<totfact> 0.85515293E+03</totfact>
</mgrwt>
</event>
<event>
 4    1  0.6086918E-004  0.2241932E+03  0.7818608E-02  0.1130795E+00
          2   -1    0    0  501    0  0.00000000000E+00  0.00000000000E+00  0.24688125326E+02  0.24688125458E+02  0.25500000000E-02 0.  1.
         -2   -1    0    0    0  501 -0.00000000000E+00 -0.00000000000E+00 -0.50897543994E+03  0.50897543995E+03  0.25500000000E-02 0. -1.
    5000001    1    1    2    0    0 -0.59576872260E+02 -0.37526742940E+02 -0.14460673294E+03  0.17831928486E+03  0.77000000000E+02 0.  0.
   -5000001    1    1    2    0    0  0.59576872260E+02  0.37526742940E+02 -0.33968058168E+03  0.35534428054E+03  0.77000000000E+02 0.  0.
<mgrwt>
<rscale>  0 0.22419322E+03</rscale>
<asrwt>0</asrwt>
<pdfrwt beam="1">  1        2 0.37981735E-02 0.22419322E+03</pdfrwt>
<pdfrwt beam="2">  1       -2 0.78303906E-01 0.22419322E+03</pdfrwt>
<totfact> 0.33486855E+03</totfact>
</mgrwt>
</event>
<event>
 4    1  0.6086918E-004  0.2491239E+03  0.7818608E-02  0.1113860E+00
         -2   -1    0    0    0  501 -0.00000000000E+00  0.00000000000E+00  0.91867447274E+01  0.91867450813E+01  0.25500000000E-02 0. -1.
          2   -1    0    0  501    0  0.00000000000E+00 -0.00000000000E+00 -0.16889199161E+04  0.16889199161E+04  0.25500000000E-02 0.  1.
    5000001    1    1    2    0    0  0.21002161587E+02 -0.84153305590E+02 -0.53020728214E+03  0.54274453628E+03  0.77000000000E+02 0.  0.
   -5000001    1    1    2    0    0 -0.21002161587E+02  0.84153305590E+02 -0.11495258893E+04  0.11553621249E+04  0.77000000000E+02 0.  0.
<mgrwt>
<rscale>  0 0.24912388E+03</rscale>
<asrwt>0</asrwt>
<pdfrwt beam="1">  1        2 0.25983359E+00 0.24912388E+03</pdfrwt>
<pdfrwt beam="2">  1       -2 0.14133467E-02 0.24912388E+03</pdfrwt>
<totfact> 0.13897072E+04</totfact>
</mgrwt>
</event>
<event>
 4    1  0.6086918E-004  0.3450846E+03  0.7818608E-02  0.1064651E+00
         -2   -1    0    0    0  501 -0.00000000000E+00  0.00000000000E+00  0.21213351124E+02  0.21213351277E+02  0.25500000000E-02 0. -1.
          2   -1    0    0  501    0  0.00000000000E+00 -0.00000000000E+00 -0.14034013020E+04  0.14034013020E+04  0.25500000000E-02 0.  1.
    5000001    1    1    2    0    0 -0.10264643018E+03  0.11069316120E+03 -0.55715739378E+03  0.58235953414E+03  0.77000000000E+02 0.  0.
   -5000001    1    1    2    0    0  0.10264643018E+03 -0.11069316120E+03 -0.82503055708E+03  0.84225511912E+03  0.77000000000E+02 0.  0.
<mgrwt>
<rscale>  0 0.34508460E+03</rscale>
<asrwt>0</asrwt>
<pdfrwt beam="1">  1        2 0.21590782E+00 0.34508460E+03</pdfrwt>
<pdfrwt beam="2">  1       -2 0.32635936E-02 0.34508460E+03</pdfrwt>
<totfact> 0.57638933E+03</totfact>
</mgrwt>
</event>
<event>
 4    1  0.6086918E-004  0.2487009E+03  0.7818608E-02  0.1114129E+00
          2   -1    0    0  501    0  0.00000000000E+00  0.00000000000E+00  0.18445176823E+02  0.18445176999E+02  0.25500000000E-02 0.  1.
         -2   -1    0    0    0  501 -0.00000000000E+00 -0.00000000000E+00 -0.83832366262E+03  0.83832366262E+03  0.25500000000E-02 0. -1.
    5000001    1    1    2    0    0  0.77474547310E+02 -0.56836667165E+02 -0.35013974633E+03  0.37115974213E+03  0.77000000000E+02 0.  0.
   -5000001    1    1    2    0    0 -0.77474547310E+02  0.56836667165E+02 -0.46973873946E+03  0.48560909749E+03  0.77000000000E+02 0.  0.
<mgrwt>
<rscale>  0 0.24870085E+03</rscale>
<asrwt>0</asrwt>
<pdfrwt beam="1">  1        2 0.28377202E-02 0.24870085E+03</pdfrwt>
<pdfrwt beam="2">  1       -2 0.12897284E+00 0.24870085E+03</pdfrwt>
<totfact> 0.15650946E+03</totfact>
</mgrwt>
</event>
<event>
 4    1  0.6086918E-004  0.1763087E+03  0.7818608E-02  0.1171424E+00
         -2   -1    0    0    0  501 -0.00000000000E+00  0.00000000000E+00  0.62663255833E+01  0.62663261021E+01  0.25500000000E-02 0. -1.
          2   -1    0    0  501    0  0.00000000000E+00 -0.00000000000E+00 -0.12401503469E+04  0.12401503469E+04  0.25500000000E-02 0.  1.
    5000001    1    1    2    0    0  0.23939590931E+02  0.18156072982E+02 -0.40025946471E+03  0.40870452174E+03  0.77000000000E+02 0.  0.
   -5000001    1    1    2    0    0 -0.23939590931E+02 -0.18156072982E+02 -0.83362455660E+03  0.83771215126E+03  0.77000000000E+02 0.  0.
<mgrwt>
<rscale>  0 0.17630866E+03</rscale>
<asrwt>0</asrwt>
<pdfrwt beam="1">  1        2 0.19079217E+00 0.17630866E+03</pdfrwt>
<pdfrwt beam="2">  1       -2 0.96405112E-03 0.17630866E+03</pdfrwt>
<totfact> 0.41288547E+04</totfact>
</mgrwt>
</event>
<event>
 4    1  0.6086918E-004  0.2948162E+03  0.7818608E-02  0.1087861E+00
         -2   -1    0    0    0  501 -0.00000000000E+00  0.00000000000E+00  0.11476665700E+03  0.11476665703E+03  0.25500000000E-02 0. -1.
          2   -1    0    0  501    0  0.00000000000E+00 -0.00000000000E+00 -0.18933323668E+03  0.18933323669E+03  0.25500000000E-02 0.  1.
    5000001    1    1    2    0    0 -0.37309757297E+02 -0.75172850654E+02  0.59243263134E+02  0.12838122796E+03  0.77000000000E+02 0.  0.
   -5000001    1    1    2    0    0  0.37309757297E+02  0.75172850654E+02 -0.13380984281E+03  0.17571866576E+03  0.77000000000E+02 0.  0.
<mgrwt>
<rscale>  0 0.29481616E+03</rscale>
<asrwt>0</asrwt>
<pdfrwt beam="1">  1        2 0.29128190E-01 0.29481616E+03</pdfrwt>
<pdfrwt beam="2">  1       -2 0.17656409E-01 0.29481616E+03</pdfrwt>
<totfact> 0.46996164E+03</totfact>
</mgrwt>
</event>
<event>
 4    1  0.6086918E-004  0.2476727E+03  0.7818608E-02  0.1114785E+00
          2   -1    0    0  501    0  0.00000000000E+00  0.00000000000E+00  0.14799667875E+04  0.14799667875E+04  0.25500000000E-02 0.  1.
         -2   -1    0    0    0  501 -0.00000000000E+00 -0.00000000000E+00 -0.10362015520E+02  0.10362015834E+02  0.25500000000E-02 0. -1.
    5000001    1    1    2    0    0 -0.81318492601E+02 -0.48294113441E+02  0.60554588374E+03  0.61770529862E+03  0.77000000000E+02 0.  0.
   -5000001    1    1    2    0    0  0.81318492601E+02  0.48294113441E+02  0.86405888825E+03  0.87262350472E+03  0.77000000000E+02 0.  0.
<mgrwt>
<rscale>  0 0.24767268E+03</rscale>
<asrwt>0</asrwt>
<pdfrwt beam="1">  1        2 0.22768725E+00 0.24767268E+03</pdfrwt>
<pdfrwt beam="2">  1       -2 0.15941559E-02 0.24767268E+03</pdfrwt>
<totfact> 0.15035249E+04</totfact>
</mgrwt>
</event>
<event>
 4    1  0.6086918E-004  0.2410255E+03  0.7818608E-02  0.1119112E+00
          2   -1    0    0  501    0  0.00000000000E+00  0.00000000000E+00  0.12033320616E+04  0.12033320616E+04  0.25500000000E-02 0.  1.
         -2   -1    0    0    0  501 -0.00000000000E+00 -0.00000000000E+00 -0.12069259433E+02  0.12069259702E+02  0.25500000000E-02 0. -1.
    5000001    1    1    2    0    0  0.14517951118E+02 -0.87199429584E+02  0.73644759546E+03  0.74572017022E+03  0.77000000000E+02 0.  0.
   -5000001    1    1    2    0    0 -0.14517951118E+02  0.87199429584E+02  0.45481520667E+03  0.46968115104E+03  0.77000000000E+02 0.  0.
<mgrwt>
<rscale>  0 0.24102553E+03</rscale>
<asrwt>0</asrwt>
<pdfrwt beam="1">  1        2 0.18512801E+00 0.24102553E+03</pdfrwt>
<pdfrwt beam="2">  1       -2 0.18568091E-02 0.24102553E+03</pdfrwt>
<totfact> 0.17034260E+04</totfact>
</mgrwt>
</event>
<event>
 4    1  0.6086918E-004  0.2127318E+03  0.7818608E-02  0.1139421E+00
         -2   -1    0    0    0  501 -0.00000000000E+00  0.00000000000E+00  0.91776093112E+01  0.91776096654E+01  0.25500000000E-02 0. -1.
          2   -1    0    0  501    0  0.00000000000E+00 -0.00000000000E+00 -0.12327501601E+04  0.12327501601E+04  0.25500000000E-02 0.  1.
    5000001    1    1    2    0    0 -0.48440729115E+02 -0.47336762413E+02 -0.77664399453E+03  0.78338506978E+03  0.77000000000E+02 0.  0.
   -5000001    1    1    2    0    0  0.48440729115E+02  0.47336762413E+02 -0.44692855622E+03  0.45854269995E+03  0.77000000000E+02 0.  0.
<mgrwt>
<rscale>  0 0.21273175E+03</rscale>
<asrwt>0</asrwt>
<pdfrwt beam="1">  1        2 0.18965374E+00 0.21273175E+03</pdfrwt>
<pdfrwt beam="2">  1       -2 0.14119409E-02 0.21273175E+03</pdfrwt>
<totfact> 0.24306948E+04</totfact>
</mgrwt>
</event>
<event>
 4    1  0.6086918E-004  0.2046072E+03  0.7818608E-02  0.1145909E+00
         -2   -1    0    0    0  501 -0.00000000000E+00  0.00000000000E+00  0.14837338645E+02  0.14837338864E+02  0.25500000000E-02 0. -1.
          2   -1    0    0  501    0  0.00000000000E+00 -0.00000000000E+00 -0.70538459673E+03  0.70538459673E+03  0.25500000000E-02 0.  1.
    5000001    1    1    2    0    0  0.22761009080E+02  0.61120599477E+02 -0.28603269671E+03  0.30331088804E+03  0.77000000000E+02 0.  0.
   -5000001    1    1    2    0    0 -0.22761009080E+02 -0.61120599477E+02 -0.40451456137E+03  0.41691104756E+03  0.77000000000E+02 0.  0.
<mgrwt>
<rscale>  0 0.20460724E+03</rscale>
<asrwt>0</asrwt>
<pdfrwt beam="1">  1        2 0.10852068E+00 0.20460724E+03</pdfrwt>
<pdfrwt beam="2">  1       -2 0.22826680E-02 0.20460724E+03</pdfrwt>
<totfact> 0.25758479E+04</totfact>
</mgrwt>
</event>
<event>
 4    1  0.6086918E-004  0.6345806E+03  0.7818608E-02  0.9836151E-01
          2   -1    0    0  501    0  0.00000000000E+00  0.00000000000E+00  0.36029486788E+03  0.36029486789E+03  0.25500000000E-02 0.  1.
         -2   -1    0    0    0  501 -0.00000000000E+00 -0.00000000000E+00 -0.27941869392E+03  0.27941869393E+03  0.25500000000E-02 0. -1.
    5000001    1    1    2    0    0 -0.12666867935E+03  0.56490222471E+02  0.31744801944E+03  0.35487792916E+03  0.77000000000E+02 0.  0.
   -5000001    1    1    2    0    0  0.12666867935E+03 -0.56490222471E+02 -0.23657184548E+03  0.28483563266E+03  0.77000000000E+02 0.  0.
<mgrwt>
<rscale>  0 0.63458056E+03</rscale>
<asrwt>0</asrwt>
<pdfrwt beam="1">  1        2 0.55429979E-01 0.63458056E+03</pdfrwt>
<pdfrwt beam="2">  1       -2 0.42987492E-01 0.63458056E+03</pdfrwt>
<totfact> 0.46284444E+02</totfact>
</mgrwt>
</event>
<event>
 4    1  0.6086918E-004  0.2496202E+03  0.7818608E-02  0.1113545E+00
          2   -1    0    0  501    0  0.00000000000E+00  0.00000000000E+00  0.60091864029E+02  0.60091864083E+02  0.25500000000E-02 0.  1.
         -2   -1    0    0    0  501 -0.00000000000E+00 -0.00000000000E+00 -0.25922904099E+03  0.25922904100E+03  0.25500000000E-02 0. -1.
    5000001    1    1    2    0    0 -0.86379022690E+02 -0.45717686453E+02 -0.11217490887E+03  0.16752209585E+03  0.77000000000E+02 0.  0.
   -5000001    1    1    2    0    0  0.86379022690E+02  0.45717686453E+02 -0.86962268082E+02  0.15179880924E+03  0.77000000000E+02 0.  0.
<mgrwt>
<rscale>  0 0.24962016E+03</rscale>
<asrwt>0</asrwt>
<pdfrwt beam="1">  1        2 0.92449023E-02 0.24962016E+03</pdfrwt>
<pdfrwt beam="2">  1       -2 0.39881390E-01 0.24962016E+03</pdfrwt>
<totfact> 0.41951742E+03</totfact>
</mgrwt>
</event>
<event>
 4    1  0.6086918E-004  0.2244092E+03  0.7818608E-02  0.1130638E+00
         -2   -1    0    0    0  501 -0.00000000000E+00  0.00000000000E+00  0.47287733132E+01  0.47287740008E+01  0.25500000000E-02 0. -1.
          2   -1    0    0  501    0  0.00000000000E+00 -0.00000000000E+00 -0.26623958941E+04  0.26623958941E+04  0.25500000000E-02 0.  1.
    5000001    1    1    2    0    0 -0.78533436641E+02 -0.64686681976E+01 -0.15813808956E+04  0.15852141436E+04  0.77000000000E+02 0.  0.
   -5000001    1    1    2    0    0  0.78533436641E+02  0.64686681976E+01 -0.10762862252E+04  0.10819105244E+04  0.77000000000E+02 0.  0.
<mgrwt>
<rscale>  0 0.22440916E+03</rscale>
<asrwt>0</asrwt>
<pdfrwt beam="1">  1        2 0.40959817E+00 0.22440916E+03</pdfrwt>
<pdfrwt beam="2">  1       -2 0.72750577E-03 0.22440916E+03</pdfrwt>
<totfact> 0.11005855E+04</totfact>
</mgrwt>
</event>
<event>
 4    1  0.6086918E-004  0.1828620E+03  0.7818608E-02  0.1165062E+00
          2   -1    0    0  501    0  0.00000000000E+00  0.00000000000E+00  0.12767027519E+04  0.12767027519E+04  0.25500000000E-02 0.  1.
         -2   -1    0    0    0  501 -0.00000000000E+00 -0.00000000000E+00 -0.65478224024E+01  0.65478228989E+01  0.25500000000E-02 0. -1.
    5000001    1    1    2    0    0 -0.30416533657E+02 -0.38203953468E+02  0.58752551307E+03  0.59455860610E+03  0.77000000000E+02 0.  0.
   -5000001    1    1    2    0    0  0.30416533657E+02  0.38203953468E+02  0.68262941641E+03  0.68869196868E+03  0.77000000000E+02 0.  0.
<mgrwt>
<rscale>  0 0.18286195E+03</rscale>
<asrwt>0</asrwt>
<pdfrwt beam="1">  1        2 0.19641584E+00 0.18286195E+03</pdfrwt>
<pdfrwt beam="2">  1       -2 0.10073571E-02 0.18286195E+03</pdfrwt>
<totfact> 0.37100840E+04</totfact>
</mgrwt>
</event>
<event>
 4    1  0.6086918E-004  0.1879721E+03  0.7818608E-02  0.1160303E+00
         -2   -1    0    0    0  501 -0.00000000000E+00  0.00000000000E+00  0.17015498466E+03  0.17015498468E+03  0.25500000000E-02 0. -1.
          2   -1    0    0  501    0  0.00000000000E+00 -0.00000000000E+00 -0.51913708614E+02  0.51913708677E+02  0.25500000000E-02 0.  1.
    5000001    1    1    2    0    0 -0.51855671064E+02  0.67609180977E+01  0.74508495713E+02  0.11922766696E+03  0.77000000000E+02 0.  0.
   -5000001    1    1    2    0    0  0.51855671064E+02 -0.67609180977E+01  0.43732780335E+02  0.10284102640E+03  0.77000000000E+02 0.  0.
<mgrwt>
<rscale>  0 0.18797209E+03</rscale>
<asrwt>0</asrwt>
<pdfrwt beam="1">  1        2 0.79867245E-02 0.18797209E+03</pdfrwt>
<pdfrwt beam="2">  1       -2 0.26177690E-01 0.18797209E+03</pdfrwt>
<totfact> 0.10743184E+04</totfact>
</mgrwt>
</event>
<event>
 4    1  0.6086918E-004  0.4844204E+03  0.7818608E-02  0.1017927E+00
         -2   -1    0    0    0  501 -0.00000000000E+00  0.00000000000E+00  0.15566210383E+02  0.15566210592E+02  0.25500000000E-02 0. -1.
          2   -1    0    0  501    0  0.00000000000E+00 -0.00000000000E+00 -0.37687899778E+04  0.37687899778E+04  0.25500000000E-02 0.  1.
    5000001    1    1    2    0    0 -0.13795740150E+03 -0.17738370415E+03 -0.15069110289E+04  0.15255186240E+04  0.77000000000E+02 0.  0.
   -5000001    1    1    2    0    0  0.13795740150E+03  0.17738370415E+03 -0.22463127385E+04  0.22588375644E+04  0.77000000000E+02 0.  0.
<mgrwt>
<rscale>  0 0.48442039E+03</rscale>
<asrwt>0</asrwt>
<pdfrwt beam="1">  1        2 0.57981312E+00 0.48442039E+03</pdfrwt>
<pdfrwt beam="2">  1       -2 0.23948046E-02 0.48442039E+03</pdfrwt>
<totfact> 0.37426030E+02</totfact>
</mgrwt>
</event>
<event>
 4    1  0.6086918E-004  0.2361787E+03  0.7818608E-02  0.1122365E+00
         -2   -1    0    0    0  501 -0.00000000000E+00  0.00000000000E+00  0.11107841985E+02  0.11107842278E+02  0.25500000000E-02 0. -1.
          2   -1    0    0  501    0  0.00000000000E+00 -0.00000000000E+00 -0.12554283927E+04  0.12554283927E+04  0.25500000000E-02 0.  1.
    5000001    1    1    2    0    0  0.28369912065E+02  0.62302651648E+02 -0.93159900106E+03  0.93727913189E+03  0.77000000000E+02 0.  0.
   -5000001    1    1    2    0    0 -0.28369912065E+02 -0.62302651648E+02 -0.31272154967E+03  0.32925710310E+03  0.77000000000E+02 0.  0.
<mgrwt>
<rscale>  0 0.23617875E+03</rscale>
<asrwt>0</asrwt>
<pdfrwt beam="1">  1        2 0.19314272E+00 0.23617875E+03</pdfrwt>
<pdfrwt beam="2">  1       -2 0.17088998E-02 0.23617875E+03</pdfrwt>
<totfact> 0.17967356E+04</totfact>
</mgrwt>
</event>
<event>
 4    1  0.6086918E-004  0.2644928E+03  0.7818608E-02  0.1104474E+00
          2   -1    0    0  501    0  0.00000000000E+00  0.00000000000E+00  0.11085469090E+04  0.11085469090E+04  0.25500000000E-02 0.  1.
         -2   -1    0    0    0  501 -0.00000000000E+00 -0.00000000000E+00 -0.15776611821E+02  0.15776612027E+02  0.25500000000E-02 0. -1.
    5000001    1    1    2    0    0  0.47542770368E+02 -0.96382854264E+02  0.53284577405E+03  0.54900235749E+03  0.77000000000E+02 0.  0.
   -5000001    1    1    2    0    0 -0.47542770368E+02  0.96382854264E+02  0.55992452311E+03  0.57532116352E+03  0.77000000000E+02 0.  0.
<mgrwt>
<rscale>  0 0.26449283E+03</rscale>
<asrwt>0</asrwt>
<pdfrwt beam="1">  1        2 0.17054568E+00 0.26449283E+03</pdfrwt>
<pdfrwt beam="2">  1       -2 0.24271710E-02 0.26449283E+03</pdfrwt>
<totfact> 0.13066052E+04</totfact>
</mgrwt>
</event>
<event>
 4    1  0.6086918E-004  0.1999581E+03  0.7818608E-02  0.1149774E+00
          2   -1    0    0  501    0  0.00000000000E+00  0.00000000000E+00  0.10208312695E+03  0.10208312698E+03  0.25500000000E-02 0.  1.
         -2   -1    0    0    0  501 -0.00000000000E+00 -0.00000000000E+00 -0.97918352539E+02  0.97918352572E+02  0.25500000000E-02 0. -1.
    5000001    1    1    2    0    0 -0.47705865534E+02  0.18922684094E+02  0.39944183921E+02  0.10078916315E+03  0.77000000000E+02 0.  0.
   -5000001    1    1    2    0    0  0.47705865534E+02 -0.18922684094E+02 -0.35779409515E+02  0.99212316397E+02  0.77000000000E+02 0.  0.
<mgrwt>
<rscale>  0 0.19995811E+03</rscale>
<asrwt>0</asrwt>
<pdfrwt beam="1">  1        2 0.15705097E-01 0.19995811E+03</pdfrwt>
<pdfrwt beam="2">  1       -2 0.15064362E-01 0.19995811E+03</pdfrwt>
<totfact> 0.12117232E+04</totfact>
</mgrwt>
</event>
<event>
 4    1  0.6086918E-004  0.2201820E+03  0.7818608E-02  0.1133747E+00
         -2   -1    0    0    0  501 -0.00000000000E+00  0.00000000000E+00  0.75412006847E+01  0.75412011159E+01  0.25500000000E-02 0. -1.
          2   -1    0    0  501    0  0.00000000000E+00 -0.00000000000E+00 -0.16071746024E+04  0.16071746024E+04  0.25500000000E-02 0.  1.
    5000001    1    1    2    0    0  0.58903601247E+02 -0.15128385880E+02 -0.43368780020E+03  0.44464886185E+03  0.77000000000E+02 0.  0.
   -5000001    1    1    2    0    0 -0.58903601247E+02  0.15128385880E+02 -0.11659456015E+04  0.11700669417E+04  0.77000000000E+02 0.  0.
<mgrwt>
<rscale>  0 0.22018198E+03</rscale>
<asrwt>0</asrwt>
<pdfrwt beam="1">  1        2 0.24725736E+00 0.22018198E+03</pdfrwt>
<pdfrwt beam="2">  1       -2 0.11601860E-02 0.22018198E+03</pdfrwt>
<totfact> 0.20350852E+04</totfact>
</mgrwt>
</event>
<event>
 4    1  0.6086918E-004  0.2428225E+03  0.7818608E-02  0.1117927E+00
         -2   -1    0    0    0  501 -0.00000000000E+00  0.00000000000E+00  0.67445251317E+01  0.67445256137E+01  0.25500000000E-02 0. -1.
          2   -1    0    0  501    0  0.00000000000E+00 -0.00000000000E+00 -0.21855780069E+04  0.21855780069E+04  0.25500000000E-02 0.  1.
    5000001    1    1    2    0    0  0.21730337198E+02 -0.90327442774E+02 -0.96814148409E+03  0.97563219898E+03  0.77000000000E+02 0.  0.
   -5000001    1    1    2    0    0 -0.21730337198E+02  0.90327442774E+02 -0.12106919977E+04  0.12166903335E+04  0.77000000000E+02 0.  0.
<mgrwt>
<rscale>  0 0.24282246E+03</rscale>
<asrwt>0</asrwt>
<pdfrwt beam="1">  1        2 0.33624221E+00 0.24282246E+03</pdfrwt>
<pdfrwt beam="2">  1       -2 0.10376210E-02 0.24282246E+03</pdfrwt>
<totfact> 0.11947724E+04</totfact>
</mgrwt>
</event>
<event>
 4    1  0.6086918E-004  0.7598304E+03  0.7818608E-02  0.9620053E-01
         -2   -1    0    0    0  501 -0.00000000000E+00  0.00000000000E+00  0.15707963924E+03  0.15707963926E+03  0.25500000000E-02 0. -1.
          2   -1    0    0  501    0  0.00000000000E+00 -0.00000000000E+00 -0.91886871182E+03  0.91886871182E+03  0.25500000000E-02 0.  1.
    5000001    1    1    2    0    0  0.24824597431E+03 -0.27097836305E+03 -0.29892041173E+03  0.47993515140E+03  0.77000000000E+02 0.  0.
   -5000001    1    1    2    0    0 -0.24824597431E+03  0.27097836305E+03 -0.46286866085E+03  0.59601319968E+03  0.77000000000E+02 0.  0.
<mgrwt>
<rscale>  0 0.75983042E+03</rscale>
<asrwt>0</asrwt>
<pdfrwt beam="1">  1        2 0.14136441E+00 0.75983042E+03</pdfrwt>
<pdfrwt beam="2">  1       -2 0.24166099E-01 0.75983042E+03</pdfrwt>
<totfact> 0.43631685E+02</totfact>
</mgrwt>
</event>
<event>
 4    1  0.6086918E-004  0.1853198E+03  0.7818608E-02  0.1162752E+00
         -2   -1    0    0    0  501 -0.00000000000E+00  0.00000000000E+00  0.82166956111E+01  0.82166960068E+01  0.25500000000E-02 0. -1.
          2   -1    0    0  501    0  0.00000000000E+00 -0.00000000000E+00 -0.10449278896E+04  0.10449278896E+04  0.25500000000E-02 0.  1.
    5000001    1    1    2    0    0  0.28060575362E+02  0.37714278315E+02 -0.63851690771E+03  0.64485859234E+03  0.77000000000E+02 0.  0.
   -5000001    1    1    2    0    0 -0.28060575362E+02 -0.37714278315E+02 -0.39819428629E+03  0.40828599329E+03  0.77000000000E+02 0.  0.
<mgrwt>
<rscale>  0 0.18531977E+03</rscale>
<asrwt>0</asrwt>
<pdfrwt beam="1">  1        2 0.16075803E+00 0.18531977E+03</pdfrwt>
<pdfrwt beam="2">  1       -2 0.12641079E-02 0.18531977E+03</pdfrwt>
<totfact> 0.36246333E+04</totfact>
</mgrwt>
</event>
<event>
 4    1  0.6086918E-004  0.5132519E+03  0.7818608E-02  0.1010377E+00
          2   -1    0    0  501    0  0.00000000000E+00  0.00000000000E+00  0.16513383507E+04  0.16513383507E+04  0.25500000000E-02 0.  1.
         -2   -1    0    0    0  501 -0.00000000000E+00 -0.00000000000E+00 -0.39880907145E+02  0.39880907227E+02  0.25500000000E-02 0. -1.
    5000001    1    1    2    0    0  0.14031564192E+03 -0.15524808941E+03  0.12243164206E+04  0.12444557631E+04  0.77000000000E+02 0.  0.
   -5000001    1    1    2    0    0 -0.14031564192E+03  0.15524808941E+03  0.38714102297E+03  0.44676349481E+03  0.77000000000E+02 0.  0.
<mgrwt>
<rscale>  0 0.51325187E+03</rscale>
<asrwt>0</asrwt>
<pdfrwt beam="1">  1        2 0.25405202E+00 0.51325187E+03</pdfrwt>
<pdfrwt beam="2">  1       -2 0.61355249E-02 0.51325187E+03</pdfrwt>
<totfact> 0.16028605E+03</totfact>
</mgrwt>
</event>
<event>
 4    1  0.6086918E-004  0.1771141E+03  0.7818608E-02  0.1170626E+00
          2   -1    0    0  501    0  0.00000000000E+00  0.00000000000E+00  0.22641738662E+03  0.22641738664E+03  0.25500000000E-02 0.  1.
         -2   -1    0    0    0  501 -0.00000000000E+00 -0.00000000000E+00 -0.34636703323E+02  0.34636703417E+02  0.25500000000E-02 0. -1.
    5000001    1    1    2    0    0  0.37134928108E+02  0.18493517908E+02  0.11633174761E+03  0.14554411219E+03  0.77000000000E+02 0.  0.
   -5000001    1    1    2    0    0 -0.37134928108E+02 -0.18493517908E+02  0.75448935688E+02  0.11550997787E+03  0.77000000000E+02 0.  0.
<mgrwt>
<rscale>  0 0.17711411E+03</rscale>
<asrwt>0</asrwt>
<pdfrwt beam="1">  1        2 0.34833444E-01 0.17711411E+03</pdfrwt>
<pdfrwt beam="2">  1       -2 0.53287236E-02 0.17711411E+03</pdfrwt>
<totfact> 0.25154479E+04</totfact>
</mgrwt>
</event>
<event>
 4    1  0.6086918E-004  0.2412052E+03  0.7818608E-02  0.1118993E+00
          2   -1    0    0  501    0  0.00000000000E+00  0.00000000000E+00  0.52877183622E+02  0.52877183683E+02  0.25500000000E-02 0.  1.
         -2   -1    0    0    0  501 -0.00000000000E+00 -0.00000000000E+00 -0.27507119568E+03  0.27507119570E+03  0.25500000000E-02 0. -1.
    5000001    1    1    2    0    0  0.71151211763E+02 -0.43500881802E+02 -0.16651178677E+03  0.20151922188E+03  0.77000000000E+02 0.  0.
   -5000001    1    1    2    0    0 -0.71151211763E+02  0.43500881802E+02 -0.55682225292E+02  0.12642915750E+03  0.77000000000E+02 0.  0.
<mgrwt>
<rscale>  0 0.24120522E+03</rscale>
<asrwt>0</asrwt>
<pdfrwt beam="1">  1        2 0.81349515E-02 0.24120522E+03</pdfrwt>
<pdfrwt beam="2">  1       -2 0.42318644E-01 0.24120522E+03</pdfrwt>
<totfact> 0.43921884E+03</totfact>
</mgrwt>
</event>
<event>
 4    1  0.6086918E-004  0.3046376E+03  0.7818608E-02  0.1082945E+00
         -2   -1    0    0    0  501 -0.00000000000E+00  0.00000000000E+00  0.13148878382E+02  0.13148878630E+02  0.25500000000E-02 0. -1.
          2   -1    0    0  501    0  0.00000000000E+00 -0.00000000000E+00 -0.17644868569E+04  0.17644868569E+04  0.25500000000E-02 0.  1.
    5000001    1    1    2    0    0  0.32876921534E+02  0.34956732799E+02 -0.15896027098E+04  0.15921898882E+04  0.77000000000E+02 0.  0.
   -5000001    1    1    2    0    0 -0.32876921534E+02 -0.34956732799E+02 -0.16173526869E+03  0.18544584728E+03  0.77000000000E+02 0.  0.
<mgrwt>
<rscale>  0 0.30463764E+03</rscale>
<asrwt>0</asrwt>
<pdfrwt beam="1">  1        2 0.27145933E+00 0.30463764E+03</pdfrwt>
<pdfrwt beam="2">  1       -2 0.20229058E-02 0.30463764E+03</pdfrwt>
<totfact> 0.75201454E+03</totfact>
</mgrwt>
</event>
<event>
 4    1  0.6086918E-004  0.2920058E+03  0.7818608E-02  0.1089307E+00
          2   -1    0    0  501    0  0.00000000000E+00  0.00000000000E+00  0.78102551604E+03  0.78102551604E+03  0.25500000000E-02 0.  1.
         -2   -1    0    0    0  501 -0.00000000000E+00 -0.00000000000E+00 -0.27293406654E+02  0.27293406773E+02  0.25500000000E-02 0. -1.
    5000001    1    1    2    0    0 -0.22077805909E+02 -0.89265523258E+02  0.60734070830E+03  0.61906986610E+03  0.77000000000E+02 0.  0.
   -5000001    1    1    2    0    0  0.22077805909E+02  0.89265523258E+02  0.14639140109E+03  0.18924905672E+03  0.77000000000E+02 0.  0.
<mgrwt>
<rscale>  0 0.29200580E+03</rscale>
<asrwt>0</asrwt>
<pdfrwt beam="1">  1        2 0.12015777E+00 0.29200580E+03</pdfrwt>
<pdfrwt beam="2">  1       -2 0.41989858E-02 0.29200580E+03</pdfrwt>
<totfact> 0.93341125E+03</totfact>
</mgrwt>
</event>
<event>
 4    1  0.6086918E-004  0.2264035E+03  0.7818608E-02  0.1129197E+00
          2   -1    0    0  501    0  0.00000000000E+00  0.00000000000E+00  0.39751055815E+04  0.39751055815E+04  0.25500000000E-02 0.  1.
         -2   -1    0    0    0  501 -0.00000000000E+00 -0.00000000000E+00 -0.32237214729E+01  0.32237224815E+01  0.25500000000E-02 0. -1.
    5000001    1    1    2    0    0  0.45258195952E+02  0.57415051586E+02  0.12961828882E+04  0.13005244604E+04  0.77000000000E+02 0.  0.
   -5000001    1    1    2    0    0 -0.45258195952E+02 -0.57415051586E+02  0.26756989718E+04  0.26778048435E+04  0.77000000000E+02 0.  0.
<mgrwt>
<rscale>  0 0.22640349E+03</rscale>
<asrwt>0</asrwt>
<pdfrwt beam="1">  1        2 0.61155416E+00 0.22640349E+03</pdfrwt>
<pdfrwt beam="2">  1       -2 0.49595767E-03 0.22640349E+03</pdfrwt>
<totfact> 0.27687467E+03</totfact>
</mgrwt>
</event>
<event>
 4    1  0.6086918E-004  0.2220326E+03  0.7818608E-02  0.1132377E+00
          2   -1    0    0  501    0  0.00000000000E+00  0.00000000000E+00  0.35492113480E+03  0.35492113481E+03  0.25500000000E-02 0.  1.
         -2   -1    0    0    0  501 -0.00000000000E+00 -0.00000000000E+00 -0.34724945429E+02  0.34724945522E+02  0.25500000000E-02 0. -1.
    5000001    1    1    2    0    0  0.57547252664E+02  0.54685066662E+02  0.17706488134E+03  0.20876569404E+03  0.77000000000E+02 0.  0.
   -5000001    1    1    2    0    0 -0.57547252664E+02 -0.54685066662E+02  0.14313130803E+03  0.18088038628E+03  0.77000000000E+02 0.  0.
<mgrwt>
<rscale>  0 0.22203258E+03</rscale>
<asrwt>0</asrwt>
<pdfrwt beam="1">  1        2 0.54603251E-01 0.22203258E+03</pdfrwt>
<pdfrwt beam="2">  1       -2 0.53422994E-02 0.22203258E+03</pdfrwt>
<totfact> 0.15740507E+04</totfact>
</mgrwt>
</event>
<event>
 4    1  0.6086918E-004  0.2787513E+03  0.7818608E-02  0.1096373E+00
         -2   -1    0    0    0  501 -0.00000000000E+00  0.00000000000E+00  0.82972604356E+02  0.82972604395E+02  0.25500000000E-02 0. -1.
          2   -1    0    0  501    0  0.00000000000E+00 -0.00000000000E+00 -0.23412031170E+03  0.23412031172E+03  0.25500000000E-02 0.  1.
    5000001    1    1    2    0    0 -0.17863825057E+02 -0.96357425608E+02 -0.46005156438E+01  0.12471581479E+03  0.77000000000E+02 0.  0.
   -5000001    1    1    2    0    0  0.17863825057E+02  0.96357425608E+02 -0.14654719171E+03  0.19237710132E+03  0.77000000000E+02 0.  0.
<mgrwt>
<rscale>  0 0.27875130E+03</rscale>
<asrwt>0</asrwt>
<pdfrwt beam="1">  1        2 0.36018509E-01 0.27875130E+03</pdfrwt>
<pdfrwt beam="2">  1       -2 0.12765016E-01 0.27875130E+03</pdfrwt>
<totfact> 0.63619057E+03</totfact>
</mgrwt>
</event>
<event>
 4    1  0.6086918E-004  0.6597870E+03  0.7818608E-02  0.9788586E-01
         -2   -1    0    0    0  501 -0.00000000000E+00  0.00000000000E+00  0.33290027131E+03  0.33290027132E+03  0.25500000000E-02 0. -1.
          2   -1    0    0  501    0  0.00000000000E+00 -0.00000000000E+00 -0.32691383762E+03  0.32691383763E+03  0.25500000000E-02 0.  1.
    5000001    1    1    2    0    0 -0.51844664134E+01 -0.29846030497E+03  0.12045133108E+03  0.33097274132E+03  0.77000000000E+02 0.  0.
   -5000001    1    1    2    0    0  0.51844664134E+01  0.29846030497E+03 -0.11446489739E+03  0.32884136764E+03  0.77000000000E+02 0.  0.
<mgrwt>
<rscale>  0 0.65978695E+03</rscale>
<asrwt>0</asrwt>
<pdfrwt beam="1">  1        2 0.50294436E-01 0.65978695E+03</pdfrwt>
<pdfrwt beam="2">  1       -2 0.51215426E-01 0.65978695E+03</pdfrwt>
<totfact> 0.36275054E+02</totfact>
</mgrwt>
</event>
<event>
 4    1  0.6086918E-004  0.3588098E+03  0.7818608E-02  0.1059056E+00
          2   -1    0    0  501    0  0.00000000000E+00  0.00000000000E+00  0.10657138089E+04  0.10657138089E+04  0.25500000000E-02 0.  1.
         -2   -1    0    0    0  501 -0.00000000000E+00 -0.00000000000E+00 -0.30201465774E+02  0.30201465881E+02  0.25500000000E-02 0. -1.
    5000001    1    1    2    0    0  0.13333276194E+03 -0.43306534846E+02  0.26954721282E+03  0.31342906902E+03  0.77000000000E+02 0.  0.
   -5000001    1    1    2    0    0 -0.13333276194E+03  0.43306534846E+02  0.76596513031E+03  0.78248620577E+03  0.77000000000E+02 0.  0.
<mgrwt>
<rscale>  0 0.35880981E+03</rscale>
<asrwt>0</asrwt>
<pdfrwt beam="1">  1        2 0.16395598E+00 0.35880981E+03</pdfrwt>
<pdfrwt beam="2">  1       -2 0.46463791E-02 0.35880981E+03</pdfrwt>
<totfact> 0.52655720E+03</totfact>
</mgrwt>
</event>
<event>
 4    1  0.6086918E-004  0.2088693E+03  0.7818608E-02  0.1142465E+00
          2   -1    0    0  501    0  0.00000000000E+00  0.00000000000E+00  0.19007263000E+04  0.19007263000E+04  0.25500000000E-02 0.  1.
         -2   -1    0    0    0  501 -0.00000000000E+00 -0.00000000000E+00 -0.57381209147E+01  0.57381214813E+01  0.25500000000E-02 0. -1.
    5000001    1    1    2    0    0  0.55498361127E+02  0.42239491362E+02  0.10446735991E+04  0.10498267340E+04  0.77000000000E+02 0.  0.
   -5000001    1    1    2    0    0 -0.55498361127E+02 -0.42239491362E+02  0.85031457996E+03  0.85663768748E+03  0.77000000000E+02 0.  0.
<mgrwt>
<rscale>  0 0.20886932E+03</rscale>
<asrwt>0</asrwt>
<pdfrwt beam="1">  1        2 0.29241956E+00 0.20886932E+03</pdfrwt>
<pdfrwt beam="2">  1       -2 0.88278748E-03 0.20886932E+03</pdfrwt>
<totfact> 0.21185976E+04</totfact>
</mgrwt>
</event>
<event>
 4    1  0.6086918E-004  0.1699343E+03  0.7818608E-02  0.1177916E+00
          2   -1    0    0  501    0  0.00000000000E+00  0.00000000000E+00  0.22428431998E+04  0.22428431998E+04  0.25500000000E-02 0.  1.
         -2   -1    0    0    0  501 -0.00000000000E+00 -0.00000000000E+00 -0.32188693040E+01  0.32188703141E+01  0.25500000000E-02 0. -1.
    5000001    1    1    2    0    0 -0.50861674544E+01 -0.35013231459E+02  0.10376685799E+04  0.10411228925E+04  0.77000000000E+02 0.  0.
   -5000001    1    1    2    0    0  0.50861674544E+01  0.35013231459E+02  0.12019557506E+04  0.12049391776E+04  0.77000000000E+02 0.  0.
<mgrwt>
<rscale>  0 0.16993434E+03</rscale>
<asrwt>0</asrwt>
<pdfrwt beam="1">  1        2 0.34505173E+00 0.16993434E+03</pdfrwt>
<pdfrwt beam="2">  1       -2 0.49521227E-03 0.16993434E+03</pdfrwt>
<totfact> 0.31869030E+04</totfact>
</mgrwt>
</event>
<event>
 4    1  0.6086918E-004  0.4200205E+03  0.7818608E-02  0.1037060E+00
          2   -1    0    0  501    0  0.00000000000E+00  0.00000000000E+00  0.20093175062E+03  0.20093175064E+03  0.25500000000E-02 0.  1.
         -2   -1    0    0    0  501 -0.00000000000E+00 -0.00000000000E+00 -0.21949891331E+03  0.21949891332E+03  0.25500000000E-02 0. -1.
    5000001    1    1    2    0    0 -0.10818094054E+03 -0.12932060265E+03  0.89546657861E+02  0.20585076658E+03  0.77000000000E+02 0.  0.
   -5000001    1    1    2    0    0  0.10818094054E+03  0.12932060265E+03 -0.10811382055E+03  0.21457989738E+03  0.77000000000E+02 0.  0.
<mgrwt>
<rscale>  0 0.42002048E+03</rscale>
<asrwt>0</asrwt>
<pdfrwt beam="1">  1        2 0.30912577E-01 0.42002048E+03</pdfrwt>
<pdfrwt beam="2">  1       -2 0.33769063E-01 0.42002048E+03</pdfrwt>
<totfact> 0.14037961E+03</totfact>
</mgrwt>
</event>
<event>
 4    1  0.6086918E-004  0.2436110E+03  0.7818608E-02  0.1117410E+00
          2   -1    0    0  501    0  0.00000000000E+00  0.00000000000E+00  0.44840239770E+03  0.44840239771E+03  0.25500000000E-02 0.  1.
         -2   -1    0    0    0  501 -0.00000000000E+00 -0.00000000000E+00 -0.33087643127E+02  0.33087643225E+02  0.25500000000E-02 0. -1.
    5000001    1    1    2    0    0 -0.12174223400E+02 -0.86474985768E+02  0.13690513776E+03  0.17971686516E+03  0.77000000000E+02 0.  0.
   -5000001    1    1    2    0    0  0.12174223400E+02  0.86474985768E+02  0.27840961682E+03  0.30177317577E+03  0.77000000000E+02 0.  0.
<mgrwt>
<rscale>  0 0.24361099E+03</rscale>
<asrwt>0</asrwt>
<pdfrwt beam="1">  1        2 0.68984979E-01 0.24361099E+03</pdfrwt>
<pdfrwt beam="2">  1       -2 0.50904070E-02 0.24361099E+03</pdfrwt>
<totfact> 0.13214989E+04</totfact>
</mgrwt>
</event>
<event>
 4    1  0.6086918E-004  0.8517562E+03  0.7818608E-02  0.9487983E-01
          2   -1    0    0  501    0  0.00000000000E+00  0.00000000000E+00  0.36869287161E+04  0.36869287161E+04  0.25500000000E-02 0.  1.
         -2   -1    0    0    0  501 -0.00000000000E+00 -0.00000000000E+00 -0.49193294399E+02  0.49193294465E+02  0.25500000000E-02 0. -1.
    5000001    1    1    2    0    0 -0.18626346875E+03 -0.23785616933E+03  0.30914723674E+04  0.31071530435E+04  0.77000000000E+02 0.  0.
   -5000001    1    1    2    0    0  0.18626346875E+03  0.23785616933E+03  0.54626305424E+03  0.62896896705E+03  0.77000000000E+02 0.  0.
<mgrwt>
<rscale>  0 0.85175623E+03</rscale>
<asrwt>0</asrwt>
<pdfrwt beam="1">  1        2 0.56721997E+00 0.85175623E+03</pdfrwt>
<pdfrwt beam="2">  1       -2 0.75681969E-02 0.85175623E+03</pdfrwt>
<totfact> 0.68619267E+01</totfact>
</mgrwt>
</event>
<event>
 4    1  0.6086918E-004  0.2332941E+03  0.7818608E-02  0.1124342E+00
          2   -1    0    0  501    0  0.00000000000E+00  0.00000000000E+00  0.14636725060E+04  0.14636725060E+04  0.25500000000E-02 0.  1.
         -2   -1    0    0    0  501 -0.00000000000E+00 -0.00000000000E+00 -0.92961629843E+01  0.92961633341E+01  0.25500000000E-02 0. -1.
    5000001    1    1    2    0    0  0.18651870699E+02  0.73205340891E+02  0.10074678398E+04  0.10132262148E+04  0.77000000000E+02 0.  0.
   -5000001    1    1    2    0    0 -0.18651870699E+02 -0.73205340891E+02  0.44690850320E+03  0.45974245447E+03  0.77000000000E+02 0.  0.
<mgrwt>
<rscale>  0 0.23329414E+03</rscale>
<asrwt>0</asrwt>
<pdfrwt beam="1">  1        2 0.22518052E+00 0.23329414E+03</pdfrwt>
<pdfrwt beam="2">  1       -2 0.14301781E-02 0.23329414E+03</pdfrwt>
<totfact> 0.17932980E+04</totfact>
</mgrwt>
</event>
<event>
 4    1  0.6086918E-004  0.2302695E+03  0.7818608E-02  0.1126450E+00
         -2   -1    0    0    0  501 -0.00000000000E+00  0.00000000000E+00  0.50280112793E+01  0.50280119260E+01  0.25500000000E-02 0. -1.
          2   -1    0    0  501    0  0.00000000000E+00 -0.00000000000E+00 -0.26364316745E+04  0.26364316745E+04  0.25500000000E-02 0.  1.
    5000001    1    1    2    0    0  0.24612065460E+02 -0.61080609735E+02 -0.68840472701E+03  0.69582085541E+03  0.77000000000E+02 0.  0.
   -5000001    1    1    2    0    0 -0.24612065460E+02  0.61080609735E+02 -0.19429989362E+04  0.19456388310E+04  0.77000000000E+02 0.  0.
<mgrwt>
<rscale>  0 0.23026949E+03</rscale>
<asrwt>0</asrwt>
<pdfrwt beam="1">  1        2 0.40560377E+00 0.23026949E+03</pdfrwt>
<pdfrwt beam="2">  1       -2 0.77354235E-03 0.23026949E+03</pdfrwt>
<totfact> 0.10416994E+04</totfact>
</mgrwt>
</event>
<event>
 4    1  0.6086918E-004  0.1962190E+03  0.7818608E-02  0.1152969E+00
          2   -1    0    0  501    0  0.00000000000E+00  0.00000000000E+00  0.82755870343E+03  0.82755870344E+03  0.25500000000E-02 0.  1.
         -2   -1    0    0    0  501 -0.00000000000E+00 -0.00000000000E+00 -0.11631171554E+02  0.11631171833E+02  0.25500000000E-02 0. -1.
    5000001    1    1    2    0    0  0.60092514435E+02 -0.41259861039E+01  0.44332009176E+03  0.45397118611E+03  0.77000000000E+02 0.  0.
   -5000001    1    1    2    0    0 -0.60092514435E+02  0.41259861039E+01  0.37260744012E+03  0.38521868917E+03  0.77000000000E+02 0.  0.
<mgrwt>
<rscale>  0 0.19621903E+03</rscale>
<asrwt>0</asrwt>
<pdfrwt beam="1">  1        2 0.12731677E+00 0.19621903E+03</pdfrwt>
<pdfrwt beam="2">  1       -2 0.17894104E-02 0.19621903E+03</pdfrwt>
<totfact> 0.30083436E+04</totfact>
</mgrwt>
</event>
<event>
 4    1  0.6086918E-004  0.2020697E+03  0.7818608E-02  0.1148004E+00
         -2   -1    0    0    0  501 -0.00000000000E+00  0.00000000000E+00  0.18880282139E+02  0.18880282311E+02  0.25500000000E-02 0. -1.
          2   -1    0    0  501    0  0.00000000000E+00 -0.00000000000E+00 -0.54067220496E+03  0.54067220496E+03  0.25500000000E-02 0.  1.
    5000001    1    1    2    0    0 -0.16026059582E+02 -0.60929781292E+02 -0.30963309059E+03  0.32522442040E+03  0.77000000000E+02 0.  0.
   -5000001    1    1    2    0    0  0.16026059582E+02  0.60929781292E+02 -0.21215883222E+03  0.23432806687E+03  0.77000000000E+02 0.  0.
<mgrwt>
<rscale>  0 0.20206973E+03</rscale>
<asrwt>0</asrwt>
<pdfrwt beam="1">  1        2 0.83180328E-01 0.20206973E+03</pdfrwt>
<pdfrwt beam="2">  1       -2 0.29046592E-02 0.20206973E+03</pdfrwt>
<totfact> 0.24580904E+04</totfact>
</mgrwt>
</event>
<event>
 4    1  0.6086918E-004  0.1877199E+03  0.7818608E-02  0.1160534E+00
         -2   -1    0    0    0  501 -0.00000000000E+00  0.00000000000E+00  0.15391061473E+02  0.15391061684E+02  0.25500000000E-02 0. -1.
          2   -1    0    0  501    0  0.00000000000E+00 -0.00000000000E+00 -0.57238994117E+03  0.57238994117E+03  0.25500000000E-02 0.  1.
    5000001    1    1    2    0    0 -0.46612192366E+01 -0.51084487095E+02 -0.32794174063E+03  0.34074350623E+03  0.77000000000E+02 0.  0.
   -5000001    1    1    2    0    0  0.46612192366E+01  0.51084487095E+02 -0.22905713906E+03  0.24703749663E+03  0.77000000000E+02 0.  0.
<mgrwt>
<rscale>  0 0.18771989E+03</rscale>
<asrwt>0</asrwt>
<pdfrwt beam="1">  1        2 0.88059974E-01 0.18771989E+03</pdfrwt>
<pdfrwt beam="2">  1       -2 0.23678561E-02 0.18771989E+03</pdfrwt>
<totfact> 0.30965237E+04</totfact>
</mgrwt>
</event>
<event>
 4    1  0.6086918E-004  0.4082282E+03  0.7818608E-02  0.1040967E+00
         -2   -1    0    0    0  501 -0.00000000000E+00  0.00000000000E+00  0.28912527390E+02  0.28912527502E+02  0.25500000000E-02 0. -1.
          2   -1    0    0  501    0  0.00000000000E+00 -0.00000000000E+00 -0.14409864165E+04  0.14409864165E+04  0.25500000000E-02 0.  1.
    5000001    1    1    2    0    0  0.16649822701E+03  0.78459689266E+02 -0.86115801421E+03  0.88396815999E+03  0.77000000000E+02 0.  0.
   -5000001    1    1    2    0    0 -0.16649822701E+03 -0.78459689266E+02 -0.55091587491E+03  0.58593078402E+03  0.77000000000E+02 0.  0.
<mgrwt>
<rscale>  0 0.40822817E+03</rscale>
<asrwt>0</asrwt>
<pdfrwt beam="1">  1        2 0.22169016E+00 0.40822817E+03</pdfrwt>
<pdfrwt beam="2">  1       -2 0.44480823E-02 0.40822817E+03</pdfrwt>
<totfact> 0.34394783E+03</totfact>
</mgrwt>
</event>
<event>
 4    1  0.6086918E-004  0.2169829E+03  0.7818608E-02  0.1136153E+00
          2   -1    0    0  501    0  0.00000000000E+00  0.00000000000E+00  0.29017494316E+03  0.29017494317E+03  0.25500000000E-02 0.  1.
         -2   -1    0    0    0  501 -0.00000000000E+00 -0.00000000000E+00 -0.40563110123E+02  0.40563110203E+02  0.25500000000E-02 0. -1.
    5000001    1    1    2    0    0  0.17721264734E+02  0.57068303984E+02  0.52174346386E+02  0.11055314091E+03  0.77000000000E+02 0.  0.
   -5000001    1    1    2    0    0 -0.17721264734E+02 -0.57068303984E+02  0.19743748665E+03  0.22018491247E+03  0.77000000000E+02 0.  0.
<mgrwt>
<rscale>  0 0.21698293E+03</rscale>
<asrwt>0</asrwt>
<pdfrwt beam="1">  1        2 0.44642300E-01 0.21698293E+03</pdfrwt>
<pdfrwt beam="2">  1       -2 0.62404783E-02 0.21698293E+03</pdfrwt>
<totfact> 0.15388506E+04</totfact>
</mgrwt>
</event>
<event>
 4    1  0.6086918E-004  0.4846481E+03  0.7818608E-02  0.1017865E+00
          2   -1    0    0  501    0  0.00000000000E+00  0.00000000000E+00  0.21198019189E+03  0.21198019191E+03  0.25500000000E-02 0.  1.
         -2   -1    0    0    0  501 -0.00000000000E+00 -0.00000000000E+00 -0.27701151327E+03  0.27701151328E+03  0.25500000000E-02 0. -1.
    5000001    1    1    2    0    0  0.10397926520E+03 -0.14508325569E+03 -0.17848818852E+03  0.26390883296E+03  0.77000000000E+02 0.  0.
   -5000001    1    1    2    0    0 -0.10397926520E+03  0.14508325569E+03  0.11345686714E+03  0.22508287224E+03  0.77000000000E+02 0.  0.
<mgrwt>
<rscale>  0 0.48464814E+03</rscale>
<asrwt>0</asrwt>
<pdfrwt beam="1">  1        2 0.32612337E-01 0.48464814E+03</pdfrwt>
<pdfrwt beam="2">  1       -2 0.42617156E-01 0.48464814E+03</pdfrwt>
<totfact> 0.84800258E+02</totfact>
</mgrwt>
</event>
<event>
 4    1  0.6086918E-004  0.2449494E+03  0.7818608E-02  0.1116539E+00
         -2   -1    0    0    0  501 -0.00000000000E+00  0.00000000000E+00  0.76206623320E+01  0.76206627586E+01  0.25500000000E-02 0. -1.
          2   -1    0    0  501    0  0.00000000000E+00 -0.00000000000E+00 -0.19683403032E+04  0.19683403032E+04  0.25500000000E-02 0.  1.
    5000001    1    1    2    0    0 -0.58727117286E+02  0.42340962230E+02 -0.14795531106E+04  0.14833233088E+04  0.77000000000E+02 0.  0.
   -5000001    1    1    2    0    0  0.58727117286E+02 -0.42340962230E+02 -0.48116653025E+03  0.49263765713E+03  0.77000000000E+02 0.  0.
<mgrwt>
<rscale>  0 0.24494944E+03</rscale>
<asrwt>0</asrwt>
<pdfrwt beam="1">  1        2 0.30282118E+00 0.24494944E+03</pdfrwt>
<pdfrwt beam="2">  1       -2 0.11724112E-02 0.24494944E+03</pdfrwt>
<totfact> 0.13020313E+04</totfact>
</mgrwt>
</event>
<event>
 4    1  0.6086918E-004  0.2193891E+03  0.7818608E-02  0.1134339E+00
         -2   -1    0    0    0  501 -0.00000000000E+00  0.00000000000E+00  0.21830068097E+03  0.21830068099E+03  0.25500000000E-02 0. -1.
          2   -1    0    0  501    0  0.00000000000E+00 -0.00000000000E+00 -0.55120724466E+02  0.55120724525E+02  0.25500000000E-02 0.  1.
    5000001    1    1    2    0    0 -0.47479954764E+02 -0.50984646541E+02  0.37525171350E+02  0.11041249373E+03  0.77000000000E+02 0.  0.
   -5000001    1    1    2    0    0  0.47479954764E+02  0.50984646541E+02  0.12565478516E+03  0.16300891178E+03  0.77000000000E+02 0.  0.
<mgrwt>
<rscale>  0 0.21938908E+03</rscale>
<asrwt>0</asrwt>
<pdfrwt beam="1">  1        2 0.84801114E-02 0.21938908E+03</pdfrwt>
<pdfrwt beam="2">  1       -2 0.33584720E-01 0.21938908E+03</pdfrwt>
<totfact> 0.64142995E+03</totfact>
</mgrwt>
</event>
<event>
 4    1  0.6086918E-004  0.1767423E+03  0.7818608E-02  0.1170994E+00
         -2   -1    0    0    0  501 -0.00000000000E+00  0.00000000000E+00  0.63692436379E+02  0.63692436431E+02  0.25500000000E-02 0. -1.
          2   -1    0    0  501    0  0.00000000000E+00 -0.00000000000E+00 -0.12261203019E+03  0.12261203022E+03  0.25500000000E-02 0.  1.
    5000001    1    1    2    0    0  0.42002202124E+02  0.10025450254E+02 -0.33645035234E+02  0.94475833058E+02  0.77000000000E+02 0.  0.
   -5000001    1    1    2    0    0 -0.42002202124E+02 -0.10025450254E+02 -0.25274558579E+02  0.91828633592E+02  0.77000000000E+02 0.  0.
<mgrwt>
<rscale>  0 0.17674229E+03</rscale>
<asrwt>0</asrwt>
<pdfrwt beam="1">  1        2 0.18863389E-01 0.17674229E+03</pdfrwt>
<pdfrwt beam="2">  1       -2 0.97988364E-02 0.17674229E+03</pdfrwt>
<totfact> 0.19388384E+04</totfact>
</mgrwt>
</event>
<event>
 4    1  0.6086918E-004  0.2604004E+03  0.7818608E-02  0.1106903E+00
          2   -1    0    0  501    0  0.00000000000E+00  0.00000000000E+00  0.12544182208E+04  0.12544182208E+04  0.25500000000E-02 0.  1.
         -2   -1    0    0    0  501 -0.00000000000E+00 -0.00000000000E+00 -0.13513911038E+02  0.13513911278E+02  0.25500000000E-02 0. -1.
    5000001    1    1    2    0    0 -0.92583164195E+02 -0.48865542745E+02  0.65928745610E+03  0.67197353619E+03  0.77000000000E+02 0.  0.
   -5000001    1    1    2    0    0  0.92583164195E+02  0.48865542745E+02  0.58161685366E+03  0.59595859589E+03  0.77000000000E+02 0.  0.
<mgrwt>
<rscale>  0 0.26040043E+03</rscale>
<asrwt>0</asrwt>
<pdfrwt beam="1">  1        2 0.19298735E+00 0.26040043E+03</pdfrwt>
<pdfrwt beam="2">  1       -2 0.20790640E-02 0.26040043E+03</pdfrwt>
<totfact> 0.13544505E+04</totfact>
</mgrwt>
</event>
<event>
 4    1  0.6086918E-004  0.1866765E+03  0.7818608E-02  0.1161494E+00
          2   -1    0    0  501    0  0.00000000000E+00  0.00000000000E+00  0.92866506198E+03  0.92866506198E+03  0.25500000000E-02 0.  1.
         -2   -1    0    0    0  501 -0.00000000000E+00 -0.00000000000E+00 -0.93812377923E+01  0.93812381388E+01  0.25500000000E-02 0. -1.
    5000001    1    1    2    0    0 -0.45708700439E+02 -0.17491770942E+02  0.55859462031E+03  0.56599664062E+03  0.77000000000E+02 0.  0.
   -5000001    1    1    2    0    0  0.45708700439E+02  0.17491770942E+02  0.36068920387E+03  0.37204965950E+03  0.77000000000E+02 0.  0.
<mgrwt>
<rscale>  0 0.18667649E+03</rscale>
<asrwt>0</asrwt>
<pdfrwt beam="1">  1        2 0.14287158E+00 0.18667649E+03</pdfrwt>
<pdfrwt beam="2">  1       -2 0.14432671E-02 0.18667649E+03</pdfrwt>
<totfact> 0.35234587E+04</totfact>
</mgrwt>
</event>
<event>
 4    1  0.6086918E-004  0.3146793E+03  0.7818608E-02  0.1078124E+00
          2   -1    0    0  501    0  0.00000000000E+00  0.00000000000E+00  0.80732296800E+02  0.80732296840E+02  0.25500000000E-02 0.  1.
         -2   -1    0    0    0  501 -0.00000000000E+00 -0.00000000000E+00 -0.30664017411E+03  0.30664017412E+03  0.25500000000E-02 0. -1.
    5000001    1    1    2    0    0  0.11003330706E+02  0.13523265885E+03 -0.87791349891E+02  0.17901191698E+03  0.77000000000E+02 0.  0.
   -5000001    1    1    2    0    0 -0.11003330706E+02 -0.13523265885E+03 -0.13811652742E+03  0.20836055398E+03  0.77000000000E+02 0.  0.
<mgrwt>
<rscale>  0 0.31467930E+03</rscale>
<asrwt>0</asrwt>
<pdfrwt beam="1">  1        2 0.12420354E-01 0.31467930E+03</pdfrwt>
<pdfrwt beam="2">  1       -2 0.47175411E-01 0.31467930E+03</pdfrwt>
<totfact> 0.21175331E+03</totfact>
</mgrwt>
</event>
<event>
 4    1  0.6086918E-004  0.1913072E+03  0.7818608E-02  0.1157288E+00
         -2   -1    0    0    0  501 -0.00000000000E+00  0.00000000000E+00  0.64016732785E+02  0.64016732836E+02  0.25500000000E-02 0. -1.
          2   -1    0    0  501    0  0.00000000000E+00 -0.00000000000E+00 -0.14292534071E+03  0.14292534074E+03  0.25500000000E-02 0.  1.
    5000001    1    1    2    0    0 -0.54499695519E+02  0.39361511574E+01 -0.22875165948E+02  0.97149283655E+02  0.77000000000E+02 0.  0.
   -5000001    1    1    2    0    0  0.54499695519E+02 -0.39361511574E+01 -0.56033441980E+02  0.10979278992E+03  0.77000000000E+02 0.  0.
<mgrwt>
<rscale>  0 0.19130722E+03</rscale>
<asrwt>0</asrwt>
<pdfrwt beam="1">  1        2 0.21988514E-01 0.19130722E+03</pdfrwt>
<pdfrwt beam="2">  1       -2 0.98487282E-02 0.19130722E+03</pdfrwt>
<totfact> 0.16265461E+04</totfact>
</mgrwt>
</event>
<event>
 4    1  0.6086918E-004  0.3350575E+03  0.7818608E-02  0.1068921E+00
          2   -1    0    0  501    0  0.00000000000E+00  0.00000000000E+00  0.62710704834E+03  0.62710704834E+03  0.25500000000E-02 0.  1.
         -2   -1    0    0    0  501 -0.00000000000E+00 -0.00000000000E+00 -0.44754535076E+02  0.44754535149E+02  0.25500000000E-02 0. -1.
    5000001    1    1    2    0    0  0.13647267169E+03  0.56578041963E+02  0.25581283878E+03  0.30527868159E+03  0.77000000000E+02 0.  0.
   -5000001    1    1    2    0    0 -0.13647267169E+03 -0.56578041963E+02  0.32653967448E+03  0.36658290190E+03  0.77000000000E+02 0.  0.
<mgrwt>
<rscale>  0 0.33505751E+03</rscale>
<asrwt>0</asrwt>
<pdfrwt beam="1">  1        2 0.96478007E-01 0.33505751E+03</pdfrwt>
<pdfrwt beam="2">  1       -2 0.68853131E-02 0.33505751E+03</pdfrwt>
<totfact> 0.57439683E+03</totfact>
</mgrwt>
</event>
<event>
 4    1  0.6086918E-004  0.1928814E+03  0.7818608E-02  0.1155888E+00
          2   -1    0    0  501    0  0.00000000000E+00  0.00000000000E+00  0.21486367670E+04  0.21486367670E+04  0.25500000000E-02 0.  1.
         -2   -1    0    0    0  501 -0.00000000000E+00 -0.00000000000E+00 -0.43287035962E+01  0.43287043473E+01  0.25500000000E-02 0. -1.
    5000001    1    1    2    0    0  0.33300814088E+02 -0.33190882406E+02  0.69178388497E+03  0.69764211627E+03  0.77000000000E+02 0.  0.
   -5000001    1    1    2    0    0 -0.33300814088E+02  0.33190882406E+02  0.14525241784E+04  0.14553233550E+04  0.77000000000E+02 0.  0.
<mgrwt>
<rscale>  0 0.19288144E+03</rscale>
<asrwt>0</asrwt>
<pdfrwt beam="1">  1        2 0.33055918E+00 0.19288144E+03</pdfrwt>
<pdfrwt beam="2">  1       -2 0.66595512E-03 0.19288144E+03</pdfrwt>
<totfact> 0.23518989E+04</totfact>
</mgrwt>
</event>
<event>
 4    1  0.6086918E-004  0.4672625E+03  0.7818608E-02  0.1022696E+00
         -2   -1    0    0    0  501 -0.00000000000E+00  0.00000000000E+00  0.42825073561E+02  0.42825073637E+02  0.25500000000E-02 0.  1.
          2   -1    0    0  501    0  0.00000000000E+00 -0.00000000000E+00 -0.12745701059E+04  0.12745701059E+04  0.25500000000E-02 0. -1.
    5000001    1    1    2    0    0  0.15529859416E+03  0.61024499825E+02 -0.20912808704E+03  0.27839755695E+03  0.77000000000E+02 0.  0.
   -5000001    1    1    2    0    0 -0.15529859416E+03 -0.61024499825E+02 -0.10226169453E+04  0.10389976226E+04  0.77000000000E+02 0.  0.
<mgrwt>
<rscale>  0 0.46726249E+03</rscale>
<asrwt>0</asrwt>
<pdfrwt beam="1">  1        2 0.19608768E+00 0.46726249E+03</pdfrwt>
<pdfrwt beam="2">  1       -2 0.65884738E-02 0.46726249E+03</pdfrwt>
<totfact> 0.23190306E+03</totfact>
</mgrwt>
</event>
<event>
 4    1  0.6086918E-004  0.2716172E+03  0.7818608E-02  0.1100358E+00
         -2   -1    0    0    0  501 -0.00000000000E+00  0.00000000000E+00  0.42498194196E+02  0.42498194273E+02  0.25500000000E-02 0. -1.
          2   -1    0    0  501    0  0.00000000000E+00 -0.00000000000E+00 -0.43399421827E+03  0.43399421828E+03  0.25500000000E-02 0.  1.
    5000001    1    1    2    0    0 -0.31883752234E+02 -0.10406517047E+03 -0.24111699064E+03  0.27552229772E+03  0.77000000000E+02 0.  0.
   -5000001    1    1    2    0    0  0.31883752234E+02  0.10406517047E+03 -0.15037903343E+03  0.20097011483E+03  0.77000000000E+02 0.  0.
<mgrwt>
<rscale>  0 0.27161716E+03</rscale>
<asrwt>0</asrwt>
<pdfrwt beam="1">  1        2 0.66768338E-01 0.27161716E+03</pdfrwt>
<pdfrwt beam="2">  1       -2 0.65381840E-02 0.27161716E+03</pdfrwt>
<totfact> 0.93862876E+03</totfact>
</mgrwt>
</event>
<event>
 4    1  0.6086918E-004  0.2568769E+03  0.7818608E-02  0.1109034E+00
          2   -1    0    0  501    0  0.00000000000E+00  0.00000000000E+00  0.46166854114E+03  0.46166854115E+03  0.25500000000E-02 0.  1.
         -2   -1    0    0    0  501 -0.00000000000E+00 -0.00000000000E+00 -0.35732207948E+02  0.35732208039E+02  0.25500000000E-02 0. -1.
    5000001    1    1    2    0    0  0.89740937397E+02  0.46364840151E+02  0.24992648514E+03  0.28034867973E+03  0.77000000000E+02 0.  0.
   -5000001    1    1    2    0    0 -0.89740937397E+02 -0.46364840151E+02  0.17600984805E+03  0.21705206946E+03  0.77000000000E+02 0.  0.
<mgrwt>
<rscale>  0 0.25687691E+03</rscale>
<asrwt>0</asrwt>
<pdfrwt beam="1">  1        2 0.71025925E-01 0.25687691E+03</pdfrwt>
<pdfrwt beam="2">  1       -2 0.54972631E-02 0.25687691E+03</pdfrwt>
<totfact> 0.11413559E+04</totfact>
</mgrwt>
</event>
<event>
 4    1  0.6086918E-004  0.2216954E+03  0.7818608E-02  0.1132625E+00
          2   -1    0    0  501    0  0.00000000000E+00  0.00000000000E+00  0.27291404045E+04  0.27291404045E+04  0.25500000000E-02 0.  1.
         -2   -1    0    0    0  501 -0.00000000000E+00 -0.00000000000E+00 -0.45022278135E+01  0.45022285357E+01  0.25500000000E-02 0. -1.
    5000001    1    1    2    0    0 -0.29844505168E+02 -0.70453600474E+02  0.16390883183E+04  0.16426788850E+04  0.77000000000E+02 0.  0.
   -5000001    1    1    2    0    0  0.29844505168E+02  0.70453600474E+02  0.10855498585E+04  0.10909637480E+04  0.77000000000E+02 0.  0.
<mgrwt>
<rscale>  0 0.22169540E+03</rscale>
<asrwt>0</asrwt>
<pdfrwt beam="1">  1        2 0.41986821E+00 0.22169540E+03</pdfrwt>
<pdfrwt beam="2">  1       -2 0.69264974E-03 0.22169540E+03</pdfrwt>
<totfact> 0.10838009E+04</totfact>
</mgrwt>
</event>
<event>
 4    1  0.6086918E-004  0.2523352E+03  0.7818608E-02  0.1111838E+00
         -2   -1    0    0    0  501 -0.00000000000E+00  0.00000000000E+00  0.34470472752E+03  0.34470472753E+03  0.25500000000E-02 0. -1.
          2   -1    0    0  501    0  0.00000000000E+00 -0.00000000000E+00 -0.46179434865E+02  0.46179434935E+02  0.25500000000E-02 0.  1.
    5000001    1    1    2    0    0 -0.16991795867E+02 -0.98350631179E+02  0.14110952816E+03  0.18921539768E+03  0.77000000000E+02 0.  0.
   -5000001    1    1    2    0    0  0.16991795867E+02  0.98350631179E+02  0.15741576449E+03  0.20166876479E+03  0.77000000000E+02 0.  0.
<mgrwt>
<rscale>  0 0.25233525E+03</rscale>
<asrwt>0</asrwt>
<pdfrwt beam="1">  1        2 0.71045284E-02 0.25233525E+03</pdfrwt>
<pdfrwt beam="2">  1       -2 0.53031497E-01 0.25233525E+03</pdfrwt>
<totfact> 0.33516944E+03</totfact>
</mgrwt>
</event>
<event>
 4    1  0.6086918E-004  0.4529531E+03  0.7818608E-02  0.1026845E+00
          2   -1    0    0  501    0  0.00000000000E+00  0.00000000000E+00  0.12534634854E+03  0.12534634856E+03  0.25500000000E-02 0.  1.
         -2   -1    0    0    0  501 -0.00000000000E+00 -0.00000000000E+00 -0.40919914890E+03  0.40919914890E+03  0.25500000000E-02 0. -1.
    5000001    1    1    2    0    0  0.44220468300E+02  0.20816242960E+03 -0.13166722130E+03  0.26182494931E+03  0.77000000000E+02 0.  0.
   -5000001    1    1    2    0    0 -0.44220468300E+02 -0.20816242960E+03 -0.15218557906E+03  0.27272054816E+03  0.77000000000E+02 0.  0.
<mgrwt>
<rscale>  0 0.45295306E+03</rscale>
<asrwt>0</asrwt>
<pdfrwt beam="1">  1        2 0.19284054E-01 0.45295306E+03</pdfrwt>
<pdfrwt beam="2">  1       -2 0.62953715E-01 0.45295306E+03</pdfrwt>
<totfact> 0.69722558E+02</totfact>
</mgrwt>
</event>
<event>
 4    1  0.6086918E-004  0.4056961E+03  0.7818608E-02  0.1041825E+00
         -2   -1    0    0    0  501 -0.00000000000E+00  0.00000000000E+00  0.28957465372E+02  0.28957465485E+02  0.25500000000E-02 0. -1.
          2   -1    0    0  501    0  0.00000000000E+00 -0.00000000000E+00 -0.14209574104E+04  0.14209574104E+04  0.25500000000E-02 0.  1.
    5000001    1    1    2    0    0  0.13472608092E+03  0.14719159237E+02 -0.11599260716E+04  0.11703526230E+04  0.77000000000E+02 0.  0.
   -5000001    1    1    2    0    0 -0.13472608092E+03 -0.14719159237E+02 -0.23207387346E+03  0.27956225294E+03  0.77000000000E+02 0.  0.
<mgrwt>
<rscale>  0 0.40569607E+03</rscale>
<asrwt>0</asrwt>
<pdfrwt beam="1">  1        2 0.21860878E+00 0.40569607E+03</pdfrwt>
<pdfrwt beam="2">  1       -2 0.44549958E-02 0.40569607E+03</pdfrwt>
<totfact> 0.35194531E+03</totfact>
</mgrwt>
</event>
<event>
 4    1  0.6086918E-004  0.2387943E+03  0.7818608E-02  0.1120599E+00
         -2   -1    0    0    0  501 -0.00000000000E+00  0.00000000000E+00  0.62094563725E+02  0.62094563778E+02  0.25500000000E-02 0. -1.
          2   -1    0    0  501    0  0.00000000000E+00 -0.00000000000E+00 -0.22958024118E+03  0.22958024119E+03  0.25500000000E-02 0.  1.
    5000001    1    1    2    0    0  0.68832485322E+00 -0.91223297993E+02 -0.81145707194E+02  0.14434607609E+03  0.77000000000E+02 0.  0.
   -5000001    1    1    2    0    0 -0.68832485322E+00  0.91223297993E+02 -0.86339970257E+02  0.14732872887E+03  0.77000000000E+02 0.  0.
<mgrwt>
<rscale>  0 0.23879435E+03</rscale>
<asrwt>0</asrwt>
<pdfrwt beam="1">  1        2 0.35320037E-01 0.23879435E+03</pdfrwt>
<pdfrwt beam="2">  1       -2 0.95530100E-02 0.23879435E+03</pdfrwt>
<totfact> 0.10268561E+04</totfact>
</mgrwt>
</event>
<event>
 4    1  0.6086918E-004  0.3703570E+03  0.7818608E-02  0.1054557E+00
          2   -1    0    0  501    0  0.00000000000E+00  0.00000000000E+00  0.86333428182E+02  0.86333428220E+02  0.25500000000E-02 0.  1.
         -2   -1    0    0    0  501 -0.00000000000E+00 -0.00000000000E+00 -0.39719347498E+03  0.39719347499E+03  0.25500000000E-02 0. -1.
    5000001    1    1    2    0    0  0.16628081261E+03  0.24033372821E+02 -0.14025153441E+03  0.23200518217E+03  0.77000000000E+02 0.  0.
   -5000001    1    1    2    0    0 -0.16628081261E+03 -0.24033372821E+02 -0.17060851240E+03  0.25152172104E+03  0.77000000000E+02 0.  0.
<mgrwt>
<rscale>  0 0.37035699E+03</rscale>
<asrwt>0</asrwt>
<pdfrwt beam="1">  1        2 0.13282066E-01 0.37035699E+03</pdfrwt>
<pdfrwt beam="2">  1       -2 0.61106687E-01 0.37035699E+03</pdfrwt>
<totfact> 0.11559845E+03</totfact>
</mgrwt>
</event>
<event>
 4    1  0.6086918E-004  0.2166223E+03  0.7818608E-02  0.1136427E+00
          2   -1    0    0  501    0  0.00000000000E+00  0.00000000000E+00  0.26859352185E+03  0.26859352186E+03  0.25500000000E-02 0.  1.
         -2   -1    0    0    0  501 -0.00000000000E+00 -0.00000000000E+00 -0.43676790172E+02  0.43676790246E+02  0.25500000000E-02 0. -1.
    5000001    1    1    2    0    0 -0.32507015778E+02  0.64728431221E+02  0.14644415877E+03  0.18061386303E+03  0.77000000000E+02 0.  0.
   -5000001    1    1    2    0    0  0.32507015778E+02 -0.64728431221E+02  0.78472572908E+02  0.13165644907E+03  0.77000000000E+02 0.  0.
<mgrwt>
<rscale>  0 0.21662228E+03</rscale>
<asrwt>0</asrwt>
<pdfrwt beam="1">  1        2 0.41322080E-01 0.21662228E+03</pdfrwt>
<pdfrwt beam="2">  1       -2 0.67195063E-02 0.21662228E+03</pdfrwt>
<totfact> 0.14920232E+04</totfact>
</mgrwt>
</event>
<event>
 4    1  0.6086918E-004  0.2352130E+03  0.7818608E-02  0.1123023E+00
          2   -1    0    0  501    0  0.00000000000E+00  0.00000000000E+00  0.22190444641E+03  0.22190444642E+03  0.25500000000E-02 0.  1.
         -2   -1    0    0    0  501 -0.00000000000E+00 -0.00000000000E+00 -0.62329937637E+02  0.62329937689E+02  0.25500000000E-02 0. -1.
    5000001    1    1    2    0    0  0.40273428760E+02  0.79223729518E+02  0.77388035482E+02  0.14077022561E+03  0.77000000000E+02 0.  0.
   -5000001    1    1    2    0    0 -0.40273428760E+02 -0.79223729518E+02  0.82186473290E+02  0.14346415850E+03  0.77000000000E+02 0.  0.
<mgrwt>
<rscale>  0 0.23521301E+03</rscale>
<asrwt>0</asrwt>
<pdfrwt beam="1">  1        2 0.34139145E-01 0.23521301E+03</pdfrwt>
<pdfrwt beam="2">  1       -2 0.95892213E-02 0.23521301E+03</pdfrwt>
<totfact> 0.10582309E+04</totfact>
</mgrwt>
</event>
<event>
 4    1  0.6086918E-004  0.1859740E+03  0.7818608E-02  0.1162143E+00
          2   -1    0    0  501    0  0.00000000000E+00  0.00000000000E+00  0.42928970713E+02  0.42928970789E+02  0.25500000000E-02 0.  1.
         -2   -1    0    0    0  501 -0.00000000000E+00 -0.00000000000E+00 -0.20141601339E+03  0.20141601341E+03  0.25500000000E-02 0. -1.
    5000001    1    1    2    0    0  0.30109500850E+02  0.39575284212E+02 -0.99800260854E+02  0.13550600440E+03  0.77000000000E+02 0.  0.
   -5000001    1    1    2    0    0 -0.30109500850E+02 -0.39575284212E+02 -0.58686781822E+02  0.10883897979E+03  0.77000000000E+02 0.  0.
<mgrwt>
<rscale>  0 0.18597400E+03</rscale>
<asrwt>0</asrwt>
<pdfrwt beam="1">  1        2 0.66044572E-02 0.18597400E+03</pdfrwt>
<pdfrwt beam="2">  1       -2 0.30987078E-01 0.18597400E+03</pdfrwt>
<totfact> 0.10110009E+04</totfact>
</mgrwt>
</event>
<event>
 4    1  0.6086918E-004  0.2253166E+03  0.7818608E-02  0.1129980E+00
          2   -1    0    0  501    0  0.00000000000E+00  0.00000000000E+00  0.11025038604E+03  0.11025038607E+03  0.25500000000E-02 0.  1.
         -2   -1    0    0    0  501 -0.00000000000E+00 -0.00000000000E+00 -0.11511879019E+03  0.11511879022E+03  0.25500000000E-02 0. -1.
    5000001    1    1    2    0    0 -0.72990457367E+02  0.26859155967E+02  0.24290378682E+02  0.11210728621E+03  0.77000000000E+02 0.  0.
   -5000001    1    1    2    0    0  0.72990457367E+02 -0.26859155967E+02 -0.29158782837E+02  0.11326189007E+03  0.77000000000E+02 0.  0.
<mgrwt>
<rscale>  0 0.22531659E+03</rscale>
<asrwt>0</asrwt>
<pdfrwt beam="1">  1        2 0.16961598E-01 0.22531659E+03</pdfrwt>
<pdfrwt beam="2">  1       -2 0.17710583E-01 0.22531659E+03</pdfrwt>
<totfact> 0.85256163E+03</totfact>
</mgrwt>
</event>
<event>
 4    1  0.6086918E-004  0.5161204E+03  0.7818608E-02  0.1009655E+00
         -2   -1    0    0    0  501 -0.00000000000E+00  0.00000000000E+00  0.27651946637E+03  0.27651946638E+03  0.25500000000E-02 0. -1.
          2   -1    0    0  501    0  0.00000000000E+00 -0.00000000000E+00 -0.24083322740E+03  0.24083322741E+03  0.25500000000E-02 0.  1.
    5000001    1    1    2    0    0 -0.16727758613E+02  0.24545310324E+03  0.29662443186E+02  0.25949162671E+03  0.77000000000E+02 0.  0.
   -5000001    1    1    2    0    0  0.16727758613E+02 -0.24545310324E+03  0.60237957829E+01  0.25786106708E+03  0.77000000000E+02 0.  0.
<mgrwt>
<rscale>  0 0.51612043E+03</rscale>
<asrwt>0</asrwt>
<pdfrwt beam="1">  1        2 0.37051266E-01 0.51612043E+03</pdfrwt>
<pdfrwt beam="2">  1       -2 0.42541456E-01 0.51612043E+03</pdfrwt>
<totfact> 0.73863516E+02</totfact>
</mgrwt>
</event>
<event>
 4    1  0.6086918E-004  0.3107835E+03  0.7818608E-02  0.1079971E+00
         -2   -1    0    0    0  501 -0.00000000000E+00  0.00000000000E+00  0.15267930024E+02  0.15267930237E+02  0.25500000000E-02 0. -1.
          2   -1    0    0  501    0  0.00000000000E+00 -0.00000000000E+00 -0.15815241229E+04  0.15815241229E+04  0.25500000000E-02 0.  1.
    5000001    1    1    2    0    0  0.13436420410E+03 -0.27553790146E+01 -0.71889987541E+03  0.73539605813E+03  0.77000000000E+02 0.  0.
   -5000001    1    1    2    0    0 -0.13436420410E+03  0.27553790146E+01 -0.84735631745E+03  0.86139599499E+03  0.77000000000E+02 0.  0.
<mgrwt>
<rscale>  0 0.31078352E+03</rscale>
<asrwt>0</asrwt>
<pdfrwt beam="1">  1        2 0.24331127E+00 0.31078352E+03</pdfrwt>
<pdfrwt beam="2">  1       -2 0.23489136E-02 0.31078352E+03</pdfrwt>
<totfact> 0.75381129E+03</totfact>
</mgrwt>
</event>
<event>
 4    1  0.6086918E-004  0.4311759E+03  0.7818608E-02  0.1033489E+00
         -2   -1    0    0    0  501 -0.00000000000E+00  0.00000000000E+00  0.65694218288E+02  0.65694218337E+02  0.25500000000E-02 0. -1.
          2   -1    0    0  501    0  0.00000000000E+00 -0.00000000000E+00 -0.70749251858E+03  0.70749251859E+03  0.25500000000E-02 0.  1.
    5000001    1    1    2    0    0  0.19242215594E+03 -0.14738408184E+02 -0.21779905419E+03  0.30101318041E+03  0.77000000000E+02 0.  0.
   -5000001    1    1    2    0    0 -0.19242215594E+03  0.14738408184E+02 -0.42399924610E+03  0.47217355651E+03  0.77000000000E+02 0.  0.
<mgrwt>
<rscale>  0 0.43117592E+03</rscale>
<asrwt>0</asrwt>
<pdfrwt beam="1">  1        2 0.10884500E+00 0.43117592E+03</pdfrwt>
<pdfrwt beam="2">  1       -2 0.10106803E-01 0.43117592E+03</pdfrwt>
<totfact> 0.27147862E+03</totfact>
</mgrwt>
</event>
<event>
 4    1  0.6086918E-004  0.2840005E+03  0.7818608E-02  0.1093524E+00
         -2   -1    0    0    0  501 -0.00000000000E+00  0.00000000000E+00  0.15862227663E+02  0.15862227868E+02  0.25500000000E-02 0. -1.
          2   -1    0    0  501    0  0.00000000000E+00 -0.00000000000E+00 -0.12712001041E+04  0.12712001041E+04  0.25500000000E-02 0.  1.
    5000001    1    1    2    0    0  0.10349828464E+03  0.12651740630E+02 -0.89048426624E+03  0.89986842920E+03  0.77000000000E+02 0.  0.
   -5000001    1    1    2    0    0 -0.10349828464E+03 -0.12651740630E+02 -0.36485361023E+03  0.38719390279E+03  0.77000000000E+02 0.  0.
<mgrwt>
<rscale>  0 0.28400046E+03</rscale>
<asrwt>0</asrwt>
<pdfrwt beam="1">  1        2 0.19556917E+00 0.28400046E+03</pdfrwt>
<pdfrwt beam="2">  1       -2 0.24403437E-02 0.28400046E+03</pdfrwt>
<totfact> 0.10489435E+04</totfact>
</mgrwt>
</event>
<event>
 4    1  0.6086918E-004  0.1918970E+03  0.7818608E-02  0.1156761E+00
         -2   -1    0    0    0  501 -0.00000000000E+00  0.00000000000E+00  0.61409292879E+03  0.61409292880E+03  0.25500000000E-02 0. -1.
          2   -1    0    0  501    0  0.00000000000E+00 -0.00000000000E+00 -0.14991402520E+02  0.14991402736E+02  0.25500000000E-02 0.  1.
    5000001    1    1    2    0    0  0.35464133901E+02  0.43771368770E+02  0.26620334207E+03  0.28278411703E+03  0.77000000000E+02 0.  0.
   -5000001    1    1    2    0    0 -0.35464133901E+02 -0.43771368770E+02  0.33289818421E+03  0.34630021451E+03  0.77000000000E+02 0.  0.
<mgrwt>
<rscale>  0 0.19189700E+03</rscale>
<asrwt>0</asrwt>
<pdfrwt beam="1">  1        2 0.23063693E-02 0.19189700E+03</pdfrwt>
<pdfrwt beam="2">  1       -2 0.94475850E-01 0.19189700E+03</pdfrwt>
<totfact> 0.42887036E+03</totfact>
</mgrwt>
</event>
<event>
 4    1  0.6086918E-004  0.2040262E+03  0.7818608E-02  0.1146386E+00
          2   -1    0    0  501    0  0.00000000000E+00  0.00000000000E+00  0.30911657670E+03  0.30911657671E+03  0.25500000000E-02 0.  1.
         -2   -1    0    0    0  501 -0.00000000000E+00 -0.00000000000E+00 -0.33665857113E+02  0.33665857209E+02  0.25500000000E-02 0. -1.
    5000001    1    1    2    0    0 -0.35059532742E+02  0.55054670060E+02  0.11294833148E+03  0.15148106521E+03  0.77000000000E+02 0.  0.
   -5000001    1    1    2    0    0  0.35059532742E+02 -0.55054670060E+02  0.16250238810E+03  0.19130136871E+03  0.77000000000E+02 0.  0.
<mgrwt>
<rscale>  0 0.20402622E+03</rscale>
<asrwt>0</asrwt>
<pdfrwt beam="1">  1        2 0.47556395E-01 0.20402622E+03</pdfrwt>
<pdfrwt beam="2">  1       -2 0.51793628E-02 0.20402622E+03</pdfrwt>
<totfact> 0.19024588E+04</totfact>
</mgrwt>
</event>
<event>
 4    1  0.6086918E-004  0.2177119E+03  0.7818608E-02  0.1135600E+00
         -2   -1    0    0    0  501 -0.00000000000E+00  0.00000000000E+00  0.39941973895E+01  0.39941982035E+01  0.25500000000E-02 0. -1.
          2   -1    0    0  501    0  0.00000000000E+00 -0.00000000000E+00 -0.29667086173E+04  0.29667086173E+04  0.25500000000E-02 0.  1.
    5000001    1    1    2    0    0 -0.48402545784E+02 -0.59721931042E+02 -0.14358849212E+04  0.14400013967E+04  0.77000000000E+02 0.  0.
   -5000001    1    1    2    0    0  0.48402545784E+02  0.59721931042E+02 -0.15268294987E+04  0.15307014188E+04  0.77000000000E+02 0.  0.
<mgrwt>
<rscale>  0 0.21771193E+03</rscale>
<asrwt>0</asrwt>
<pdfrwt beam="1">  1        2 0.45641495E+00 0.21771193E+03</pdfrwt>
<pdfrwt beam="2">  1       -2 0.61449434E-03 0.21771193E+03</pdfrwt>
<totfact> 0.94094633E+03</totfact>
</mgrwt>
</event>
<event>
 4    1  0.6086918E-004  0.2794920E+03  0.7818608E-02  0.1095967E+00
         -2   -1    0    0    0  501 -0.00000000000E+00  0.00000000000E+00  0.16084879024E+02  0.16084879226E+02  0.25500000000E-02 0. -1.
          2   -1    0    0  501    0  0.00000000000E+00 -0.00000000000E+00 -0.12141183548E+04  0.12141183548E+04  0.25500000000E-02 0.  1.
    5000001    1    1    2    0    0 -0.79303877182E+02 -0.68550734812E+02 -0.82395535042E+03  0.83415809512E+03  0.77000000000E+02 0.  0.
   -5000001    1    1    2    0    0  0.79303877182E+02  0.68550734812E+02 -0.37407812538E+03  0.39604513893E+03  0.77000000000E+02 0.  0.
<mgrwt>
<rscale>  0 0.27949202E+03</rscale>
<asrwt>0</asrwt>
<pdfrwt beam="1">  1        2 0.18678737E+00 0.27949202E+03</pdfrwt>
<pdfrwt beam="2">  1       -2 0.24745977E-02 0.27949202E+03</pdfrwt>
<totfact> 0.11058991E+04</totfact>
</mgrwt>
</event>
<event>
 4    1  0.6086918E-004  0.2666967E+03  0.7818608E-02  0.1103185E+00
         -2   -1    0    0    0  501 -0.00000000000E+00  0.00000000000E+00  0.80919680714E+01  0.80919684732E+01  0.25500000000E-02 0. -1.
          2   -1    0    0  501    0  0.00000000000E+00 -0.00000000000E+00 -0.21974610172E+04  0.21974610172E+04  0.25500000000E-02 0.  1.
    5000001    1    1    2    0    0  0.67815874587E+02  0.78262984889E+02 -0.13725205422E+04  0.13785738016E+04  0.77000000000E+02 0.  0.
   -5000001    1    1    2    0    0 -0.67815874587E+02 -0.78262984889E+02 -0.81684850693E+03  0.82697918410E+03  0.77000000000E+02 0.  0.
<mgrwt>
<rscale>  0 0.26669672E+03</rscale>
<asrwt>0</asrwt>
<pdfrwt beam="1">  1        2 0.33807045E+00 0.26669672E+03</pdfrwt>
<pdfrwt beam="2">  1       -2 0.12449199E-02 0.26669672E+03</pdfrwt>
<totfact> 0.90474634E+03</totfact>
</mgrwt>
</event>
<event>
 4    1  0.6086918E-004  0.2693386E+03  0.7818608E-02  0.1101659E+00
         -2   -1    0    0    0  501 -0.00000000000E+00  0.00000000000E+00  0.95052685419E+02  0.95052685454E+02  0.25500000000E-02 0. -1.
          2   -1    0    0  501    0  0.00000000000E+00 -0.00000000000E+00 -0.19079762249E+03  0.19079762251E+03  0.25500000000E-02 0.  1.
    5000001    1    1    2    0    0 -0.41183008605E+02  0.93933925023E+02 -0.91466173714E+02  0.15752677043E+03  0.77000000000E+02 0.  0.
   -5000001    1    1    2    0    0  0.41183008605E+02 -0.93933925023E+02 -0.42787633542E+01  0.12832353753E+03  0.77000000000E+02 0.  0.
<mgrwt>
<rscale>  0 0.26933864E+03</rscale>
<asrwt>0</asrwt>
<pdfrwt beam="1">  1        2 0.29353480E-01 0.26933864E+03</pdfrwt>
<pdfrwt beam="2">  1       -2 0.14623490E-01 0.26933864E+03</pdfrwt>
<totfact> 0.63596108E+03</totfact>
</mgrwt>
</event>
<event>
 4    1  0.6086918E-004  0.2292654E+03  0.7818608E-02  0.1127158E+00
          2   -1    0    0  501    0  0.00000000000E+00  0.00000000000E+00  0.34376821152E+03  0.34376821153E+03  0.25500000000E-02 0.  1.
         -2   -1    0    0    0  501 -0.00000000000E+00 -0.00000000000E+00 -0.38225341799E+02  0.38225341884E+02  0.25500000000E-02 0. -1.
    5000001    1    1    2    0    0 -0.32107582201E+02 -0.10939517386E+02  0.23055667382E+02  0.87241811501E+02  0.77000000000E+02 0.  0.
   -5000001    1    1    2    0    0  0.32107582201E+02  0.10939517386E+02  0.28248720234E+03  0.29475174192E+03  0.77000000000E+02 0.  0.
<mgrwt>
<rscale>  0 0.22926541E+03</rscale>
<asrwt>0</asrwt>
<pdfrwt beam="1">  1        2 0.52887414E-01 0.22926541E+03</pdfrwt>
<pdfrwt beam="2">  1       -2 0.58808221E-02 0.22926541E+03</pdfrwt>
<totfact> 0.14099940E+04</totfact>
</mgrwt>
</event>
<event>
 4    1  0.6086918E-004  0.5585633E+03  0.7818608E-02  0.9995311E-01
          2   -1    0    0  501    0  0.00000000000E+00  0.00000000000E+00  0.27435524124E+04  0.27435524124E+04  0.25500000000E-02 0.  1.
         -2   -1    0    0    0  501 -0.00000000000E+00 -0.00000000000E+00 -0.28429652625E+02  0.28429652739E+02  0.25500000000E-02 0. -1.
    5000001    1    1    2    0    0 -0.11009666248E+03 -0.24107121724E+03  0.11451117200E+04  0.11778991714E+04  0.77000000000E+02 0.  0.
   -5000001    1    1    2    0    0  0.11009666248E+03  0.24107121724E+03  0.15700110398E+04  0.15940828937E+04  0.77000000000E+02 0.  0.
<mgrwt>
<rscale>  0 0.55856331E+03</rscale>
<asrwt>0</asrwt>
<pdfrwt beam="1">  1        2 0.42208520E+00 0.55856331E+03</pdfrwt>
<pdfrwt beam="2">  1       -2 0.43737905E-02 0.55856331E+03</pdfrwt>
<totfact> 0.67662229E+02</totfact>
</mgrwt>
</event>
<event>
 4    1  0.6086918E-004  0.5108878E+03  0.7818608E-02  0.1010975E+00
          2   -1    0    0  501    0  0.00000000000E+00  0.00000000000E+00  0.13994269521E+03  0.13994269524E+03  0.25500000000E-02 0.  1.
         -2   -1    0    0    0  501 -0.00000000000E+00 -0.00000000000E+00 -0.46627353562E+03  0.46627353562E+03  0.25500000000E-02 0. -1.
    5000001    1    1    2    0    0  0.14843336824E+03  0.83645247616E+02  0.43361840929E+02  0.19193290886E+03  0.77000000000E+02 0.  0.
   -5000001    1    1    2    0    0 -0.14843336824E+03 -0.83645247616E+02 -0.36969268133E+03  0.41428332200E+03  0.77000000000E+02 0.  0.
<mgrwt>
<rscale>  0 0.51088776E+03</rscale>
<asrwt>0</asrwt>
<pdfrwt beam="1">  1        2 0.21529646E-01 0.51088776E+03</pdfrwt>
<pdfrwt beam="2">  1       -2 0.71734389E-01 0.51088776E+03</pdfrwt>
<totfact> 0.46333561E+02</totfact>
</mgrwt>
</event>
<event>
 4    1  0.6086918E-004  0.2227965E+03  0.7818608E-02  0.1131815E+00
         -2   -1    0    0    0  501 -0.00000000000E+00  0.00000000000E+00  0.11157362029E+02  0.11157362321E+02  0.25500000000E-02 0. -1.
          2   -1    0    0  501    0  0.00000000000E+00 -0.00000000000E+00 -0.11122316149E+04  0.11122316149E+04  0.25500000000E-02 0.  1.
    5000001    1    1    2    0    0 -0.72489968530E+02  0.14483705955E+02 -0.38981778770E+03  0.40416763958E+03  0.77000000000E+02 0.  0.
   -5000001    1    1    2    0    0  0.72489968530E+02 -0.14483705955E+02 -0.71125646515E+03  0.71922133762E+03  0.77000000000E+02 0.  0.
<mgrwt>
<rscale>  0 0.22279651E+03</rscale>
<asrwt>0</asrwt>
<pdfrwt beam="1">  1        2 0.17111247E+00 0.22279651E+03</pdfrwt>
<pdfrwt beam="2">  1       -2 0.17165181E-02 0.22279651E+03</pdfrwt>
<totfact> 0.21467960E+04</totfact>
</mgrwt>
</event>
<event>
 4    1  0.6086918E-004  0.2270272E+03  0.7818608E-02  0.1128750E+00
         -2   -1    0    0    0  501 -0.00000000000E+00  0.00000000000E+00  0.12779987882E+02  0.12779988137E+02  0.25500000000E-02 0. -1.
          2   -1    0    0  501    0  0.00000000000E+00 -0.00000000000E+00 -0.10082434335E+04  0.10082434335E+04  0.25500000000E-02 0.  1.
    5000001    1    1    2    0    0  0.19863180963E+02 -0.63023736115E+02 -0.72660286781E+03  0.73365336828E+03  0.77000000000E+02 0.  0.
   -5000001    1    1    2    0    0 -0.19863180963E+02  0.63023736115E+02 -0.26886057781E+03  0.28737005336E+03  0.77000000000E+02 0.  0.
<mgrwt>
<rscale>  0 0.22702721E+03</rscale>
<asrwt>0</asrwt>
<pdfrwt beam="1">  1        2 0.15511431E+00 0.22702721E+03</pdfrwt>
<pdfrwt beam="2">  1       -2 0.19661528E-02 0.22702721E+03</pdfrwt>
<totfact> 0.20306194E+04</totfact>
</mgrwt>
</event>
<event>
 4    1  0.6086918E-004  0.1861989E+03  0.7818608E-02  0.1161935E+00
         -2   -1    0    0    0  501 -0.00000000000E+00  0.00000000000E+00  0.17794088006E+02  0.17794088188E+02  0.25500000000E-02 0. -1.
          2   -1    0    0  501    0  0.00000000000E+00 -0.00000000000E+00 -0.48710062642E+03  0.48710062643E+03  0.25500000000E-02 0.  1.
    5000001    1    1    2    0    0 -0.43188387583E+02 -0.28104472718E+02 -0.20988810875E+03  0.22942780216E+03  0.77000000000E+02 0.  0.
   -5000001    1    1    2    0    0  0.43188387583E+02  0.28104472718E+02 -0.25941842967E+03  0.27546691246E+03  0.77000000000E+02 0.  0.
<mgrwt>
<rscale>  0 0.18619894E+03</rscale>
<asrwt>0</asrwt>
<pdfrwt beam="1">  1        2 0.74938548E-01 0.18619894E+03</pdfrwt>
<pdfrwt beam="2">  1       -2 0.27375524E-02 0.18619894E+03</pdfrwt>
<totfact> 0.29946923E+04</totfact>
</mgrwt>
</event>
<event>
 4    1  0.6086918E-004  0.3016612E+03  0.7818608E-02  0.1084413E+00
          2   -1    0    0  501    0  0.00000000000E+00  0.00000000000E+00  0.33832028661E+04  0.33832028661E+04  0.25500000000E-02 0.  1.
         -2   -1    0    0    0  501 -0.00000000000E+00 -0.00000000000E+00 -0.67243601218E+01  0.67243606053E+01  0.25500000000E-02 0. -1.
    5000001    1    1    2    0    0  0.34966686076E+02 -0.12481736378E+03  0.16394732634E+04  0.16463910911E+04  0.77000000000E+02 0.  0.
   -5000001    1    1    2    0    0 -0.34966686076E+02  0.12481736378E+03  0.17370052426E+04  0.17435361356E+04  0.77000000000E+02 0.  0.
<mgrwt>
<rscale>  0 0.30166124E+03</rscale>
<asrwt>0</asrwt>
<pdfrwt beam="1">  1        2 0.52049223E+00 0.30166124E+03</pdfrwt>
<pdfrwt beam="2">  1       -2 0.10345180E-02 0.30166124E+03</pdfrwt>
<totfact> 0.24448204E+03</totfact>
</mgrwt>
</event>
<event>
 4    1  0.6086918E-004  0.2924316E+03  0.7818608E-02  0.1089086E+00
         -2   -1    0    0    0  501 -0.00000000000E+00  0.00000000000E+00  0.35312473917E+02  0.35312474009E+02  0.25500000000E-02 0. -1.
          2   -1    0    0  501    0  0.00000000000E+00 -0.00000000000E+00 -0.60542509922E+03  0.60542509923E+03  0.25500000000E-02 0.  1.
    5000001    1    1    2    0    0  0.83635458884E+02  0.42832952485E+01 -0.83801932030E+02  0.14129755983E+03  0.77000000000E+02 0.  0.
   -5000001    1    1    2    0    0 -0.83635458884E+02 -0.42832952485E+01 -0.48631069328E+03  0.49944001341E+03  0.77000000000E+02 0.  0.
<mgrwt>
<rscale>  0 0.29243159E+03</rscale>
<asrwt>0</asrwt>
<pdfrwt beam="1">  1        2 0.93142315E-01 0.29243159E+03</pdfrwt>
<pdfrwt beam="2">  1       -2 0.54326888E-02 0.29243159E+03</pdfrwt>
<totfact> 0.85937886E+03</totfact>
</mgrwt>
</event>
<event>
 4    1  0.6086918E-004  0.2058090E+03  0.7818608E-02  0.1144928E+00
          2   -1    0    0  501    0  0.00000000000E+00  0.00000000000E+00  0.30067421947E+04  0.30067421947E+04  0.25500000000E-02 0.  1.
         -2   -1    0    0    0  501 -0.00000000000E+00 -0.00000000000E+00 -0.35218630410E+01  0.35218639642E+01  0.25500000000E-02 0. -1.
    5000001    1    1    2    0    0  0.66937739725E+02 -0.12676681190E+02  0.15653258922E+04  0.15686986671E+04  0.77000000000E+02 0.  0.
   -5000001    1    1    2    0    0 -0.66937739725E+02  0.12676681190E+02  0.14378944394E+04  0.14415653916E+04  0.77000000000E+02 0.  0.
<mgrwt>
<rscale>  0 0.20580899E+03</rscale>
<asrwt>0</asrwt>
<pdfrwt beam="1">  1        2 0.46257530E+00 0.20580899E+03</pdfrwt>
<pdfrwt beam="2">  1       -2 0.54182565E-03 0.20580899E+03</pdfrwt>
<totfact> 0.10674127E+04</totfact>
</mgrwt>
</event>
<event>
 4    1  0.6086918E-004  0.3837769E+03  0.7818608E-02  0.1049547E+00
          2   -1    0    0  501    0  0.00000000000E+00  0.00000000000E+00  0.11928827322E+04  0.11928827322E+04  0.25500000000E-02 0.  1.
         -2   -1    0    0    0  501 -0.00000000000E+00 -0.00000000000E+00 -0.30867396011E+02  0.30867396117E+02  0.25500000000E-02 0. -1.
    5000001    1    1    2    0    0  0.16243947800E+03 -0.24722208013E+02  0.77999931146E+03  0.80082813229E+03  0.77000000000E+02 0.  0.
   -5000001    1    1    2    0    0 -0.16243947800E+03  0.24722208013E+02  0.38201602473E+03  0.42292199604E+03  0.77000000000E+02 0.  0.
<mgrwt>
<rscale>  0 0.38377693E+03</rscale>
<asrwt>0</asrwt>
<pdfrwt beam="1">  1        2 0.18352044E+00 0.38377693E+03</pdfrwt>
<pdfrwt beam="2">  1       -2 0.47488296E-02 0.38377693E+03</pdfrwt>
<totfact> 0.42883712E+03</totfact>
</mgrwt>
</event>
<event>
 4    1  0.6086918E-004  0.2189298E+03  0.7818608E-02  0.1134683E+00
          2   -1    0    0  501    0  0.00000000000E+00  0.00000000000E+00  0.14014912295E+04  0.14014912295E+04  0.25500000000E-02 0.  1.
         -2   -1    0    0    0  501 -0.00000000000E+00 -0.00000000000E+00 -0.85498669804E+01  0.85498673607E+01  0.25500000000E-02 0. -1.
    5000001    1    1    2    0    0  0.62581651985E+02 -0.31121400301E+02  0.91663769215E+03  0.92251756807E+03  0.77000000000E+02 0.  0.
   -5000001    1    1    2    0    0 -0.62581651985E+02  0.31121400301E+02  0.47630367035E+03  0.48752352878E+03  0.77000000000E+02 0.  0.
<mgrwt>
<rscale>  0 0.21892980E+03</rscale>
<asrwt>0</asrwt>
<pdfrwt beam="1">  1        2 0.21561386E+00 0.21892980E+03</pdfrwt>
<pdfrwt beam="2">  1       -2 0.13153652E-02 0.21892980E+03</pdfrwt>
<totfact> 0.21810389E+04</totfact>
</mgrwt>
</event>
<event>
 4    1  0.6086918E-004  0.2308994E+03  0.7818608E-02  0.1126008E+00
         -2   -1    0    0    0  501 -0.00000000000E+00  0.00000000000E+00  0.59663866799E+02  0.59663866853E+02  0.25500000000E-02 0. -1.
          2   -1    0    0  501    0  0.00000000000E+00 -0.00000000000E+00 -0.22339537831E+03  0.22339537832E+03  0.25500000000E-02 0.  1.
    5000001    1    1    2    0    0  0.46023678847E+02 -0.65710847069E+02 -0.43812755264E+02  0.11951841683E+03  0.77000000000E+02 0.  0.
   -5000001    1    1    2    0    0 -0.46023678847E+02  0.65710847069E+02 -0.11991875624E+03  0.16354082835E+03  0.77000000000E+02 0.  0.
<mgrwt>
<rscale>  0 0.23089939E+03</rscale>
<asrwt>0</asrwt>
<pdfrwt beam="1">  1        2 0.34368519E-01 0.23089939E+03</pdfrwt>
<pdfrwt beam="2">  1       -2 0.91790565E-02 0.23089939E+03</pdfrwt>
<totfact> 0.11244438E+04</totfact>
</mgrwt>
</event>
<event>
 4    1  0.6086918E-004  0.3013507E+03  0.7818608E-02  0.1084567E+00
          2   -1    0    0  501    0  0.00000000000E+00  0.00000000000E+00  0.12188639914E+03  0.12188639916E+03  0.25500000000E-02 0.  1.
         -2   -1    0    0    0  501 -0.00000000000E+00 -0.00000000000E+00 -0.18626410081E+03  0.18626410083E+03  0.25500000000E-02 0. -1.
    5000001    1    1    2    0    0 -0.11440357509E+03 -0.37116003554E+02  0.16939860902E+02  0.14381145504E+03  0.77000000000E+02 0.  0.
   -5000001    1    1    2    0    0  0.11440357509E+03  0.37116003554E+02 -0.81317562577E+02  0.16433904496E+03  0.77000000000E+02 0.  0.
<mgrwt>
<rscale>  0 0.30135070E+03</rscale>
<asrwt>0</asrwt>
<pdfrwt beam="1">  1        2 0.18751754E-01 0.30135070E+03</pdfrwt>
<pdfrwt beam="2">  1       -2 0.28656016E-01 0.30135070E+03</pdfrwt>
<totfact> 0.33240971E+03</totfact>
</mgrwt>
</event>
<event>
 4    1  0.6086918E-004  0.4430413E+03  0.7818608E-02  0.1029818E+00
          2   -1    0    0  501    0  0.00000000000E+00  0.00000000000E+00  0.37199165147E+03  0.37199165148E+03  0.25500000000E-02 0.  1.
         -2   -1    0    0    0  501 -0.00000000000E+00 -0.00000000000E+00 -0.13191530200E+03  0.13191530203E+03  0.25500000000E-02 0. -1.
    5000001    1    1    2    0    0  0.24988727071E+02 -0.17184230658E+03 -0.95842847411E+01  0.19019745878E+03  0.77000000000E+02 0.  0.
   -5000001    1    1    2    0    0 -0.24988727071E+02  0.17184230658E+03  0.24966063420E+03  0.31370949473E+03  0.77000000000E+02 0.  0.
<mgrwt>
<rscale>  0 0.44304127E+03</rscale>
<asrwt>0</asrwt>
<pdfrwt beam="1">  1        2 0.57229484E-01 0.44304127E+03</pdfrwt>
<pdfrwt beam="2">  1       -2 0.20294662E-01 0.44304127E+03</pdfrwt>
<totfact> 0.17838216E+03</totfact>
</mgrwt>
</event>
<event>
 4    1  0.6086918E-004  0.2666475E+03  0.7818608E-02  0.1103214E+00
          2   -1    0    0  501    0  0.00000000000E+00  0.00000000000E+00  0.53515515818E+03  0.53515515819E+03  0.25500000000E-02 0.  1.
         -2   -1    0    0    0  501 -0.00000000000E+00 -0.00000000000E+00 -0.33215092299E+02  0.33215092397E+02  0.25500000000E-02 0. -1.
    5000001    1    1    2    0    0 -0.22675279724E+02  0.10394312761E+03  0.29994383139E+03  0.32743494633E+03  0.77000000000E+02 0.  0.
   -5000001    1    1    2    0    0  0.22675279724E+02 -0.10394312761E+03  0.20199623449E+03  0.24093530426E+03  0.77000000000E+02 0.  0.
<mgrwt>
<rscale>  0 0.26664754E+03</rscale>
<asrwt>0</asrwt>
<pdfrwt beam="1">  1        2 0.82331551E-01 0.26664754E+03</pdfrwt>
<pdfrwt beam="2">  1       -2 0.51100149E-02 0.26664754E+03</pdfrwt>
<totfact> 0.10834086E+04</totfact>
</mgrwt>
</event>
<event>
 4    1  0.6086918E-004  0.4037835E+03  0.7818608E-02  0.1042477E+00
         -2   -1    0    0    0  501 -0.00000000000E+00  0.00000000000E+00  0.18277341758E+03  0.18277341760E+03  0.25500000000E-02 0.  1.
          2   -1    0    0  501    0  0.00000000000E+00 -0.00000000000E+00 -0.22300984259E+03  0.22300984260E+03  0.25500000000E-02 0. -1.
    5000001    1    1    2    0    0  0.45577146005E+02  0.15123111365E+03  0.79788158904E+02  0.19298517112E+03  0.77000000000E+02 0.  0.
   -5000001    1    1    2    0    0 -0.45577146005E+02 -0.15123111365E+03 -0.12002458391E+03  0.21279808908E+03  0.77000000000E+02 0.  0.
<mgrwt>
<rscale>  0 0.40378346E+03</rscale>
<asrwt>0</asrwt>
<pdfrwt beam="1">  1        2 0.34309206E-01 0.40378346E+03</pdfrwt>
<pdfrwt beam="2">  1       -2 0.28118987E-01 0.40378346E+03</pdfrwt>
<totfact> 0.17519612E+03</totfact>
</mgrwt>
</event>
<event>
 4    1  0.6086918E-004  0.3353485E+03  0.7818608E-02  0.1068795E+00
         -2   -1    0    0    0  501 -0.00000000000E+00  0.00000000000E+00  0.80530017716E+02  0.80530017756E+02  0.25500000000E-02 0. -1.
          2   -1    0    0  501    0  0.00000000000E+00 -0.00000000000E+00 -0.34912023233E+03  0.34912023234E+03  0.25500000000E-02 0.  1.
    5000001    1    1    2    0    0  0.84371614594E+02  0.11368163746E+03 -0.19361330595E+03  0.25190711837E+03  0.77000000000E+02 0.  0.
   -5000001    1    1    2    0    0 -0.84371614594E+02 -0.11368163746E+03 -0.74976908666E+02  0.17774313173E+03  0.77000000000E+02 0.  0.
<mgrwt>
<rscale>  0 0.33534853E+03</rscale>
<asrwt>0</asrwt>
<pdfrwt beam="1">  1        2 0.53710804E-01 0.33534853E+03</pdfrwt>
<pdfrwt beam="2">  1       -2 0.12389234E-01 0.33534853E+03</pdfrwt>
<totfact> 0.43583930E+03</totfact>
</mgrwt>
</event>
<event>
 4    1  0.6086918E-004  0.2335556E+03  0.7818608E-02  0.1124162E+00
         -2   -1    0    0    0  501 -0.00000000000E+00  0.00000000000E+00  0.42189361915E+02  0.42189361992E+02  0.25500000000E-02 0. -1.
          2   -1    0    0  501    0  0.00000000000E+00 -0.00000000000E+00 -0.32323445731E+03  0.32323445732E+03  0.25500000000E-02 0.  1.
    5000001    1    1    2    0    0 -0.32042850059E+02 -0.63429237541E+02 -0.59857097467E+02  0.12067263373E+03  0.77000000000E+02 0.  0.
   -5000001    1    1    2    0    0  0.32042850059E+02  0.63429237541E+02 -0.22118799792E+03  0.24475118558E+03  0.77000000000E+02 0.  0.
<mgrwt>
<rscale>  0 0.23355561E+03</rscale>
<asrwt>0</asrwt>
<pdfrwt beam="1">  1        2 0.49728377E-01 0.23355561E+03</pdfrwt>
<pdfrwt beam="2">  1       -2 0.64906713E-02 0.23355561E+03</pdfrwt>
<totfact> 0.12963449E+04</totfact>
</mgrwt>
</event>
<event>
 4    1  0.6086918E-004  0.2109215E+03  0.7818608E-02  0.1140838E+00
         -2   -1    0    0    0  501 -0.00000000000E+00  0.00000000000E+00  0.11141092762E+02  0.11141093054E+02  0.25500000000E-02 0. -1.
          2   -1    0    0  501    0  0.00000000000E+00 -0.00000000000E+00 -0.99828366413E+03  0.99828366414E+03  0.25500000000E-02 0.  1.
    5000001    1    1    2    0    0  0.40074844940E+02 -0.53055680593E+02 -0.62655000626E+03  0.63475570796E+03  0.77000000000E+02 0.  0.
   -5000001    1    1    2    0    0 -0.40074844940E+02  0.53055680593E+02 -0.36059256511E+03  0.37466904923E+03  0.77000000000E+02 0.  0.
<mgrwt>
<rscale>  0 0.21092151E+03</rscale>
<asrwt>0</asrwt>
<pdfrwt beam="1">  1        2 0.15358203E+00 0.21092151E+03</pdfrwt>
<pdfrwt beam="2">  1       -2 0.17140151E-02 0.21092151E+03</pdfrwt>
<totfact> 0.25061366E+04</totfact>
</mgrwt>
</event>
<event>
 4    1  0.6086918E-004  0.3200598E+03  0.7818608E-02  0.1075622E+00
          2   -1    0    0  501    0  0.00000000000E+00  0.00000000000E+00  0.48316142264E+03  0.48316142265E+03  0.25500000000E-02 0.  1.
         -2   -1    0    0    0  501 -0.00000000000E+00 -0.00000000000E+00 -0.53004182610E+02  0.53004182672E+02  0.25500000000E-02 0. -1.
    5000001    1    1    2    0    0 -0.74946698498E+02 -0.11471274454E+03  0.16469548026E+03  0.22766120134E+03  0.77000000000E+02 0.  0.
   -5000001    1    1    2    0    0  0.74946698498E+02  0.11471274454E+03  0.26546175977E+03  0.30850440398E+03  0.77000000000E+02 0.  0.
<mgrwt>
<rscale>  0 0.32005985E+03</rscale>
<asrwt>0</asrwt>
<pdfrwt beam="1">  1        2 0.74332529E-01 0.32005985E+03</pdfrwt>
<pdfrwt beam="2">  1       -2 0.81544893E-02 0.32005985E+03</pdfrwt>
<totfact> 0.59423285E+03</totfact>
</mgrwt>
</event>
<event>
 4    1  0.6086918E-004  0.2433890E+03  0.7818608E-02  0.1117556E+00
          2   -1    0    0  501    0  0.00000000000E+00  0.00000000000E+00  0.86213365765E+03  0.86213365765E+03  0.25500000000E-02 0.  1.
         -2   -1    0    0    0  501 -0.00000000000E+00 -0.00000000000E+00 -0.17177785416E+02  0.17177785606E+02  0.25500000000E-02 0. -1.
    5000001    1    1    2    0    0  0.49430690764E+02  0.80076858280E+02  0.40446806585E+03  0.42234951488E+03  0.77000000000E+02 0.  0.
   -5000001    1    1    2    0    0 -0.49430690764E+02 -0.80076858280E+02  0.44048780638E+03  0.45696192838E+03  0.77000000000E+02 0.  0.
<mgrwt>
<rscale>  0 0.24338896E+03</rscale>
<asrwt>0</asrwt>
<pdfrwt beam="1">  1        2 0.13263594E+00 0.24338896E+03</pdfrwt>
<pdfrwt beam="2">  1       -2 0.26427363E-02 0.24338896E+03</pdfrwt>
<totfact> 0.16301982E+04</totfact>
</mgrwt>
</event>
<event>
 4    1  0.6086918E-004  0.1930936E+03  0.7818608E-02  0.1155700E+00
          2   -1    0    0  501    0  0.00000000000E+00  0.00000000000E+00  0.13097205504E+04  0.13097205504E+04  0.25500000000E-02 0.  1.
         -2   -1    0    0    0  501 -0.00000000000E+00 -0.00000000000E+00 -0.71170007531E+01  0.71170012100E+01  0.25500000000E-02 0. -1.
    5000001    1    1    2    0    0  0.37260209490E+02 -0.16882776791E+02  0.93404591003E+03  0.93810666419E+03  0.77000000000E+02 0.  0.
   -5000001    1    1    2    0    0 -0.37260209490E+02  0.16882776791E+02  0.36855763959E+03  0.37873088739E+03  0.77000000000E+02 0.  0.
<mgrwt>
<rscale>  0 0.19309358E+03</rscale>
<asrwt>0</asrwt>
<pdfrwt beam="1">  1        2 0.20149547E+00 0.19309358E+03</pdfrwt>
<pdfrwt beam="2">  1       -2 0.10949232E-02 0.19309358E+03</pdfrwt>
<totfact> 0.31674247E+04</totfact>
</mgrwt>
</event>
<event>
 4    1  0.6086918E-004  0.2188892E+03  0.7818608E-02  0.1134714E+00
          2   -1    0    0  501    0  0.00000000000E+00  0.00000000000E+00  0.90228579113E+03  0.90228579113E+03  0.25500000000E-02 0.  1.
         -2   -1    0    0    0  501 -0.00000000000E+00 -0.00000000000E+00 -0.13275300765E+02  0.13275301009E+02  0.25500000000E-02 0. -1.
    5000001    1    1    2    0    0 -0.64510859832E+02 -0.36391912436E+02  0.34525006855E+03  0.36140369694E+03  0.77000000000E+02 0.  0.
   -5000001    1    1    2    0    0  0.64510859832E+02  0.36391912436E+02  0.54376042181E+03  0.55415739520E+03  0.77000000000E+02 0.  0.
<mgrwt>
<rscale>  0 0.21888915E+03</rscale>
<asrwt>0</asrwt>
<pdfrwt beam="1">  1        2 0.13881322E+00 0.21888915E+03</pdfrwt>
<pdfrwt beam="2">  1       -2 0.20423536E-02 0.21888915E+03</pdfrwt>
<totfact> 0.22311224E+04</totfact>
</mgrwt>
</event>
<event>
 4    1  0.6086918E-004  0.3045558E+03  0.7818608E-02  0.1082985E+00
         -2   -1    0    0    0  501 -0.00000000000E+00  0.00000000000E+00  0.73376346136E+02  0.73376346181E+02  0.25500000000E-02 0. -1.
          2   -1    0    0  501    0  0.00000000000E+00 -0.00000000000E+00 -0.31602225934E+03  0.31602225935E+03  0.25500000000E-02 0.  1.
    5000001    1    1    2    0    0 -0.94935920274E+02  0.79637243489E+02 -0.17712291518E+03  0.22946992524E+03  0.77000000000E+02 0.  0.
   -5000001    1    1    2    0    0  0.94935920274E+02 -0.79637243489E+02 -0.65522998023E+02  0.15992868029E+03  0.77000000000E+02 0.  0.
<mgrwt>
<rscale>  0 0.30455580E+03</rscale>
<asrwt>0</asrwt>
<pdfrwt beam="1">  1        2 0.48618808E-01 0.30455580E+03</pdfrwt>
<pdfrwt beam="2">  1       -2 0.11288669E-01 0.30455580E+03</pdfrwt>
<totfact> 0.56292004E+03</totfact>
</mgrwt>
</event>
<event>
 4    1  0.6086918E-004  0.1802364E+03  0.7818608E-02  0.1167574E+00
         -2   -1    0    0    0  501 -0.00000000000E+00  0.00000000000E+00  0.54074025216E+01  0.54074031229E+01  0.25500000000E-02 0. -1.
          2   -1    0    0  501    0  0.00000000000E+00 -0.00000000000E+00 -0.15018839715E+04  0.15018839715E+04  0.25500000000E-02 0.  1.
    5000001    1    1    2    0    0  0.13448613996E+01 -0.46760739574E+02 -0.76478789393E+03  0.77007655342E+03  0.77000000000E+02 0.  0.
   -5000001    1    1    2    0    0 -0.13448613996E+01  0.46760739574E+02 -0.73168867504E+03  0.73721482120E+03  0.77000000000E+02 0.  0.
<mgrwt>
<rscale>  0 0.18023642E+03</rscale>
<asrwt>0</asrwt>
<pdfrwt beam="1">  1        2 0.23105874E+00 0.18023642E+03</pdfrwt>
<pdfrwt beam="2">  1       -2 0.83190932E-03 0.18023642E+03</pdfrwt>
<totfact> 0.36947582E+04</totfact>
</mgrwt>
</event>
<event>
 4    1  0.6086918E-004  0.1857238E+03  0.7818608E-02  0.1162376E+00
          2   -1    0    0  501    0  0.00000000000E+00  0.00000000000E+00  0.36966487927E+03  0.36966487928E+03  0.25500000000E-02 0.  1.
         -2   -1    0    0    0  501 -0.00000000000E+00 -0.00000000000E+00 -0.23327443994E+02  0.23327444134E+02  0.25500000000E-02 0. -1.
    5000001    1    1    2    0    0  0.12497676968E+02  0.49058941663E+02  0.14891622315E+03  0.17512285175E+03  0.77000000000E+02 0.  0.
   -5000001    1    1    2    0    0 -0.12497676968E+02 -0.49058941663E+02  0.19742121212E+03  0.21786947166E+03  0.77000000000E+02 0.  0.
<mgrwt>
<rscale>  0 0.18572385E+03</rscale>
<asrwt>0</asrwt>
<pdfrwt beam="1">  1        2 0.56871520E-01 0.18572385E+03</pdfrwt>
<pdfrwt beam="2">  1       -2 0.35888375E-02 0.18572385E+03</pdfrwt>
<totfact> 0.27048166E+04</totfact>
</mgrwt>
</event>
<event>
 4    1  0.6086918E-004  0.3062199E+03  0.7818608E-02  0.1082172E+00
         -2   -1    0    0    0  501 -0.00000000000E+00  0.00000000000E+00  0.25347762979E+02  0.25347763107E+02  0.25500000000E-02 0. -1.
          2   -1    0    0  501    0  0.00000000000E+00 -0.00000000000E+00 -0.92484135856E+03  0.92484135856E+03  0.25500000000E-02 0.  1.
    5000001    1    1    2    0    0 -0.94284362068E+02  0.86568942261E+02 -0.34544213660E+03  0.37635487566E+03  0.77000000000E+02 0.  0.
   -5000001    1    1    2    0    0  0.94284362068E+02 -0.86568942261E+02 -0.55405145899E+03  0.57383424602E+03  0.77000000000E+02 0.  0.
<mgrwt>
<rscale>  0 0.30621992E+03</rscale>
<asrwt>0</asrwt>
<pdfrwt beam="1">  1        2 0.14228326E+00 0.30621992E+03</pdfrwt>
<pdfrwt beam="2">  1       -2 0.38996566E-02 0.30621992E+03</pdfrwt>
<totfact> 0.83725823E+03</totfact>
</mgrwt>
</event>
<event>
 4    1  0.6086918E-004  0.2036419E+03  0.7818608E-02  0.1146702E+00
          2   -1    0    0  501    0  0.00000000000E+00  0.00000000000E+00  0.30407419149E+04  0.30407419149E+04  0.25500000000E-02 0.  1.
         -2   -1    0    0    0  501 -0.00000000000E+00 -0.00000000000E+00 -0.34095326339E+01  0.34095335875E+01  0.25500000000E-02 0. -1.
    5000001    1    1    2    0    0 -0.50887050236E+02  0.41076073688E+02  0.17087977017E+04  0.17117813298E+04  0.77000000000E+02 0.  0.
   -5000001    1    1    2    0    0  0.50887050236E+02 -0.41076073688E+02  0.13285346806E+04  0.13323701187E+04  0.77000000000E+02 0.  0.
<mgrwt>
<rscale>  0 0.20364194E+03</rscale>
<asrwt>0</asrwt>
<pdfrwt beam="1">  1        2 0.46780680E+00 0.20364194E+03</pdfrwt>
<pdfrwt beam="2">  1       -2 0.52454316E-03 0.20364194E+03</pdfrwt>
<totfact> 0.10675538E+04</totfact>
</mgrwt>
</event>
<event>
 4    1  0.6086918E-004  0.3247586E+03  0.7818608E-02  0.1073480E+00
          2   -1    0    0  501    0  0.00000000000E+00  0.00000000000E+00  0.16287599106E+03  0.16287599108E+03  0.25500000000E-02 0.  1.
         -2   -1    0    0    0  501 -0.00000000000E+00 -0.00000000000E+00 -0.16188410104E+03  0.16188410106E+03  0.25500000000E-02 0. -1.
    5000001    1    1    2    0    0 -0.44165279626E+02  0.74978367460E+02 -0.11293167907E+03  0.16203361271E+03  0.77000000000E+02 0.  0.
   -5000001    1    1    2    0    0  0.44165279626E+02 -0.74978367460E+02  0.11392356909E+03  0.16272647943E+03  0.77000000000E+02 0.  0.
<mgrwt>
<rscale>  0 0.32475858E+03</rscale>
<asrwt>0</asrwt>
<pdfrwt beam="1">  1        2 0.25057845E-01 0.32475858E+03</pdfrwt>
<pdfrwt beam="2">  1       -2 0.24905246E-01 0.32475858E+03</pdfrwt>
<totfact> 0.30756930E+03</totfact>
</mgrwt>
</event>
<event>
 4    1  0.6086918E-004  0.2761397E+03  0.7818608E-02  0.1097816E+00
         -2   -1    0    0    0  501 -0.00000000000E+00  0.00000000000E+00  0.72942251761E+02  0.72942251805E+02  0.25500000000E-02 0. -1.
          2   -1    0    0  501    0  0.00000000000E+00 -0.00000000000E+00 -0.26134766140E+03  0.26134766141E+03  0.25500000000E-02 0.  1.
    5000001    1    1    2    0    0  0.10073772672E+03  0.53897380389E+02 -0.10511607250E+03  0.17329571805E+03  0.77000000000E+02 0.  0.
   -5000001    1    1    2    0    0 -0.10073772672E+03 -0.53897380389E+02 -0.83289337141E+02  0.16099419517E+03  0.77000000000E+02 0.  0.
<mgrwt>
<rscale>  0 0.27613972E+03</rscale>
<asrwt>0</asrwt>
<pdfrwt beam="1">  1        2 0.40207332E-01 0.27613972E+03</pdfrwt>
<pdfrwt beam="2">  1       -2 0.11221885E-01 0.27613972E+03</pdfrwt>
<totfact> 0.69521662E+03</totfact>
</mgrwt>
</event>
<event>
 4    1  0.6086918E-004  0.2599751E+03  0.7818608E-02  0.1107158E+00
          2   -1    0    0  501    0  0.00000000000E+00  0.00000000000E+00  0.23194858369E+03  0.23194858371E+03  0.25500000000E-02 0.  1.
         -2   -1    0    0    0  501 -0.00000000000E+00 -0.00000000000E+00 -0.72847001213E+02  0.72847001258E+02  0.25500000000E-02 0. -1.
    5000001    1    1    2    0    0 -0.44102908904E+02  0.86022035645E+02  0.32320234455E+02  0.12774370726E+03  0.77000000000E+02 0.  0.
   -5000001    1    1    2    0    0  0.44102908904E+02 -0.86022035645E+02  0.12678134802E+03  0.17705187770E+03  0.77000000000E+02 0.  0.
<mgrwt>
<rscale>  0 0.25997507E+03</rscale>
<asrwt>0</asrwt>
<pdfrwt beam="1">  1        2 0.35684398E-01 0.25997507E+03</pdfrwt>
<pdfrwt beam="2">  1       -2 0.11207231E-01 0.25997507E+03</pdfrwt>
<totfact> 0.79068884E+03</totfact>
</mgrwt>
</event>
<event>
 4    1  0.6086918E-004  0.2116617E+03  0.7818608E-02  0.1140257E+00
         -2   -1    0    0    0  501 -0.00000000000E+00  0.00000000000E+00  0.24744334404E+03  0.24744334406E+03  0.25500000000E-02 0. -1.
          2   -1    0    0  501    0  0.00000000000E+00 -0.00000000000E+00 -0.45263555753E+02  0.45263555825E+02  0.25500000000E-02 0.  1.
    5000001    1    1    2    0    0  0.33061234879E+02 -0.53948010823E+02  0.51851423846E+02  0.11234323869E+03  0.77000000000E+02 0.  0.
   -5000001    1    1    2    0    0 -0.33061234879E+02  0.53948010823E+02  0.15032836444E+03  0.18036366120E+03  0.77000000000E+02 0.  0.
<mgrwt>
<rscale>  0 0.21166167E+03</rscale>
<asrwt>0</asrwt>
<pdfrwt beam="1">  1        2 0.69636238E-02 0.21166167E+03</pdfrwt>
<pdfrwt beam="2">  1       -2 0.38068208E-01 0.21166167E+03</pdfrwt>
<totfact> 0.65088283E+03</totfact>
</mgrwt>
</event>
<event>
 4    1  0.6086918E-004  0.2838477E+03  0.7818608E-02  0.1093606E+00
          2   -1    0    0  501    0  0.00000000000E+00  0.00000000000E+00  0.17079465029E+03  0.17079465030E+03  0.25500000000E-02 0.  1.
         -2   -1    0    0    0  501 -0.00000000000E+00 -0.00000000000E+00 -0.11793329616E+03  0.11793329619E+03  0.25500000000E-02 0. -1.
    5000001    1    1    2    0    0  0.95315552231E+02  0.71121541639E+02  0.17917316378E+02  0.14280531646E+03  0.77000000000E+02 0.  0.
   -5000001    1    1    2    0    0 -0.95315552231E+02 -0.71121541639E+02  0.34944037748E+02  0.14592263003E+03  0.77000000000E+02 0.  0.
<mgrwt>
<rscale>  0 0.28384768E+03</rscale>
<asrwt>0</asrwt>
<pdfrwt beam="1">  1        2 0.26276100E-01 0.28384768E+03</pdfrwt>
<pdfrwt beam="2">  1       -2 0.18143584E-01 0.28384768E+03</pdfrwt>
<totfact> 0.50255138E+03</totfact>
</mgrwt>
</event>
<event>
 4    1  0.6086918E-004  0.2562832E+03  0.7818608E-02  0.1109397E+00
          2   -1    0    0  501    0  0.00000000000E+00  0.00000000000E+00  0.18994058384E+04  0.18994058384E+04  0.25500000000E-02 0.  1.
         -2   -1    0    0    0  501 -0.00000000000E+00 -0.00000000000E+00 -0.86449480249E+01  0.86449484010E+01  0.25500000000E-02 0. -1.
    5000001    1    1    2    0    0  0.71620742008E+02 -0.61714339502E+02  0.12387844438E+04  0.12447706972E+04  0.77000000000E+02 0.  0.
   -5000001    1    1    2    0    0 -0.71620742008E+02  0.61714339502E+02  0.65197644657E+03  0.66328008961E+03  0.77000000000E+02 0.  0.
<mgrwt>
<rscale>  0 0.25628316E+03</rscale>
<asrwt>0</asrwt>
<pdfrwt beam="1">  1        2 0.29221655E+00 0.25628316E+03</pdfrwt>
<pdfrwt beam="2">  1       -2 0.13299908E-02 0.25628316E+03</pdfrwt>
<totfact> 0.11787742E+04</totfact>
</mgrwt>
</event>
<event>
 4    1  0.6086918E-004  0.2499000E+03  0.7818608E-02  0.1113368E+00
         -2   -1    0    0    0  501 -0.00000000000E+00  0.00000000000E+00  0.44643607769E+01  0.44643615051E+01  0.25500000000E-02 0. -1.
          2   -1    0    0  501    0  0.00000000000E+00 -0.00000000000E+00 -0.34971416395E+04  0.34971416395E+04  0.25500000000E-02 0.  1.
    5000001    1    1    2    0    0 -0.32396106480E+02  0.69061805560E+02 -0.87528367068E+03  0.88196912920E+03  0.77000000000E+02 0.  0.
   -5000001    1    1    2    0    0  0.32396106480E+02 -0.69061805560E+02 -0.26173936080E+04  0.26196368718E+04  0.77000000000E+02 0.  0.
<mgrwt>
<rscale>  0 0.24990001E+03</rscale>
<asrwt>0</asrwt>
<pdfrwt beam="1">  1        2 0.53801960E+00 0.24990001E+03</pdfrwt>
<pdfrwt beam="2">  1       -2 0.68682759E-03 0.24990001E+03</pdfrwt>
<totfact> 0.37542279E+03</totfact>
</mgrwt>
</event>
<event>
 4    1  0.6086918E-004  0.2553992E+03  0.7818608E-02  0.1109939E+00
          2   -1    0    0  501    0  0.00000000000E+00  0.00000000000E+00  0.94897711080E+03  0.94897711080E+03  0.25500000000E-02 0.  1.
         -2   -1    0    0    0  501 -0.00000000000E+00 -0.00000000000E+00 -0.17183966507E+02  0.17183966697E+02  0.25500000000E-02 0. -1.
    5000001    1    1    2    0    0  0.70600884941E+02  0.49261948999E+02  0.67195305272E+03  0.68180725255E+03  0.77000000000E+02 0.  0.
   -5000001    1    1    2    0    0 -0.70600884941E+02 -0.49261948999E+02  0.25984009157E+03  0.28435382494E+03  0.77000000000E+02 0.  0.
<mgrwt>
<rscale>  0 0.25539922E+03</rscale>
<asrwt>0</asrwt>
<pdfrwt beam="1">  1        2 0.14599650E+00 0.25539922E+03</pdfrwt>
<pdfrwt beam="2">  1       -2 0.26436867E-02 0.25539922E+03</pdfrwt>
<totfact> 0.14359219E+04</totfact>
</mgrwt>
</event>
<event>
 4    1  0.6086918E-004  0.2268654E+03  0.7818608E-02  0.1128866E+00
         -2   -1    0    0    0  501 -0.00000000000E+00  0.00000000000E+00  0.16069318732E+02  0.16069318934E+02  0.25500000000E-02 0. -1.
          2   -1    0    0  501    0  0.00000000000E+00 -0.00000000000E+00 -0.80071709670E+03  0.80071709671E+03  0.25500000000E-02 0.  1.
    5000001    1    1    2    0    0  0.37651129720E+02 -0.63994199573E+02 -0.25640966693E+03  0.27782689294E+03  0.77000000000E+02 0.  0.
   -5000001    1    1    2    0    0 -0.37651129720E+02  0.63994199573E+02 -0.52823811105E+03  0.53895952270E+03  0.77000000000E+02 0.  0.
<mgrwt>
<rscale>  0 0.22686541E+03</rscale>
<asrwt>0</asrwt>
<pdfrwt beam="1">  1        2 0.12318721E+00 0.22686541E+03</pdfrwt>
<pdfrwt beam="2">  1       -2 0.24722035E-02 0.22686541E+03</pdfrwt>
<totfact> 0.19713299E+04</totfact>
</mgrwt>
</event>
<event>
 4    1  0.6086918E-004  0.2852773E+03  0.7818608E-02  0.1092841E+00
         -2   -1    0    0    0  501 -0.00000000000E+00  0.00000000000E+00  0.38367163617E+03  0.38367163618E+03  0.25500000000E-02 0. -1.
          2   -1    0    0  501    0  0.00000000000E+00 -0.00000000000E+00 -0.53029168733E+02  0.53029168795E+02  0.25500000000E-02 0.  1.
    5000001    1    1    2    0    0  0.42008112863E+02 -0.10297016925E+03  0.96024258169E+02  0.16588307767E+03  0.77000000000E+02 0.  0.
   -5000001    1    1    2    0    0 -0.42008112863E+02  0.10297016925E+03  0.23461820926E+03  0.27081772730E+03  0.77000000000E+02 0.  0.
<mgrwt>
<rscale>  0 0.28527732E+03</rscale>
<asrwt>0</asrwt>
<pdfrwt beam="1">  1        2 0.81583336E-02 0.28527732E+03</pdfrwt>
<pdfrwt beam="2">  1       -2 0.59026406E-01 0.28527732E+03</pdfrwt>
<totfact> 0.22662525E+03</totfact>
</mgrwt>
</event>
<event>
 4    1  0.6086918E-004  0.2185874E+03  0.7818608E-02  0.1134941E+00
          2   -1    0    0  501    0  0.00000000000E+00  0.00000000000E+00  0.36010905979E+03  0.36010905980E+03  0.25500000000E-02 0.  1.
         -2   -1    0    0    0  501 -0.00000000000E+00 -0.00000000000E+00 -0.33170810882E+02  0.33170810980E+02  0.25500000000E-02 0. -1.
    5000001    1    1    2    0    0 -0.73593864525E+02  0.17638858273E+02  0.13288697859E+03  0.17121663265E+03  0.77000000000E+02 0.  0.
   -5000001    1    1    2    0    0  0.73593864525E+02 -0.17638858273E+02  0.19405127032E+03  0.22206323813E+03  0.77000000000E+02 0.  0.
<mgrwt>
<rscale>  0 0.21858737E+03</rscale>
<asrwt>0</asrwt>
<pdfrwt beam="1">  1        2 0.55401399E-01 0.21858737E+03</pdfrwt>
<pdfrwt beam="2">  1       -2 0.51032012E-02 0.21858737E+03</pdfrwt>
<totfact> 0.16595394E+04</totfact>
</mgrwt>
</event>
<event>
 4    1  0.6086918E-004  0.5170783E+03  0.7818608E-02  0.1009415E+00
          2   -1    0    0  501    0  0.00000000000E+00  0.00000000000E+00  0.51097049999E+03  0.51097049999E+03  0.25500000000E-02 0.  1.
         -2   -1    0    0    0  501 -0.00000000000E+00 -0.00000000000E+00 -0.13081479704E+03  0.13081479706E+03  0.25500000000E-02 0. -1.
    5000001    1    1    2    0    0  0.24632312157E+03 -0.12637325365E+02  0.20109010211E+03  0.32741565537E+03  0.77000000000E+02 0.  0.
   -5000001    1    1    2    0    0 -0.24632312157E+03  0.12637325365E+02  0.17906560084E+03  0.31436964169E+03  0.77000000000E+02 0.  0.
<mgrwt>
<rscale>  0 0.51707834E+03</rscale>
<asrwt>0</asrwt>
<pdfrwt beam="1">  1        2 0.78610845E-01 0.51707834E+03</pdfrwt>
<pdfrwt beam="2">  1       -2 0.20125354E-01 0.51707834E+03</pdfrwt>
<totfact> 0.12680815E+03</totfact>
</mgrwt>
</event>
<event>
 4    1  0.6086918E-004  0.1578274E+03  0.7818608E-02  0.1191172E+00
          2   -1    0    0  501    0  0.00000000000E+00  0.00000000000E+00  0.19609182768E+04  0.19609182768E+04  0.25500000000E-02 0.  1.
         -2   -1    0    0    0  501 -0.00000000000E+00 -0.00000000000E+00 -0.31757431665E+01  0.31757441902E+01  0.25500000000E-02 0. -1.
    5000001    1    1    2    0    0  0.60490128292E+01  0.12840854374E+02  0.11013701482E+04  0.11041497549E+04  0.77000000000E+02 0.  0.
   -5000001    1    1    2    0    0 -0.60490128292E+01 -0.12840854374E+02  0.85637238547E+03  0.85994426603E+03  0.77000000000E+02 0.  0.
<mgrwt>
<rscale>  0 0.15782742E+03</rscale>
<asrwt>0</asrwt>
<pdfrwt beam="1">  1        2 0.30167978E+00 0.15782742E+03</pdfrwt>
<pdfrwt beam="2">  1       -2 0.48857588E-03 0.15782742E+03</pdfrwt>
<totfact> 0.45299409E+04</totfact>
</mgrwt>
</event>
<event>
 4    1  0.6086918E-004  0.4183045E+03  0.7818608E-02  0.1037620E+00
         -2   -1    0    0    0  501 -0.00000000000E+00  0.00000000000E+00  0.48308703432E+02  0.48308703500E+02  0.25500000000E-02 0. -1.
          2   -1    0    0  501    0  0.00000000000E+00 -0.00000000000E+00 -0.90552358735E+03  0.90552358736E+03  0.25500000000E-02 0.  1.
    5000001    1    1    2    0    0  0.81593696248E+02  0.87560810181E+02 -0.79119291107E+02  0.16282901760E+03  0.77000000000E+02 0.  0.
   -5000001    1    1    2    0    0 -0.81593696248E+02 -0.87560810181E+02 -0.77809559282E+03  0.79100327326E+03  0.77000000000E+02 0.  0.
<mgrwt>
<rscale>  0 0.41830453E+03</rscale>
<asrwt>0</asrwt>
<pdfrwt beam="1">  1        2 0.13931131E+00 0.41830453E+03</pdfrwt>
<pdfrwt beam="2">  1       -2 0.74321089E-02 0.41830453E+03</pdfrwt>
<totfact> 0.32115178E+03</totfact>
</mgrwt>
</event>
<event>
 4    1  0.6086918E-004  0.2645128E+03  0.7818608E-02  0.1104462E+00
         -2   -1    0    0    0  501 -0.00000000000E+00  0.00000000000E+00  0.11360751698E+02  0.11360751984E+02  0.25500000000E-02 0. -1.
          2   -1    0    0  501    0  0.00000000000E+00 -0.00000000000E+00 -0.15396650933E+04  0.15396650934E+04  0.25500000000E-02 0.  1.
    5000001    1    1    2    0    0  0.10293412642E+03 -0.15780290156E+02 -0.60699809891E+03  0.62066105405E+03  0.77000000000E+02 0.  0.
   -5000001    1    1    2    0    0 -0.10293412642E+03  0.15780290156E+02 -0.92130624274E+03  0.93036479128E+03  0.77000000000E+02 0.  0.
<mgrwt>
<rscale>  0 0.26451278E+03</rscale>
<asrwt>0</asrwt>
<pdfrwt beam="1">  1        2 0.23687139E+00 0.26451278E+03</pdfrwt>
<pdfrwt beam="2">  1       -2 0.17478092E-02 0.26451278E+03</pdfrwt>
<totfact> 0.12234845E+04</totfact>
</mgrwt>
</event>
<event>
 4    1  0.6086918E-004  0.4042251E+03  0.7818608E-02  0.1042326E+00
         -2   -1    0    0    0  501 -0.00000000000E+00  0.00000000000E+00  0.16887004053E+02  0.16887004246E+02  0.25500000000E-02 0. -1.
          2   -1    0    0  501    0  0.00000000000E+00 -0.00000000000E+00 -0.24189896686E+04  0.24189896686E+04  0.25500000000E-02 0.  1.
    5000001    1    1    2    0    0  0.19364077569E+02 -0.15714250379E+03 -0.60293070362E+03  0.62811079227E+03  0.77000000000E+02 0.  0.
   -5000001    1    1    2    0    0 -0.19364077569E+02  0.15714250379E+03 -0.17991719609E+04  0.18077658806E+04  0.77000000000E+02 0.  0.
<mgrwt>
<rscale>  0 0.40422513E+03</rscale>
<asrwt>0</asrwt>
<pdfrwt beam="1">  1        2 0.37215198E+00 0.40422513E+03</pdfrwt>
<pdfrwt beam="2">  1       -2 0.25980026E-02 0.40422513E+03</pdfrwt>
<totfact> 0.23070080E+03</totfact>
</mgrwt>
</event>
<event>
 4    1  0.6086918E-004  0.2600074E+03  0.7818608E-02  0.1107139E+00
          2   -1    0    0  501    0  0.00000000000E+00  0.00000000000E+00  0.32620592775E+04  0.32620592775E+04  0.25500000000E-02 0.  1.
         -2   -1    0    0    0  501 -0.00000000000E+00 -0.00000000000E+00 -0.51810723391E+01  0.51810729667E+01  0.25500000000E-02 0. -1.
    5000001    1    1    2    0    0  0.33041323066E+02  0.80030981374E+02  0.23692206703E+04  0.23720523332E+04  0.77000000000E+02 0.  0.
   -5000001    1    1    2    0    0 -0.33041323066E+02 -0.80030981374E+02  0.88765753491E+03  0.89518801729E+03  0.77000000000E+02 0.  0.
<mgrwt>
<rscale>  0 0.26000743E+03</rscale>
<asrwt>0</asrwt>
<pdfrwt beam="1">  1        2 0.50185585E+00 0.26000743E+03</pdfrwt>
<pdfrwt beam="2">  1       -2 0.79708719E-03 0.26000743E+03</pdfrwt>
<totfact> 0.42812215E+03</totfact>
</mgrwt>
</event>
<event>
 4    1  0.6086918E-004  0.2036537E+03  0.7818608E-02  0.1146692E+00
         -2   -1    0    0    0  501 -0.00000000000E+00  0.00000000000E+00  0.21491602780E+03  0.21491602782E+03  0.25500000000E-02 0. -1.
          2   -1    0    0  501    0  0.00000000000E+00 -0.00000000000E+00 -0.48245386036E+02  0.48245386104E+02  0.25500000000E-02 0.  1.
    5000001    1    1    2    0    0 -0.30000245976E+02 -0.55435029676E+02  0.55421113198E+02  0.11390152353E+03  0.77000000000E+02 0.  0.
   -5000001    1    1    2    0    0  0.30000245976E+02  0.55435029676E+02  0.11124952857E+03  0.14925989040E+03  0.77000000000E+02 0.  0.
<mgrwt>
<rscale>  0 0.20365369E+03</rscale>
<asrwt>0</asrwt>
<pdfrwt beam="1">  1        2 0.74223671E-02 0.20365369E+03</pdfrwt>
<pdfrwt beam="2">  1       -2 0.33064004E-01 0.20365369E+03</pdfrwt>
<totfact> 0.77813570E+03</totfact>
</mgrwt>
</event>
<event>
 4    1  0.6086918E-004  0.3180743E+03  0.7818608E-02  0.1076539E+00
          2   -1    0    0  501    0  0.00000000000E+00  0.00000000000E+00  0.60417933385E+03  0.60417933386E+03  0.25500000000E-02 0.  1.
         -2   -1    0    0    0  501 -0.00000000000E+00 -0.00000000000E+00 -0.41863081494E+02  0.41863081572E+02  0.25500000000E-02 0. -1.
    5000001    1    1    2    0    0 -0.13282723260E+03  0.38700207968E+02  0.31149096639E+03  0.34942295569E+03  0.77000000000E+02 0.  0.
   -5000001    1    1    2    0    0  0.13282723260E+03 -0.38700207968E+02  0.25082528597E+03  0.29661945974E+03  0.77000000000E+02 0.  0.
<mgrwt>
<rscale>  0 0.31807426E+03</rscale>
<asrwt>0</asrwt>
<pdfrwt beam="1">  1        2 0.92950670E-01 0.31807426E+03</pdfrwt>
<pdfrwt beam="2">  1       -2 0.64404738E-02 0.31807426E+03</pdfrwt>
<totfact> 0.66477804E+03</totfact>
</mgrwt>
</event>
<event>
 4    1  0.6086918E-004  0.3094580E+03  0.7818608E-02  0.1080606E+00
         -2   -1    0    0    0  501 -0.00000000000E+00  0.00000000000E+00  0.38104643657E+03  0.38104643658E+03  0.25500000000E-02 0. -1.
          2   -1    0    0  501    0  0.00000000000E+00 -0.00000000000E+00 -0.62829795811E+02  0.62829795863E+02  0.25500000000E-02 0.  1.
    5000001    1    1    2    0    0 -0.87332025839E+02  0.10169318406E+03  0.16858853817E+03  0.22873452215E+03  0.77000000000E+02 0.  0.
   -5000001    1    1    2    0    0  0.87332025839E+02 -0.10169318406E+03  0.14962810259E+03  0.21514171029E+03  0.77000000000E+02 0.  0.
<mgrwt>
<rscale>  0 0.30945804E+03</rscale>
<asrwt>0</asrwt>
<pdfrwt beam="1">  1        2 0.96661227E-02 0.30945804E+03</pdfrwt>
<pdfrwt beam="2">  1       -2 0.58622527E-01 0.30945804E+03</pdfrwt>
<totfact> 0.18594846E+03</totfact>
</mgrwt>
</event>
<event>
 4    1  0.6086918E-004  0.1709883E+03  0.7818608E-02  0.1176821E+00
          2   -1    0    0  501    0  0.00000000000E+00  0.00000000000E+00  0.52125332526E+03  0.52125332527E+03  0.25500000000E-02 0.  1.
         -2   -1    0    0    0  501 -0.00000000000E+00 -0.00000000000E+00 -0.14022456530E+02  0.14022456762E+02  0.25500000000E-02 0. -1.
    5000001    1    1    2    0    0  0.18149450846E+02 -0.23968662762E+02  0.32193978092E+03  0.33238249337E+03  0.77000000000E+02 0.  0.
   -5000001    1    1    2    0    0 -0.18149450846E+02  0.23968662762E+02  0.18529108782E+03  0.20289328867E+03  0.77000000000E+02 0.  0.
<mgrwt>
<rscale>  0 0.17098833E+03</rscale>
<asrwt>0</asrwt>
<pdfrwt beam="1">  1        2 0.80192796E-01 0.17098833E+03</pdfrwt>
<pdfrwt beam="2">  1       -2 0.21573016E-02 0.17098833E+03</pdfrwt>
<totfact> 0.39112008E+04</totfact>
</mgrwt>
</event>
<event>
 4    1  0.6086918E-004  0.2102259E+03  0.7818608E-02  0.1141387E+00
          2   -1    0    0  501    0  0.00000000000E+00  0.00000000000E+00  0.50337429941E+03  0.50337429942E+03  0.25500000000E-02 0.  1.
         -2   -1    0    0    0  501 -0.00000000000E+00 -0.00000000000E+00 -0.21949346951E+02  0.21949347099E+02  0.25500000000E-02 0. -1.
    5000001    1    1    2    0    0  0.55371154769E+02 -0.44915333264E+02  0.25578560001E+03  0.27647536078E+03  0.77000000000E+02 0.  0.
   -5000001    1    1    2    0    0 -0.55371154769E+02  0.44915333264E+02  0.22563935245E+03  0.24884828574E+03  0.77000000000E+02 0.  0.
<mgrwt>
<rscale>  0 0.21022595E+03</rscale>
<asrwt>0</asrwt>
<pdfrwt beam="1">  1        2 0.77442194E-01 0.21022595E+03</pdfrwt>
<pdfrwt beam="2">  1       -2 0.33768229E-02 0.21022595E+03</pdfrwt>
<totfact> 0.21355864E+04</totfact>
</mgrwt>
</event>
<event>
 4    1  0.6086918E-004  0.1810005E+03  0.7818608E-02  0.1166838E+00
          2   -1    0    0  501    0  0.00000000000E+00  0.00000000000E+00  0.10239483205E+04  0.10239483205E+04  0.25500000000E-02 0.  1.
         -2   -1    0    0    0  501 -0.00000000000E+00 -0.00000000000E+00 -0.79987381552E+01  0.79987385617E+01  0.25500000000E-02 0. -1.
    5000001    1    1    2    0    0  0.10357909979E+02  0.41072385403E+02  0.38475867538E+03  0.39466753783E+03  0.77000000000E+02 0.  0.
   -5000001    1    1    2    0    0 -0.10357909979E+02 -0.41072385403E+02  0.63119090696E+03  0.63727952122E+03  0.77000000000E+02 0.  0.
<mgrwt>
<rscale>  0 0.18100049E+03</rscale>
<asrwt>0</asrwt>
<pdfrwt beam="1">  1        2 0.15753041E+00 0.18100049E+03</pdfrwt>
<pdfrwt beam="2">  1       -2 0.12305759E-02 0.18100049E+03</pdfrwt>
<totfact> 0.38711648E+04</totfact>
</mgrwt>
</event>
<event>
 4    1  0.6086918E-004  0.1826138E+03  0.7818608E-02  0.1165297E+00
         -2   -1    0    0    0  501 -0.00000000000E+00  0.00000000000E+00  0.52421253115E+02  0.52421253177E+02  0.25500000000E-02 0. -1.
          2   -1    0    0  501    0  0.00000000000E+00 -0.00000000000E+00 -0.15903753392E+03  0.15903753394E+03  0.25500000000E-02 0.  1.
    5000001    1    1    2    0    0 -0.24811887476E+02  0.39516248612E+02 -0.70899292659E+02  0.11459874940E+03  0.77000000000E+02 0.  0.
   -5000001    1    1    2    0    0  0.24811887476E+02 -0.39516248612E+02 -0.35716988148E+02  0.96860037719E+02  0.77000000000E+02 0.  0.
<mgrwt>
<rscale>  0 0.18261377E+03</rscale>
<asrwt>0</asrwt>
<pdfrwt beam="1">  1        2 0.24467313E-01 0.18261377E+03</pdfrwt>
<pdfrwt beam="2">  1       -2 0.80648082E-02 0.18261377E+03</pdfrwt>
<totfact> 0.19661932E+04</totfact>
</mgrwt>
</event>
<event>
 4    1  0.6086918E-004  0.2451699E+03  0.7818608E-02  0.1116396E+00
          2   -1    0    0  501    0  0.00000000000E+00  0.00000000000E+00  0.19193148940E+03  0.19193148941E+03  0.25500000000E-02 0.  1.
         -2   -1    0    0    0  501 -0.00000000000E+00 -0.00000000000E+00 -0.78293930517E+02  0.78293930558E+02  0.25500000000E-02 0. -1.
    5000001    1    1    2    0    0 -0.44929380433E+02 -0.63374207720E+02  0.11782046629E+03  0.16076567329E+03  0.77000000000E+02 0.  0.
   -5000001    1    1    2    0    0  0.44929380433E+02  0.63374207720E+02 -0.41829074095E+01  0.10945974669E+03  0.77000000000E+02 0.  0.
<mgrwt>
<rscale>  0 0.24516991E+03</rscale>
<asrwt>0</asrwt>
<pdfrwt beam="1">  1        2 0.29527921E-01 0.24516991E+03</pdfrwt>
<pdfrwt beam="2">  1       -2 0.12045220E-01 0.24516991E+03</pdfrwt>
<totfact> 0.86324070E+03</totfact>
</mgrwt>
</event>
<event>
 4    1  0.6086918E-004  0.1702308E+03  0.7818608E-02  0.1177607E+00
         -2   -1    0    0    0  501 -0.00000000000E+00  0.00000000000E+00  0.63164403166E+01  0.63164408313E+01  0.25500000000E-02 0. -1.
          2   -1    0    0  501    0  0.00000000000E+00 -0.00000000000E+00 -0.11469487645E+04  0.11469487645E+04  0.25500000000E-02 0.  1.
    5000001    1    1    2    0    0  0.17710364775E+02 -0.28634943577E+02 -0.47891607762E+03  0.48623371584E+03  0.77000000000E+02 0.  0.
   -5000001    1    1    2    0    0 -0.17710364775E+02  0.28634943577E+02 -0.66171624655E+03  0.66703148948E+03  0.77000000000E+02 0.  0.
<mgrwt>
<rscale>  0 0.17023083E+03</rscale>
<asrwt>0</asrwt>
<pdfrwt beam="1">  1        2 0.17645349E+00 0.17023083E+03</pdfrwt>
<pdfrwt beam="2">  1       -2 0.97176100E-03 0.17023083E+03</pdfrwt>
<totfact> 0.45907936E+04</totfact>
</mgrwt>
</event>
<event>
 4    1  0.6086918E-004  0.1887687E+03  0.7818608E-02  0.1159577E+00
         -2   -1    0    0    0  501 -0.00000000000E+00  0.00000000000E+00  0.31536722786E+02  0.31536722890E+02  0.25500000000E-02 0. -1.
          2   -1    0    0  501    0  0.00000000000E+00 -0.00000000000E+00 -0.28247731433E+03  0.28247731434E+03  0.25500000000E-02 0.  1.
    5000001    1    1    2    0    0  0.43234490831E+02 -0.17261016683E+02 -0.78061110783E+02  0.11912053102E+03  0.77000000000E+02 0.  0.
   -5000001    1    1    2    0    0 -0.43234490831E+02  0.17261016683E+02 -0.17287948076E+03  0.19489350621E+03  0.77000000000E+02 0.  0.
<mgrwt>
<rscale>  0 0.18876873E+03</rscale>
<asrwt>0</asrwt>
<pdfrwt beam="1">  1        2 0.43458047E-01 0.18876873E+03</pdfrwt>
<pdfrwt beam="2">  1       -2 0.48518037E-02 0.18876873E+03</pdfrwt>
<totfact> 0.22987083E+04</totfact>
</mgrwt>
</event>
<event>
 4    1  0.6086918E-004  0.2860110E+03  0.7818608E-02  0.1092450E+00
         -2   -1    0    0    0  501 -0.00000000000E+00  0.00000000000E+00  0.15680859724E+02  0.15680859931E+02  0.25500000000E-02 0. -1.
          2   -1    0    0  501    0  0.00000000000E+00 -0.00000000000E+00 -0.13041737875E+04  0.13041737875E+04  0.25500000000E-02 0.  1.
    5000001    1    1    2    0    0 -0.89115903760E+02 -0.10010221817E+02 -0.10157145232E+04  0.10225687466E+04  0.77000000000E+02 0.  0.
   -5000001    1    1    2    0    0  0.89115903760E+02  0.10010221817E+02 -0.27277840459E+03  0.29728590087E+03  0.77000000000E+02 0.  0.
<mgrwt>
<rscale>  0 0.28601095E+03</rscale>
<asrwt>0</asrwt>
<pdfrwt beam="1">  1        2 0.20064204E+00 0.28601095E+03</pdfrwt>
<pdfrwt beam="2">  1       -2 0.24124410E-02 0.28601095E+03</pdfrwt>
<totfact> 0.10229915E+04</totfact>
</mgrwt>
</event>
<event>
 4    1  0.6086918E-004  0.3219398E+03  0.7818608E-02  0.1074760E+00
         -2   -1    0    0    0  501 -0.00000000000E+00  0.00000000000E+00  0.25593205215E+02  0.25593205342E+02  0.25500000000E-02 0. -1.
          2   -1    0    0  501    0  0.00000000000E+00 -0.00000000000E+00 -0.10124292328E+04  0.10124292328E+04  0.25500000000E-02 0.  1.
    5000001    1    1    2    0    0 -0.30992388890E+02 -0.13011093928E+03 -0.64092372923E+03  0.65924321110E+03  0.77000000000E+02 0.  0.
   -5000001    1    1    2    0    0  0.30992388890E+02  0.13011093928E+03 -0.34591229834E+03  0.37877922704E+03  0.77000000000E+02 0.  0.
<mgrwt>
<rscale>  0 0.32193980E+03</rscale>
<asrwt>0</asrwt>
<pdfrwt beam="1">  1        2 0.15575831E+00 0.32193980E+03</pdfrwt>
<pdfrwt beam="2">  1       -2 0.39374170E-02 0.32193980E+03</pdfrwt>
<totfact> 0.72812966E+03</totfact>
</mgrwt>
</event>
<event>
 4    1  0.6086918E-004  0.2571570E+03  0.7818608E-02  0.1108863E+00
          2   -1    0    0  501    0  0.00000000000E+00  0.00000000000E+00  0.11295113339E+04  0.11295113339E+04  0.25500000000E-02 0.  1.
         -2   -1    0    0    0  501 -0.00000000000E+00 -0.00000000000E+00 -0.14636797169E+02  0.14636797391E+02  0.25500000000E-02 0. -1.
    5000001    1    1    2    0    0 -0.10181747999E+03 -0.15261864186E+02  0.54887359490E+03  0.56372949799E+03  0.77000000000E+02 0.  0.
   -5000001    1    1    2    0    0  0.10181747999E+03  0.15261864186E+02  0.56600094184E+03  0.58041863331E+03  0.77000000000E+02 0.  0.
<mgrwt>
<rscale>  0 0.25715698E+03</rscale>
<asrwt>0</asrwt>
<pdfrwt beam="1">  1        2 0.17377100E+00 0.25715698E+03</pdfrwt>
<pdfrwt beam="2">  1       -2 0.22518147E-02 0.25715698E+03</pdfrwt>
<totfact> 0.14176676E+04</totfact>
</mgrwt>
</event>
<event>
 4    1  0.6086918E-004  0.5030648E+03  0.7818608E-02  0.1012982E+00
         -2   -1    0    0    0  501 -0.00000000000E+00  0.00000000000E+00  0.29586525243E+02  0.29586525353E+02  0.25500000000E-02 0. -1.
          2   -1    0    0  501    0  0.00000000000E+00 -0.00000000000E+00 -0.21384243098E+04  0.21384243098E+04  0.25500000000E-02 0.  1.
    5000001    1    1    2    0    0 -0.22769264941E+03  0.12389087200E+02 -0.73943085588E+03  0.77761457208E+03  0.77000000000E+02 0.  0.
   -5000001    1    1    2    0    0  0.22769264941E+03 -0.12389087200E+02 -0.13694069287E+04  0.13903962631E+04  0.77000000000E+02 0.  0.
<mgrwt>
<rscale>  0 0.50306479E+03</rscale>
<asrwt>0</asrwt>
<pdfrwt beam="1">  1        2 0.32898823E+00 0.50306479E+03</pdfrwt>
<pdfrwt beam="2">  1       -2 0.45517748E-02 0.50306479E+03</pdfrwt>
<totfact> 0.13919748E+03</totfact>
</mgrwt>
</event>
<event>
 4    1  0.6086918E-004  0.1663445E+03  0.7818608E-02  0.1181715E+00
         -2   -1    0    0    0  501 -0.00000000000E+00  0.00000000000E+00  0.16222001112E+02  0.16222001313E+02  0.25500000000E-02 0. -1.
          2   -1    0    0  501    0  0.00000000000E+00 -0.00000000000E+00 -0.42643439039E+03  0.42643439039E+03  0.25500000000E-02 0.  1.
    5000001    1    1    2    0    0 -0.12581597549E+02 -0.28763030664E+02 -0.20972351589E+03  0.22560709574E+03  0.77000000000E+02 0.  0.
   -5000001    1    1    2    0    0  0.12581597549E+02  0.28763030664E+02 -0.20048887338E+03  0.21704929596E+03  0.77000000000E+02 0.  0.
<mgrwt>
<rscale>  0 0.16634445E+03</rscale>
<asrwt>0</asrwt>
<pdfrwt beam="1">  1        2 0.65605282E-01 0.16634445E+03</pdfrwt>
<pdfrwt beam="2">  1       -2 0.24956928E-02 0.16634445E+03</pdfrwt>
<totfact> 0.39275464E+04</totfact>
</mgrwt>
</event>
<event>
 4    1  0.6086918E-004  0.2508799E+03  0.7818608E-02  0.1112750E+00
          2   -1    0    0  501    0  0.00000000000E+00  0.00000000000E+00  0.21032558830E+04  0.21032558830E+04  0.25500000000E-02 0.  1.
         -2   -1    0    0    0  501 -0.00000000000E+00 -0.00000000000E+00 -0.74813410883E+01  0.74813415229E+01  0.25500000000E-02 0. -1.
    5000001    1    1    2    0    0  0.50571412120E+02 -0.50748448660E+02  0.16230362103E+04  0.16264404117E+04  0.77000000000E+02 0.  0.
   -5000001    1    1    2    0    0 -0.50571412120E+02  0.50748448660E+02  0.47273833153E+03  0.48429681278E+03  0.77000000000E+02 0.  0.
<mgrwt>
<rscale>  0 0.25087985E+03</rscale>
<asrwt>0</asrwt>
<pdfrwt beam="1">  1        2 0.32357777E+00 0.25087985E+03</pdfrwt>
<pdfrwt beam="2">  1       -2 0.11509758E-02 0.25087985E+03</pdfrwt>
<totfact> 0.11366602E+04</totfact>
</mgrwt>
</event>
<event>
 4    1  0.6086918E-004  0.2796693E+03  0.7818608E-02  0.1095870E+00
          2   -1    0    0  501    0  0.00000000000E+00  0.00000000000E+00  0.32159072432E+03  0.32159072433E+03  0.25500000000E-02 0.  1.
         -2   -1    0    0    0  501 -0.00000000000E+00 -0.00000000000E+00 -0.60803140742E+02  0.60803140795E+02  0.25500000000E-02 0. -1.
    5000001    1    1    2    0    0 -0.97101811413E+02  0.35044379725E+02  0.20488200411E+03  0.24199691307E+03  0.77000000000E+02 0.  0.
   -5000001    1    1    2    0    0  0.97101811413E+02 -0.35044379725E+02  0.55905579474E+02  0.14039695206E+03  0.77000000000E+02 0.  0.
<mgrwt>
<rscale>  0 0.27966928E+03</rscale>
<asrwt>0</asrwt>
<pdfrwt beam="1">  1        2 0.49475496E-01 0.27966928E+03</pdfrwt>
<pdfrwt beam="2">  1       -2 0.93543294E-02 0.27966928E+03</pdfrwt>
<totfact> 0.74355485E+03</totfact>
</mgrwt>
</event>
<event>
 4    1  0.6086918E-004  0.2287031E+03  0.7818608E-02  0.1127556E+00
          2   -1    0    0  501    0  0.00000000000E+00  0.00000000000E+00  0.10824147385E+04  0.10824147385E+04  0.25500000000E-02 0.  1.
         -2   -1    0    0    0  501 -0.00000000000E+00 -0.00000000000E+00 -0.12080653557E+02  0.12080653826E+02  0.25500000000E-02 0. -1.
    5000001    1    1    2    0    0  0.60955383697E+02  0.14397986639E+02  0.80691573466E+03  0.81299745613E+03  0.77000000000E+02 0.  0.
   -5000001    1    1    2    0    0 -0.60955383697E+02 -0.14397986639E+02  0.26341835024E+03  0.28149793616E+03  0.77000000000E+02 0.  0.
<mgrwt>
<rscale>  0 0.22870311E+03</rscale>
<asrwt>0</asrwt>
<pdfrwt beam="1">  1        2 0.16652535E+00 0.22870311E+03</pdfrwt>
<pdfrwt beam="2">  1       -2 0.18585620E-02 0.22870311E+03</pdfrwt>
<totfact> 0.19921255E+04</totfact>
</mgrwt>
</event>
<event>
 4    1  0.6086918E-004  0.2693119E+03  0.7818608E-02  0.1101674E+00
          2   -1    0    0  501    0  0.00000000000E+00  0.00000000000E+00  0.63306529249E+03  0.63306529249E+03  0.25500000000E-02 0.  1.
         -2   -1    0    0    0  501 -0.00000000000E+00 -0.00000000000E+00 -0.28641953724E+02  0.28641953837E+02  0.25500000000E-02 0. -1.
    5000001    1    1    2    0    0 -0.11008322389E+03 -0.90379695574E+01  0.30662460259E+03  0.33488452934E+03  0.77000000000E+02 0.  0.
   -5000001    1    1    2    0    0  0.11008322389E+03  0.90379695574E+01  0.29779873617E+03  0.32682271699E+03  0.77000000000E+02 0.  0.
<mgrwt>
<rscale>  0 0.26931191E+03</rscale>
<asrwt>0</asrwt>
<pdfrwt beam="1">  1        2 0.97394652E-01 0.26931191E+03</pdfrwt>
<pdfrwt beam="2">  1       -2 0.44064548E-02 0.26931191E+03</pdfrwt>
<totfact> 0.11176839E+04</totfact>
</mgrwt>
</event>
<event>
 4    1  0.6086918E-004  0.2270493E+03  0.7818608E-02  0.1128734E+00
          2   -1    0    0  501    0  0.00000000000E+00  0.00000000000E+00  0.25114386207E+02  0.25114386336E+02  0.25500000000E-02 0.  1.
         -2   -1    0    0    0  501 -0.00000000000E+00 -0.00000000000E+00 -0.51316603968E+03  0.51316603969E+03  0.25500000000E-02 0. -1.
    5000001    1    1    2    0    0  0.10651291314E+02 -0.80432605353E+02 -0.19805524039E+03  0.22745929802E+03  0.77000000000E+02 0.  0.
   -5000001    1    1    2    0    0 -0.10651291314E+02  0.80432605353E+02 -0.28999641309E+03  0.31082112800E+03  0.77000000000E+02 0.  0.
<mgrwt>
<rscale>  0 0.22704934E+03</rscale>
<asrwt>0</asrwt>
<pdfrwt beam="1">  1        2 0.38637521E-02 0.22704934E+03</pdfrwt>
<pdfrwt beam="2">  1       -2 0.78948614E-01 0.22704934E+03</pdfrwt>
<totfact> 0.32164632E+03</totfact>
</mgrwt>
</event>
<event>
 4    1  0.6086918E-004  0.2418859E+03  0.7818608E-02  0.1118543E+00
         -2   -1    0    0    0  501 -0.00000000000E+00  0.00000000000E+00  0.39195814680E+02  0.39195814763E+02  0.25500000000E-02 0. -1.
          2   -1    0    0  501    0  0.00000000000E+00 -0.00000000000E+00 -0.37318274318E+03  0.37318274319E+03  0.25500000000E-02 0.  1.
    5000001    1    1    2    0    0 -0.34541794635E+02 -0.75683881219E+02 -0.23886073464E+03  0.26439484868E+03  0.77000000000E+02 0.  0.
   -5000001    1    1    2    0    0  0.34541794635E+02  0.75683881219E+02 -0.95126193858E+02  0.14798370928E+03  0.77000000000E+02 0.  0.
<mgrwt>
<rscale>  0 0.24188594E+03</rscale>
<asrwt>0</asrwt>
<pdfrwt beam="1">  1        2 0.57412727E-01 0.24188594E+03</pdfrwt>
<pdfrwt beam="2">  1       -2 0.60301256E-02 0.24188594E+03</pdfrwt>
<totfact> 0.12457093E+04</totfact>
</mgrwt>
</event>
<event>
 4    1  0.6086918E-004  0.5448920E+03  0.7818608E-02  0.1002683E+00
         -2   -1    0    0    0  501 -0.00000000000E+00  0.00000000000E+00  0.38574795788E+02  0.38574795873E+02  0.25500000000E-02 0. -1.
          2   -1    0    0  501    0  0.00000000000E+00 -0.00000000000E+00 -0.19242313322E+04  0.19242313322E+04  0.25500000000E-02 0.  1.
    5000001    1    1    2    0    0 -0.18076769280E+03  0.17229474641E+03 -0.12203465945E+04  0.12480133209E+04  0.77000000000E+02 0.  0.
   -5000001    1    1    2    0    0  0.18076769280E+03 -0.17229474641E+03 -0.66530994186E+03  0.71479280714E+03  0.77000000000E+02 0.  0.
<mgrwt>
<rscale>  0 0.54489203E+03</rscale>
<asrwt>0</asrwt>
<pdfrwt beam="1">  1        2 0.29603551E+00 0.54489203E+03</pdfrwt>
<pdfrwt beam="2">  1       -2 0.59345855E-02 0.54489203E+03</pdfrwt>
<totfact> 0.12011437E+03</totfact>
</mgrwt>
</event>
<event>
 4    1  0.6086918E-004  0.1794223E+03  0.7818608E-02  0.1168363E+00
         -2   -1    0    0    0  501 -0.00000000000E+00  0.00000000000E+00  0.19937677565E+02  0.19937677728E+02  0.25500000000E-02 0. -1.
          2   -1    0    0  501    0  0.00000000000E+00 -0.00000000000E+00 -0.40366256711E+03  0.40366256712E+03  0.25500000000E-02 0.  1.
    5000001    1    1    2    0    0 -0.41117976319E+02  0.18987603474E+02 -0.21131341480E+03  0.22942008703E+03  0.77000000000E+02 0.  0.
   -5000001    1    1    2    0    0  0.41117976319E+02 -0.18987603474E+02 -0.17241147475E+03  0.19418015781E+03  0.77000000000E+02 0.  0.
<mgrwt>
<rscale>  0 0.17942234E+03</rscale>
<asrwt>0</asrwt>
<pdfrwt beam="1">  1        2 0.62101927E-01 0.17942234E+03</pdfrwt>
<pdfrwt beam="2">  1       -2 0.30673353E-02 0.17942234E+03</pdfrwt>
<totfact> 0.30970525E+04</totfact>
</mgrwt>
</event>
<event>
 4    1  0.6086918E-004  0.4597000E+03  0.7818608E-02  0.1024868E+00
         -2   -1    0    0    0  501 -0.00000000000E+00  0.00000000000E+00  0.47452638216E+02  0.47452638284E+02  0.25500000000E-02 0. -1.
          2   -1    0    0  501    0  0.00000000000E+00 -0.00000000000E+00 -0.11133420154E+04  0.11133420154E+04  0.25500000000E-02 0.  1.
    5000001    1    1    2    0    0 -0.17484652212E+03 -0.98206871063E+02 -0.32646943471E+03  0.39080325948E+03  0.77000000000E+02 0.  0.
   -5000001    1    1    2    0    0  0.17484652212E+03  0.98206871063E+02 -0.73941994248E+03  0.76999139421E+03  0.77000000000E+02 0.  0.
<mgrwt>
<rscale>  0 0.45969997E+03</rscale>
<asrwt>0</asrwt>
<pdfrwt beam="1">  1        2 0.17128337E+00 0.45969997E+03</pdfrwt>
<pdfrwt beam="2">  1       -2 0.73004067E-02 0.45969997E+03</pdfrwt>
<totfact> 0.24509127E+03</totfact>
</mgrwt>
</event>
<event>
 4    1  0.6086918E-004  0.2319487E+03  0.7818608E-02  0.1125276E+00
          2   -1    0    0  501    0  0.00000000000E+00  0.00000000000E+00  0.88743845548E+02  0.88743845584E+02  0.25500000000E-02 0.  1.
         -2   -1    0    0    0  501 -0.00000000000E+00 -0.00000000000E+00 -0.15156037239E+03  0.15156037241E+03  0.25500000000E-02 0. -1.
    5000001    1    1    2    0    0 -0.47436474766E+02  0.71643907544E+02 -0.19238556334E+02  0.11697089671E+03  0.77000000000E+02 0.  0.
   -5000001    1    1    2    0    0  0.47436474766E+02 -0.71643907544E+02 -0.43577970505E+02  0.12333332129E+03  0.77000000000E+02 0.  0.
<mgrwt>
<rscale>  0 0.23194870E+03</rscale>
<asrwt>0</asrwt>
<pdfrwt beam="1">  1        2 0.13652899E-01 0.23194870E+03</pdfrwt>
<pdfrwt beam="2">  1       -2 0.23316980E-01 0.23194870E+03</pdfrwt>
<totfact> 0.68923857E+03</totfact>
</mgrwt>
</event>
<event>
 4    1  0.6086918E-004  0.2997485E+03  0.7818608E-02  0.1085366E+00
         -2   -1    0    0    0  501 -0.00000000000E+00  0.00000000000E+00  0.22532912975E+02  0.22532913119E+02  0.25500000000E-02 0. -1.
          2   -1    0    0  501    0  0.00000000000E+00 -0.00000000000E+00 -0.99686563023E+03  0.99686563023E+03  0.25500000000E-02 0.  1.
    5000001    1    1    2    0    0 -0.42247199752E+02  0.77853025151E+02 -0.80414581740E+03  0.81266562315E+03  0.77000000000E+02 0.  0.
   -5000001    1    1    2    0    0  0.42247199752E+02 -0.77853025151E+02 -0.17018689985E+03  0.20673292020E+03  0.77000000000E+02 0.  0.
<mgrwt>
<rscale>  0 0.29974847E+03</rscale>
<asrwt>0</asrwt>
<pdfrwt beam="1">  1        2 0.15336391E+00 0.29974847E+03</pdfrwt>
<pdfrwt beam="2">  1       -2 0.34666028E-02 0.29974847E+03</pdfrwt>
<totfact> 0.90011878E+03</totfact>
</mgrwt>
</event>
<event>
 4    1  0.6086918E-004  0.3303518E+03  0.7818608E-02  0.1070981E+00
         -2   -1    0    0    0  501 -0.00000000000E+00  0.00000000000E+00  0.26205458497E+03  0.26205458498E+03  0.25500000000E-02 0. -1.
          2   -1    0    0  501    0  0.00000000000E+00 -0.00000000000E+00 -0.10411217388E+03  0.10411217391E+03  0.25500000000E-02 0.  1.
    5000001    1    1    2    0    0  0.10514604121E+03 -0.25844220133E+02  0.18774537375E+03  0.23000204143E+03  0.77000000000E+02 0.  0.
   -5000001    1    1    2    0    0 -0.10514604121E+03  0.25844220133E+02 -0.29802962664E+02  0.13616471746E+03  0.77000000000E+02 0.  0.
<mgrwt>
<rscale>  0 0.33035177E+03</rscale>
<asrwt>0</asrwt>
<pdfrwt beam="1">  1        2 0.16017258E-01 0.33035177E+03</pdfrwt>
<pdfrwt beam="2">  1       -2 0.40316090E-01 0.33035177E+03</pdfrwt>
<totfact> 0.21216840E+03</totfact>
</mgrwt>
</event>
<event>
 4    1  0.6086918E-004  0.3555446E+03  0.7818608E-02  0.1060362E+00
         -2   -1    0    0    0  501 -0.00000000000E+00  0.00000000000E+00  0.18568591130E+03  0.18568591132E+03  0.25500000000E-02 0. -1.
          2   -1    0    0  501    0  0.00000000000E+00 -0.00000000000E+00 -0.17019590758E+03  0.17019590760E+03  0.25500000000E-02 0.  1.
    5000001    1    1    2    0    0 -0.15002767574E+03 -0.54639887158E+02  0.21180157627E+02  0.17852568396E+03  0.77000000000E+02 0.  0.
   -5000001    1    1    2    0    0  0.15002767574E+03  0.54639887158E+02 -0.56901539052E+01  0.17735613496E+03  0.77000000000E+02 0.  0.
<mgrwt>
<rscale>  0 0.35554455E+03</rscale>
<asrwt>0</asrwt>
<pdfrwt beam="1">  1        2 0.26183986E-01 0.35554455E+03</pdfrwt>
<pdfrwt beam="2">  1       -2 0.28567063E-01 0.35554455E+03</pdfrwt>
<totfact> 0.22939789E+03</totfact>
</mgrwt>
</event>
<event>
 4    1  0.6086918E-004  0.1625911E+03  0.7818608E-02  0.1185802E+00
          2   -1    0    0  501    0  0.00000000000E+00  0.00000000000E+00  0.33139781925E+03  0.33139781926E+03  0.25500000000E-02 0.  1.
         -2   -1    0    0    0  501 -0.00000000000E+00 -0.00000000000E+00 -0.19942689350E+02  0.19942689513E+02  0.25500000000E-02 0. -1.
    5000001    1    1    2    0    0 -0.25549395901E+02  0.52139949596E+01  0.15590065929E+03  0.17582369847E+03  0.77000000000E+02 0.  0.
   -5000001    1    1    2    0    0  0.25549395901E+02 -0.52139949596E+01  0.15555447060E+03  0.17551681030E+03  0.77000000000E+02 0.  0.
<mgrwt>
<rscale>  0 0.16259107E+03</rscale>
<asrwt>0</asrwt>
<pdfrwt beam="1">  1        2 0.50984273E-01 0.16259107E+03</pdfrwt>
<pdfrwt beam="2">  1       -2 0.30681065E-02 0.16259107E+03</pdfrwt>
<totfact> 0.37893255E+04</totfact>
</mgrwt>
</event>
<event>
 4    1  0.6086918E-004  0.1719770E+03  0.7818608E-02  0.1175802E+00
          2   -1    0    0  501    0  0.00000000000E+00  0.00000000000E+00  0.15616048116E+04  0.15616048116E+04  0.25500000000E-02 0.  1.
         -2   -1    0    0    0  501 -0.00000000000E+00 -0.00000000000E+00 -0.47348849991E+01  0.47348856858E+01  0.25500000000E-02 0. -1.
    5000001    1    1    2    0    0  0.12062819447E+02 -0.17852145587E+02  0.10665668096E+04  0.10695597085E+04  0.77000000000E+02 0.  0.
   -5000001    1    1    2    0    0 -0.12062819447E+02  0.17852145587E+02  0.49030311700E+03  0.49677998878E+03  0.77000000000E+02 0.  0.
<mgrwt>
<rscale>  0 0.17197697E+03</rscale>
<asrwt>0</asrwt>
<pdfrwt beam="1">  1        2 0.24024729E+00 0.17197697E+03</pdfrwt>
<pdfrwt beam="2">  1       -2 0.72844271E-03 0.17197697E+03</pdfrwt>
<totfact> 0.41450915E+04</totfact>
</mgrwt>
</event>
<event>
 4    1  0.6086918E-004  0.1913221E+03  0.7818608E-02  0.1157274E+00
         -2   -1    0    0    0  501 -0.00000000000E+00  0.00000000000E+00  0.49742952617E+01  0.49742959153E+01  0.25500000000E-02 0. -1.
          2   -1    0    0  501    0  0.00000000000E+00 -0.00000000000E+00 -0.18396640793E+04  0.18396640793E+04  0.25500000000E-02 0.  1.
    5000001    1    1    2    0    0  0.23327914512E+02  0.35921588339E+02 -0.55820828283E+03  0.56511949101E+03  0.77000000000E+02 0.  0.
   -5000001    1    1    2    0    0 -0.23327914512E+02 -0.35921588339E+02 -0.12764815012E+04  0.12795188842E+04  0.77000000000E+02 0.  0.
<mgrwt>
<rscale>  0 0.19132206E+03</rscale>
<asrwt>0</asrwt>
<pdfrwt beam="1">  1        2 0.28302470E+00 0.19132206E+03</pdfrwt>
<pdfrwt beam="2">  1       -2 0.76527771E-03 0.19132206E+03</pdfrwt>
<totfact> 0.27876076E+04</totfact>
</mgrwt>
</event>
<event>
 4    1  0.6086918E-004  0.3970874E+03  0.7818608E-02  0.1044793E+00
         -2   -1    0    0    0  501 -0.00000000000E+00  0.00000000000E+00  0.41337253300E+02  0.41337253379E+02  0.25500000000E-02 0. -1.
          2   -1    0    0  501    0  0.00000000000E+00 -0.00000000000E+00 -0.95360936676E+03  0.95360936677E+03  0.25500000000E-02 0.  1.
    5000001    1    1    2    0    0  0.14578071705E+03 -0.99387169708E+02 -0.57787796460E+03  0.60909914541E+03  0.77000000000E+02 0.  0.
   -5000001    1    1    2    0    0 -0.14578071705E+03  0.99387169708E+02 -0.33439414887E+03  0.38584747474E+03  0.77000000000E+02 0.  0.
<mgrwt>
<rscale>  0 0.39708736E+03</rscale>
<asrwt>0</asrwt>
<pdfrwt beam="1">  1        2 0.14670912E+00 0.39708736E+03</pdfrwt>
<pdfrwt beam="2">  1       -2 0.63595781E-02 0.39708736E+03</pdfrwt>
<totfact> 0.38135607E+03</totfact>
</mgrwt>
</event>
<event>
 4    1  0.6086918E-004  0.2214376E+03  0.7818608E-02  0.1132816E+00
          2   -1    0    0  501    0  0.00000000000E+00  0.00000000000E+00  0.44074530946E+03  0.44074530946E+03  0.25500000000E-02 0.  1.
         -2   -1    0    0    0  501 -0.00000000000E+00 -0.00000000000E+00 -0.27813451349E+02  0.27813451465E+02  0.25500000000E-02 0. -1.
    5000001    1    1    2    0    0  0.15652673259E+02  0.77756248021E+02  0.19331818544E+03  0.22269252594E+03  0.77000000000E+02 0.  0.
   -5000001    1    1    2    0    0 -0.15652673259E+02 -0.77756248021E+02  0.21961367267E+03  0.24586623499E+03  0.77000000000E+02 0.  0.
<mgrwt>
<rscale>  0 0.22143756E+03</rscale>
<asrwt>0</asrwt>
<pdfrwt beam="1">  1        2 0.67806961E-01 0.22143756E+03</pdfrwt>
<pdfrwt beam="2">  1       -2 0.42789931E-02 0.22143756E+03</pdfrwt>
<totfact> 0.17411300E+04</totfact>
</mgrwt>
</event>
<event>
 4    1  0.6086918E-004  0.4091487E+03  0.7818608E-02  0.1040657E+00
          2   -1    0    0  501    0  0.00000000000E+00  0.00000000000E+00  0.30142412664E+03  0.30142412665E+03  0.25500000000E-02 0.  1.
         -2   -1    0    0    0  501 -0.00000000000E+00 -0.00000000000E+00 -0.13884308237E+03  0.13884308240E+03  0.25500000000E-02 0. -1.
    5000001    1    1    2    0    0 -0.79860405316E+02 -0.16790271721E+03  0.41714911559E+02  0.20551919772E+03  0.77000000000E+02 0.  0.
   -5000001    1    1    2    0    0  0.79860405316E+02  0.16790271721E+03  0.12086613271E+03  0.23474801133E+03  0.77000000000E+02 0.  0.
<mgrwt>
<rscale>  0 0.40914865E+03</rscale>
<asrwt>0</asrwt>
<pdfrwt beam="1">  1        2 0.46372942E-01 0.40914865E+03</pdfrwt>
<pdfrwt beam="2">  1       -2 0.21360474E-01 0.40914865E+03</pdfrwt>
<totfact> 0.20534860E+03</totfact>
</mgrwt>
</event>
<event>
 4    1  0.6086918E-004  0.2628563E+03  0.7818608E-02  0.1105439E+00
          2   -1    0    0  501    0  0.00000000000E+00  0.00000000000E+00  0.65659946613E+03  0.65659946614E+03  0.25500000000E-02 0.  1.
         -2   -1    0    0    0  501 -0.00000000000E+00 -0.00000000000E+00 -0.26307307862E+02  0.26307307985E+02  0.25500000000E-02 0. -1.
    5000001    1    1    2    0    0  0.54522660096E+02  0.90874663565E+02  0.28747507512E+03  0.31591429812E+03  0.77000000000E+02 0.  0.
   -5000001    1    1    2    0    0 -0.54522660096E+02 -0.90874663565E+02  0.34281708315E+03  0.36699247600E+03  0.77000000000E+02 0.  0.
<mgrwt>
<rscale>  0 0.26285634E+03</rscale>
<asrwt>0</asrwt>
<pdfrwt beam="1">  1        2 0.10101529E+00 0.26285634E+03</pdfrwt>
<pdfrwt beam="2">  1       -2 0.40472786E-02 0.26285634E+03</pdfrwt>
<totfact> 0.12155936E+04</totfact>
</mgrwt>
</event>
<event>
 4    1  0.6086918E-004  0.3314349E+03  0.7818608E-02  0.1070504E+00
         -2   -1    0    0    0  501 -0.00000000000E+00  0.00000000000E+00  0.15410347457E+03  0.15410347459E+03  0.25500000000E-02 0. -1.
          2   -1    0    0  501    0  0.00000000000E+00 -0.00000000000E+00 -0.17820670556E+03  0.17820670558E+03  0.25500000000E-02 0.  1.
    5000001    1    1    2    0    0  0.13477746956E+03 -0.56014387200E+02  0.31771316535E+01  0.16505051360E+03  0.77000000000E+02 0.  0.
   -5000001    1    1    2    0    0 -0.13477746956E+03  0.56014387200E+02 -0.27280362648E+02  0.16725966657E+03  0.77000000000E+02 0.  0.
<mgrwt>
<rscale>  0 0.33143490E+03</rscale>
<asrwt>0</asrwt>
<pdfrwt beam="1">  1        2 0.27416416E-01 0.33143490E+03</pdfrwt>
<pdfrwt beam="2">  1       -2 0.23708227E-01 0.33143490E+03</pdfrwt>
<totfact> 0.30352543E+03</totfact>
</mgrwt>
</event>
<event>
 4    1  0.6086918E-004  0.2279710E+03  0.7818608E-02  0.1128076E+00
          2   -1    0    0  501    0  0.00000000000E+00  0.00000000000E+00  0.78673489206E+03  0.78673489206E+03  0.25500000000E-02 0. -1.
         -2   -1    0    0    0  501 -0.00000000000E+00 -0.00000000000E+00 -0.16514701683E+02  0.16514701879E+02  0.25500000000E-02 0.  1.
    5000001    1    1    2    0    0 -0.35478319439E+02  0.68944357327E+02  0.49937369829E+03  0.51118991198E+03  0.77000000000E+02 0.  0.
   -5000001    1    1    2    0    0  0.35478319439E+02 -0.68944357327E+02  0.27084649208E+03  0.29205968197E+03  0.77000000000E+02 0.  0.
<mgrwt>
<rscale>  0 0.22797098E+03</rscale>
<asrwt>0</asrwt>
<pdfrwt beam="1">  1        2 0.12103616E+00 0.22797098E+03</pdfrwt>
<pdfrwt beam="2">  1       -2 0.25407229E-02 0.22797098E+03</pdfrwt>
<totfact> 0.19365113E+04</totfact>
</mgrwt>
</event>
<event>
 4    1  0.6086918E-004  0.4047145E+03  0.7818608E-02  0.1042159E+00
          2   -1    0    0  501    0  0.00000000000E+00  0.00000000000E+00  0.87305305313E+03  0.87305305313E+03  0.25500000000E-02 0.  1.
         -2   -1    0    0    0  501 -0.00000000000E+00 -0.00000000000E+00 -0.46902598271E+02  0.46902598340E+02  0.25500000000E-02 0. -1.
    5000001    1    1    2    0    0 -0.10666841095E+02 -0.11984725408E+03  0.73886899757E+03  0.75255135465E+03  0.77000000000E+02 0.  0.
   -5000001    1    1    2    0    0  0.10666841095E+02  0.11984725408E+03  0.87281457286E+02  0.16740429682E+03  0.77000000000E+02 0.  0.
<mgrwt>
<rscale>  0 0.40471450E+03</rscale>
<asrwt>0</asrwt>
<pdfrwt beam="1">  1        2 0.13431586E+00 0.40471450E+03</pdfrwt>
<pdfrwt beam="2">  1       -2 0.72157841E-02 0.40471450E+03</pdfrwt>
<totfact> 0.35338237E+03</totfact>
</mgrwt>
</event>
<event>
 4    1  0.6086918E-004  0.2176345E+03  0.7818608E-02  0.1135659E+00
         -2   -1    0    0    0  501 -0.00000000000E+00  0.00000000000E+00  0.11344187608E+02  0.11344187894E+02  0.25500000000E-02 0. -1.
          2   -1    0    0  501    0  0.00000000000E+00 -0.00000000000E+00 -0.10438112706E+04  0.10438112706E+04  0.25500000000E-02 0.  1.
    5000001    1    1    2    0    0  0.69780237166E+02  0.25127417324E+02 -0.61458606730E+03  0.62381543963E+03  0.77000000000E+02 0.  0.
   -5000001    1    1    2    0    0 -0.69780237166E+02 -0.25127417324E+02 -0.41788101564E+03  0.43134001882E+03  0.77000000000E+02 0.  0.
<mgrwt>
<rscale>  0 0.21763447E+03</rscale>
<asrwt>0</asrwt>
<pdfrwt beam="1">  1        2 0.16058627E+00 0.21763447E+03</pdfrwt>
<pdfrwt beam="2">  1       -2 0.17452605E-02 0.21763447E+03</pdfrwt>
<totfact> 0.22958788E+04</totfact>
</mgrwt>
</event>
<event>
 4    1  0.6086918E-004  0.2103199E+03  0.7818608E-02  0.1141313E+00
         -2   -1    0    0    0  501 -0.00000000000E+00  0.00000000000E+00  0.10700088520E+02  0.10700088824E+02  0.25500000000E-02 0. -1.
          2   -1    0    0  501    0  0.00000000000E+00 -0.00000000000E+00 -0.10335063975E+04  0.10335063975E+04  0.25500000000E-02 0.  1.
    5000001    1    1    2    0    0  0.72183512974E+01  0.60073322284E+02 -0.70167427700E+03  0.70847491109E+03  0.77000000000E+02 0.  0.
   -5000001    1    1    2    0    0 -0.72183512974E+01 -0.60073322284E+02 -0.32113203200E+03  0.33573157526E+03  0.77000000000E+02 0.  0.
<mgrwt>
<rscale>  0 0.21031985E+03</rscale>
<asrwt>0</asrwt>
<pdfrwt beam="1">  1        2 0.15900091E+00 0.21031985E+03</pdfrwt>
<pdfrwt beam="2">  1       -2 0.16461683E-02 0.21031985E+03</pdfrwt>
<totfact> 0.25308632E+04</totfact>
</mgrwt>
</event>
<event>
 4    1  0.6086918E-004  0.2816455E+03  0.7818608E-02  0.1094794E+00
         -2   -1    0    0    0  501 -0.00000000000E+00  0.00000000000E+00  0.21851037286E+03  0.21851037287E+03  0.25500000000E-02 0. -1.
          2   -1    0    0  501    0  0.00000000000E+00 -0.00000000000E+00 -0.90755643288E+02  0.90755643324E+02  0.25500000000E-02 0.  1.
    5000001    1    1    2    0    0  0.93610239111E+02  0.55052474382E+02  0.11429768717E+03  0.17546114412E+03  0.77000000000E+02 0.  0.
   -5000001    1    1    2    0    0 -0.93610239111E+02 -0.55052474382E+02  0.13457042397E+02  0.13380487208E+03  0.77000000000E+02 0.  0.
<mgrwt>
<rscale>  0 0.28164552E+03</rscale>
<asrwt>0</asrwt>
<pdfrwt beam="1">  1        2 0.13962407E-01 0.28164552E+03</pdfrwt>
<pdfrwt beam="2">  1       -2 0.33616980E-01 0.28164552E+03</pdfrwt>
<totfact> 0.35059514E+03</totfact>
</mgrwt>
</event>
<event>
 4    1  0.6086918E-004  0.2547197E+03  0.7818608E-02  0.1110358E+00
         -2   -1    0    0    0  501 -0.00000000000E+00  0.00000000000E+00  0.32527359332E+02  0.32527359432E+02  0.25500000000E-02 0. -1.
          2   -1    0    0  501    0  0.00000000000E+00 -0.00000000000E+00 -0.49867362563E+03  0.49867362564E+03  0.25500000000E-02 0.  1.
    5000001    1    1    2    0    0 -0.48493150315E+02 -0.84463372540E+02 -0.29227480480E+03  0.31755189882E+03  0.77000000000E+02 0.  0.
   -5000001    1    1    2    0    0  0.48493150315E+02  0.84463372540E+02 -0.17387146150E+03  0.21364908625E+03  0.77000000000E+02 0.  0.
<mgrwt>
<rscale>  0 0.25471974E+03</rscale>
<asrwt>0</asrwt>
<pdfrwt beam="1">  1        2 0.76719014E-01 0.25471974E+03</pdfrwt>
<pdfrwt beam="2">  1       -2 0.50042095E-02 0.25471974E+03</pdfrwt>
<totfact> 0.12083501E+04</totfact>
</mgrwt>
</event>
<event>
 4    1  0.6086918E-004  0.3137333E+03  0.7818608E-02  0.1078570E+00
          2   -1    0    0  501    0  0.00000000000E+00  0.00000000000E+00  0.87586798602E+03  0.87586798602E+03  0.25500000000E-02 0.  1.
         -2   -1    0    0    0  501 -0.00000000000E+00 -0.00000000000E+00 -0.28094577485E+02  0.28094577601E+02  0.25500000000E-02 0. -1.
    5000001    1    1    2    0    0  0.57207157749E+02 -0.12304532936E+03  0.37695327432E+03  0.40796517376E+03  0.77000000000E+02 0.  0.
   -5000001    1    1    2    0    0 -0.57207157749E+02  0.12304532936E+03  0.47082013421E+03  0.49599738987E+03  0.77000000000E+02 0.  0.
<mgrwt>
<rscale>  0 0.31373327E+03</rscale>
<asrwt>0</asrwt>
<pdfrwt beam="1">  1        2 0.13474890E+00 0.31373327E+03</pdfrwt>
<pdfrwt beam="2">  1       -2 0.43222434E-02 0.31373327E+03</pdfrwt>
<totfact> 0.77161443E+03</totfact>
</mgrwt>
</event>
<event>
 4    1  0.6086918E-004  0.2481385E+03  0.7818608E-02  0.1114487E+00
         -2   -1    0    0    0  501 -0.00000000000E+00  0.00000000000E+00  0.13309846877E+02  0.13309847121E+02  0.25500000000E-02 0. -1.
          2   -1    0    0  501    0  0.00000000000E+00 -0.00000000000E+00 -0.11565254987E+04  0.11565254987E+04  0.25500000000E-02 0.  1.
    5000001    1    1    2    0    0 -0.33704122789E+02  0.27702380401E+02 -0.16167365005E+03  0.18431158100E+03  0.77000000000E+02 0.  0.
   -5000001    1    1    2    0    0  0.33704122789E+02 -0.27702380401E+02 -0.98154200180E+03  0.98552376485E+03  0.77000000000E+02 0.  0.
<mgrwt>
<rscale>  0 0.24813849E+03</rscale>
<asrwt>0</asrwt>
<pdfrwt beam="1">  1        2 0.17792692E+00 0.24813849E+03</pdfrwt>
<pdfrwt beam="2">  1       -2 0.20476697E-02 0.24813849E+03</pdfrwt>
<totfact> 0.15708964E+04</totfact>
</mgrwt>
</event>
<event>
 4    1  0.6086918E-004  0.2124893E+03  0.7818608E-02  0.1139610E+00
         -2   -1    0    0    0  501 -0.00000000000E+00  0.00000000000E+00  0.45419540963E+02  0.45419541034E+02  0.25500000000E-02 0. -1.
          2   -1    0    0  501    0  0.00000000000E+00 -0.00000000000E+00 -0.24852585000E+03  0.24852585001E+03  0.25500000000E-02 0.  1.
    5000001    1    1    2    0    0  0.45352443762E+02  0.51756222460E+02 -0.67014477384E+02  0.12310763948E+03  0.77000000000E+02 0.  0.
   -5000001    1    1    2    0    0 -0.45352443762E+02 -0.51756222460E+02 -0.13609183165E+03  0.17083775157E+03  0.77000000000E+02 0.  0.
<mgrwt>
<rscale>  0 0.21248934E+03</rscale>
<asrwt>0</asrwt>
<pdfrwt beam="1">  1        2 0.38234745E-01 0.21248934E+03</pdfrwt>
<pdfrwt beam="2">  1       -2 0.69876218E-02 0.21248934E+03</pdfrwt>
<totfact> 0.15249799E+04</totfact>
</mgrwt>
</event>
<event>
 4    1  0.6086918E-004  0.2474342E+03  0.7818608E-02  0.1114937E+00
          2   -1    0    0  501    0  0.00000000000E+00  0.00000000000E+00  0.12258389805E+04  0.12258389805E+04  0.25500000000E-02 0.  1.
         -2   -1    0    0    0  501 -0.00000000000E+00 -0.00000000000E+00 -0.12486077234E+02  0.12486077494E+02  0.25500000000E-02 0. -1.
    5000001    1    1    2    0    0  0.40024273421E+02  0.75091693549E+02  0.37536482294E+03  0.39251554773E+03  0.77000000000E+02 0.  0.
   -5000001    1    1    2    0    0 -0.40024273421E+02 -0.75091693549E+02  0.83798808031E+03  0.84580951026E+03  0.77000000000E+02 0.  0.
<mgrwt>
<rscale>  0 0.24743420E+03</rscale>
<asrwt>0</asrwt>
<pdfrwt beam="1">  1        2 0.18859060E+00 0.24743420E+03</pdfrwt>
<pdfrwt beam="2">  1       -2 0.19209351E-02 0.24743420E+03</pdfrwt>
<totfact> 0.15756965E+04</totfact>
</mgrwt>
</event>
<event>
 4    1  0.6086918E-004  0.2825244E+03  0.7818608E-02  0.1094318E+00
          2   -1    0    0  501    0  0.00000000000E+00  0.00000000000E+00  0.16461472731E+04  0.16461472731E+04  0.25500000000E-02 0.  1.
         -2   -1    0    0    0  501 -0.00000000000E+00 -0.00000000000E+00 -0.12122252197E+02  0.12122252465E+02  0.25500000000E-02 0. -1.
    5000001    1    1    2    0    0 -0.93901385922E+01  0.91976084032E+02  0.12514422662E+04  0.12572129972E+04  0.77000000000E+02 0.  0.
   -5000001    1    1    2    0    0  0.93901385922E+01 -0.91976084032E+02  0.38258275469E+03  0.40105652834E+03  0.77000000000E+02 0.  0.
<mgrwt>
<rscale>  0 0.28252442E+03</rscale>
<asrwt>0</asrwt>
<pdfrwt beam="1">  1        2 0.25325331E+00 0.28252442E+03</pdfrwt>
<pdfrwt beam="2">  1       -2 0.18649628E-02 0.28252442E+03</pdfrwt>
<totfact> 0.97800014E+03</totfact>
</mgrwt>
</event>
<event>
 4    1  0.6086918E-004  0.3811259E+03  0.7818608E-02  0.1050518E+00
         -2   -1    0    0    0  501 -0.00000000000E+00  0.00000000000E+00  0.41488407184E+02  0.41488407262E+02  0.25500000000E-02 0. -1.
          2   -1    0    0  501    0  0.00000000000E+00 -0.00000000000E+00 -0.87528660758E+03  0.87528660758E+03  0.25500000000E-02 0.  1.
    5000001    1    1    2    0    0  0.13090617035E+03 -0.10198153519E+03 -0.28851563595E+03  0.34162396161E+03  0.77000000000E+02 0.  0.
   -5000001    1    1    2    0    0 -0.13090617035E+03  0.10198153519E+03 -0.54528256444E+03  0.57515105324E+03  0.77000000000E+02 0.  0.
<mgrwt>
<rscale>  0 0.38112595E+03</rscale>
<asrwt>0</asrwt>
<pdfrwt beam="1">  1        2 0.13465946E+00 0.38112595E+03</pdfrwt>
<pdfrwt beam="2">  1       -2 0.63828325E-02 0.38112595E+03</pdfrwt>
<totfact> 0.42622714E+03</totfact>
</mgrwt>
</event>
<event>
 4    1  0.6086918E-004  0.3043326E+03  0.7818608E-02  0.1083095E+00
         -2   -1    0    0    0  501 -0.00000000000E+00  0.00000000000E+00  0.13508932109E+02  0.13508932350E+02  0.25500000000E-02 0. -1.
          2   -1    0    0  501    0  0.00000000000E+00 -0.00000000000E+00 -0.17140202700E+04  0.17140202700E+04  0.25500000000E-02 0.  1.
    5000001    1    1    2    0    0  0.11400539070E+03 -0.46125304663E+02 -0.59007777887E+03  0.60765578904E+03  0.77000000000E+02 0.  0.
   -5000001    1    1    2    0    0 -0.11400539070E+03  0.46125304663E+02 -0.11104335591E+04  0.11198734134E+04  0.77000000000E+02 0.  0.
<mgrwt>
<rscale>  0 0.30433261E+03</rscale>
<asrwt>0</asrwt>
<pdfrwt beam="1">  1        2 0.26369525E+00 0.30433261E+03</pdfrwt>
<pdfrwt beam="2">  1       -2 0.20782986E-02 0.30433261E+03</pdfrwt>
<totfact> 0.76831650E+03</totfact>
</mgrwt>
</event>
<event>
 4    1  0.6086918E-004  0.1978163E+03  0.7818608E-02  0.1151595E+00
         -2   -1    0    0    0  501 -0.00000000000E+00  0.00000000000E+00  0.40987339207E+01  0.40987347139E+01  0.25500000000E-02 0. -1.
          2   -1    0    0  501    0  0.00000000000E+00 -0.00000000000E+00 -0.23867911452E+04  0.23867911452E+04  0.25500000000E-02 0.  1.
    5000001    1    1    2    0    0 -0.56359142283E+02  0.19137836172E+02 -0.97812695624E+03  0.98295673974E+03  0.77000000000E+02 0.  0.
   -5000001    1    1    2    0    0  0.56359142283E+02 -0.19137836172E+02 -0.14045654550E+04  0.14079331402E+04  0.77000000000E+02 0.  0.
<mgrwt>
<rscale>  0 0.19781631E+03</rscale>
<asrwt>0</asrwt>
<pdfrwt beam="1">  1        2 0.36719753E+00 0.19781631E+03</pdfrwt>
<pdfrwt beam="2">  1       -2 0.63057642E-03 0.19781631E+03</pdfrwt>
<totfact> 0.19050564E+04</totfact>
</mgrwt>
</event>
<event>
 4    1  0.6086918E-004  0.1705878E+03  0.7818608E-02  0.1177236E+00
          2   -1    0    0  501    0  0.00000000000E+00  0.00000000000E+00  0.25090710808E+03  0.25090710810E+03  0.25500000000E-02 0.  1.
         -2   -1    0    0    0  501 -0.00000000000E+00 -0.00000000000E+00 -0.28994990038E+02  0.28994990150E+02  0.25500000000E-02 0. -1.
    5000001    1    1    2    0    0  0.57944258807E+01  0.35577394192E+02  0.12217165808E+03  0.14884300584E+03  0.77000000000E+02 0.  0.
   -5000001    1    1    2    0    0 -0.57944258807E+01 -0.35577394192E+02  0.99740459967E+02  0.13105909241E+03  0.77000000000E+02 0.  0.
<mgrwt>
<rscale>  0 0.17058780E+03</rscale>
<asrwt>0</asrwt>
<pdfrwt beam="1">  1        2 0.38601095E-01 0.17058780E+03</pdfrwt>
<pdfrwt beam="2">  1       -2 0.44607675E-02 0.17058780E+03</pdfrwt>
<totfact> 0.29347781E+04</totfact>
</mgrwt>
</event>
<event>
 4    1  0.6086918E-004  0.3339615E+03  0.7818608E-02  0.1069397E+00
          2   -1    0    0  501    0  0.00000000000E+00  0.00000000000E+00  0.54287934614E+03  0.54287934615E+03  0.25500000000E-02 0.  1.
         -2   -1    0    0    0  501 -0.00000000000E+00 -0.00000000000E+00 -0.51360524405E+02  0.51360524468E+02  0.25500000000E-02 0. -1.
    5000001    1    1    2    0    0 -0.36739107147E+02 -0.13805561979E+03  0.31568764860E+03  0.35496029021E+03  0.77000000000E+02 0.  0.
   -5000001    1    1    2    0    0  0.36739107147E+02  0.13805561979E+03  0.17583117314E+03  0.23927958040E+03  0.77000000000E+02 0.  0.
<mgrwt>
<rscale>  0 0.33396148E+03</rscale>
<asrwt>0</asrwt>
<pdfrwt beam="1">  1        2 0.83519904E-01 0.33396148E+03</pdfrwt>
<pdfrwt beam="2">  1       -2 0.79016187E-02 0.33396148E+03</pdfrwt>
<totfact> 0.54783691E+03</totfact>
</mgrwt>
</event>
<event>
 4    1  0.6086918E-004  0.3769989E+03  0.7818608E-02  0.1052049E+00
          2   -1    0    0  501    0  0.00000000000E+00  0.00000000000E+00  0.91714986345E+03  0.91714986345E+03  0.25500000000E-02 0.  1.
         -2   -1    0    0    0  501 -0.00000000000E+00 -0.00000000000E+00 -0.38741816639E+02  0.38741816723E+02  0.25500000000E-02 0. -1.
    5000001    1    1    2    0    0  0.31500402659E+02  0.16610728031E+03  0.35825955815E+03  0.40356265306E+03  0.77000000000E+02 0.  0.
   -5000001    1    1    2    0    0 -0.31500402659E+02 -0.16610728031E+03  0.52014848866E+03  0.55232902711E+03  0.77000000000E+02 0.  0.
<mgrwt>
<rscale>  0 0.37699895E+03</rscale>
<asrwt>0</asrwt>
<pdfrwt beam="1">  1        2 0.14109997E+00 0.37699895E+03</pdfrwt>
<pdfrwt beam="2">  1       -2 0.59602798E-02 0.37699895E+03</pdfrwt>
<totfact> 0.44485572E+03</totfact>
</mgrwt>
</event>
<event>
 4    1  0.6086918E-004  0.2772646E+03  0.7818608E-02  0.1097192E+00
         -2   -1    0    0    0  501 -0.00000000000E+00  0.00000000000E+00  0.80837265119E+01  0.80837269141E+01  0.25500000000E-02 0. -1.
          2   -1    0    0  501    0  0.00000000000E+00 -0.00000000000E+00 -0.23774826126E+04  0.23774826126E+04  0.25500000000E-02 0.  1.
    5000001    1    1    2    0    0 -0.84323202520E+02  0.18672339440E+02 -0.52770248412E+03  0.54023880876E+03  0.77000000000E+02 0.  0.
   -5000001    1    1    2    0    0  0.84323202520E+02 -0.18672339440E+02 -0.18416964019E+04  0.18453275307E+04  0.77000000000E+02 0.  0.
<mgrwt>
<rscale>  0 0.27726464E+03</rscale>
<asrwt>0</asrwt>
<pdfrwt beam="1">  1        2 0.36576600E+00 0.27726464E+03</pdfrwt>
<pdfrwt beam="2">  1       -2 0.12436522E-02 0.27726464E+03</pdfrwt>
<totfact> 0.72573103E+03</totfact>
</mgrwt>
</event>
<event>
 4    1  0.6086918E-004  0.2928020E+03  0.7818608E-02  0.1088895E+00
          2   -1    0    0  501    0  0.00000000000E+00  0.00000000000E+00  0.19078025555E+04  0.19078025555E+04  0.25500000000E-02 0.  1.
         -2   -1    0    0    0  501 -0.00000000000E+00 -0.00000000000E+00 -0.11234524802E+02  0.11234525091E+02  0.25500000000E-02 0. -1.
    5000001    1    1    2    0    0  0.99839521477E+02 -0.19478692496E+02  0.47762768491E+03  0.49437289054E+03  0.77000000000E+02 0.  0.
   -5000001    1    1    2    0    0 -0.99839521477E+02  0.19478692496E+02  0.14189403458E+04  0.14246641901E+04  0.77000000000E+02 0.  0.
<mgrwt>
<rscale>  0 0.29280202E+03</rscale>
<asrwt>0</asrwt>
<pdfrwt beam="1">  1        2 0.29350819E+00 0.29280202E+03</pdfrwt>
<pdfrwt beam="2">  1       -2 0.17283878E-02 0.29280202E+03</pdfrwt>
<totfact> 0.79664098E+03</totfact>
</mgrwt>
</event>
<event>
 4    1  0.6086918E-004  0.3106417E+03  0.7818608E-02  0.1080039E+00
         -2   -1    0    0    0  501 -0.00000000000E+00  0.00000000000E+00  0.25065480884E+03  0.25065480885E+03  0.25500000000E-02 0. -1.
          2   -1    0    0  501    0  0.00000000000E+00 -0.00000000000E+00 -0.96246173535E+02  0.96246173568E+02  0.25500000000E-02 0.  1.
    5000001    1    1    2    0    0 -0.67793532041E+02  0.10976776953E+03  0.33229781012E+02  0.15387704364E+03  0.77000000000E+02 0.  0.
   -5000001    1    1    2    0    0  0.67793532041E+02 -0.10976776953E+03  0.12117885429E+03  0.19302393878E+03  0.77000000000E+02 0.  0.
<mgrwt>
<rscale>  0 0.31064170E+03</rscale>
<asrwt>0</asrwt>
<pdfrwt beam="1">  1        2 0.14807104E-01 0.31064170E+03</pdfrwt>
<pdfrwt beam="2">  1       -2 0.38562278E-01 0.31064170E+03</pdfrwt>
<totfact> 0.25324685E+03</totfact>
</mgrwt>
</event>
<event>
 4    1  0.6086918E-004  0.1685103E+03  0.7818608E-02  0.1179410E+00
         -2   -1    0    0    0  501 -0.00000000000E+00  0.00000000000E+00  0.13280683592E+02  0.13280683837E+02  0.25500000000E-02 0. -1.
          2   -1    0    0  501    0  0.00000000000E+00 -0.00000000000E+00 -0.53453028408E+03  0.53453028408E+03  0.25500000000E-02 0.  1.
    5000001    1    1    2    0    0  0.29578426588E+02 -0.13439180803E+02 -0.29540079043E+03  0.30699531249E+03  0.77000000000E+02 0.  0.
   -5000001    1    1    2    0    0 -0.29578426588E+02  0.13439180803E+02 -0.22584881005E+03  0.24081565543E+03  0.77000000000E+02 0.  0.
<mgrwt>
<rscale>  0 0.16851027E+03</rscale>
<asrwt>0</asrwt>
<pdfrwt beam="1">  1        2 0.82235412E-01 0.16851027E+03</pdfrwt>
<pdfrwt beam="2">  1       -2 0.20431825E-02 0.16851027E+03</pdfrwt>
<totfact> 0.41114900E+04</totfact>
</mgrwt>
</event>
<event>
 4    1  0.6086918E-004  0.2111575E+03  0.7818608E-02  0.1140653E+00
          2   -1    0    0  501    0  0.00000000000E+00  0.00000000000E+00  0.34734995810E+03  0.34734995811E+03  0.25500000000E-02 0.  1.
         -2   -1    0    0    0  501 -0.00000000000E+00 -0.00000000000E+00 -0.32091177476E+02  0.32091177578E+02  0.25500000000E-02 0. -1.
    5000001    1    1    2    0    0  0.35980951171E+02  0.15081183506E+02  0.48386774590E+02  0.98956308027E+02  0.77000000000E+02 0.  0.
   -5000001    1    1    2    0    0 -0.35980951171E+02 -0.15081183506E+02  0.26687200603E+03  0.28048482766E+03  0.77000000000E+02 0.  0.
<mgrwt>
<rscale>  0 0.21115747E+03</rscale>
<asrwt>0</asrwt>
<pdfrwt beam="1">  1        2 0.53438455E-01 0.21115747E+03</pdfrwt>
<pdfrwt beam="2">  1       -2 0.49371043E-02 0.21115747E+03</pdfrwt>
<totfact> 0.18096423E+04</totfact>
</mgrwt>
</event>
<event>
 4    1  0.6086918E-004  0.2286066E+03  0.7818608E-02  0.1127624E+00
         -2   -1    0    0    0  501 -0.00000000000E+00  0.00000000000E+00  0.65564095997E+01  0.65564100956E+01  0.25500000000E-02 0. -1.
          2   -1    0    0  501    0  0.00000000000E+00 -0.00000000000E+00 -0.19927433830E+04  0.19927433830E+04  0.25500000000E-02 0.  1.
    5000001    1    1    2    0    0 -0.71272119031E+02 -0.44775244140E+02 -0.10559796442E+04  0.10621236022E+04  0.77000000000E+02 0.  0.
   -5000001    1    1    2    0    0  0.71272119031E+02  0.44775244140E+02 -0.93020732915E+03  0.93717619083E+03  0.77000000000E+02 0.  0.
<mgrwt>
<rscale>  0 0.22860658E+03</rscale>
<asrwt>0</asrwt>
<pdfrwt beam="1">  1        2 0.30657542E+00 0.22860658E+03</pdfrwt>
<pdfrwt beam="2">  1       -2 0.10086800E-02 0.22860658E+03</pdfrwt>
<totfact> 0.15697014E+04</totfact>
</mgrwt>
</event>
<event>
 4    1  0.6086918E-004  0.2312759E+03  0.7818608E-02  0.1125745E+00
          2   -1    0    0  501    0  0.00000000000E+00  0.00000000000E+00  0.26762896420E+04  0.26762896420E+04  0.25500000000E-02 0.  1.
         -2   -1    0    0    0  501 -0.00000000000E+00 -0.00000000000E+00 -0.49965216855E+01  0.49965223362E+01  0.25500000000E-02 0. -1.
    5000001    1    1    2    0    0 -0.80955175106E+02 -0.18732034846E+02  0.10666109048E+04  0.10726101117E+04  0.77000000000E+02 0.  0.
   -5000001    1    1    2    0    0  0.80955175106E+02  0.18732034846E+02  0.16046822155E+04  0.16086760526E+04  0.77000000000E+02 0.  0.
<mgrwt>
<rscale>  0 0.23127594E+03</rscale>
<asrwt>0</asrwt>
<pdfrwt beam="1">  1        2 0.41173664E+00 0.23127594E+03</pdfrwt>
<pdfrwt beam="2">  1       -2 0.76869611E-03 0.23127594E+03</pdfrwt>
<totfact> 0.99886719E+03</totfact>
</mgrwt>
</event>
<event>
 4    1  0.6086918E-004  0.2672437E+03  0.7818608E-02  0.1102868E+00
          2   -1    0    0  501    0  0.00000000000E+00  0.00000000000E+00  0.64226637550E+03  0.64226637551E+03  0.25500000000E-02 0.  1.
         -2   -1    0    0    0  501 -0.00000000000E+00 -0.00000000000E+00 -0.27799669434E+02  0.27799669551E+02  0.25500000000E-02 0. -1.
    5000001    1    1    2    0    0  0.52136224712E+02 -0.88692844314E+02  0.21540965529E+03  0.25082847955E+03  0.77000000000E+02 0.  0.
   -5000001    1    1    2    0    0 -0.52136224712E+02  0.88692844314E+02  0.39905705078E+03  0.41923756551E+03  0.77000000000E+02 0.  0.
<mgrwt>
<rscale>  0 0.26724366E+03</rscale>
<asrwt>0</asrwt>
<pdfrwt beam="1">  1        2 0.98810197E-01 0.26724366E+03</pdfrwt>
<pdfrwt beam="2">  1       -2 0.42768729E-02 0.26724366E+03</pdfrwt>
<totfact> 0.11490993E+04</totfact>
</mgrwt>
</event>
<event>
 4    1  0.6086918E-004  0.2239146E+03  0.7818608E-02  0.1130998E+00
         -2   -1    0    0    0  501 -0.00000000000E+00  0.00000000000E+00  0.43573942559E+02  0.43573942633E+02  0.25500000000E-02 0. -1.
          2   -1    0    0  501    0  0.00000000000E+00 -0.00000000000E+00 -0.28765902606E+03  0.28765902607E+03  0.25500000000E-02 0.  1.
    5000001    1    1    2    0    0  0.74686990017E+02  0.28079449130E+02 -0.99181238737E+02  0.14877002406E+03  0.77000000000E+02 0.  0.
   -5000001    1    1    2    0    0 -0.74686990017E+02 -0.28079449130E+02 -0.14490384477E+03  0.18246294465E+03  0.77000000000E+02 0.  0.
<mgrwt>
<rscale>  0 0.22391461E+03</rscale>
<asrwt>0</asrwt>
<pdfrwt beam="1">  1        2 0.44255233E-01 0.22391461E+03</pdfrwt>
<pdfrwt beam="2">  1       -2 0.67036837E-02 0.22391461E+03</pdfrwt>
<totfact> 0.13942502E+04</totfact>
</mgrwt>
</event>
<event>
 4    1  0.6086918E-004  0.1828663E+03  0.7818608E-02  0.1165058E+00
         -2   -1    0    0    0  501 -0.00000000000E+00  0.00000000000E+00  0.10571682679E+02  0.10571682987E+02  0.25500000000E-02 0. -1.
          2   -1    0    0  501    0  0.00000000000E+00 -0.00000000000E+00 -0.79079341401E+03  0.79079341401E+03  0.25500000000E-02 0.  1.
    5000001    1    1    2    0    0 -0.12513055898E+02 -0.23412132357E+02 -0.20803324490E+03  0.22340889753E+03  0.77000000000E+02 0.  0.
   -5000001    1    1    2    0    0  0.12513055898E+02  0.23412132357E+02 -0.57218848643E+03  0.57795619947E+03  0.77000000000E+02 0.  0.
<mgrwt>
<rscale>  0 0.18286626E+03</rscale>
<asrwt>0</asrwt>
<pdfrwt beam="1">  1        2 0.12166048E+00 0.18286626E+03</pdfrwt>
<pdfrwt beam="2">  1       -2 0.16264134E-02 0.18286626E+03</pdfrwt>
<totfact> 0.36417527E+04</totfact>
</mgrwt>
</event>
<event>
 4    1  0.6086918E-004  0.4655964E+03  0.7818608E-02  0.1023171E+00
         -2   -1    0    0    0  501 -0.00000000000E+00  0.00000000000E+00  0.11415375872E+03  0.11415375875E+03  0.25500000000E-02 0. -1.
          2   -1    0    0  501    0  0.00000000000E+00 -0.00000000000E+00 -0.47475436402E+03  0.47475436403E+03  0.25500000000E-02 0.  1.
    5000001    1    1    2    0    0 -0.90068537851E+02  0.19104196030E+03 -0.25678561647E+03  0.34128759857E+03  0.77000000000E+02 0.  0.
   -5000001    1    1    2    0    0  0.90068537851E+02 -0.19104196030E+03 -0.10381498883E+03  0.24762052422E+03  0.77000000000E+02 0.  0.
<mgrwt>
<rscale>  0 0.46559637E+03</rscale>
<asrwt>0</asrwt>
<pdfrwt beam="1">  1        2 0.73039132E-01 0.46559637E+03</pdfrwt>
<pdfrwt beam="2">  1       -2 0.17562117E-01 0.46559637E+03</pdfrwt>
<totfact> 0.17432570E+03</totfact>
</mgrwt>
</event>
<event>
 4    1  0.6086918E-004  0.2904105E+03  0.7818608E-02  0.1090135E+00
          2   -1    0    0  501    0  0.00000000000E+00  0.00000000000E+00  0.21269614827E+04  0.21269614827E+04  0.25500000000E-02 0.  1.
         -2   -1    0    0    0  501 -0.00000000000E+00 -0.00000000000E+00 -0.99129947674E+01  0.99129950954E+01  0.25500000000E-02 0. -1.
    5000001    1    1    2    0    0 -0.48334240191E+02  0.61162868807E+02  0.35743560730E+03  0.37385332507E+03  0.77000000000E+02 0.  0.
   -5000001    1    1    2    0    0  0.48334240191E+02 -0.61162868807E+02  0.17596128806E+04  0.17630211527E+04  0.77000000000E+02 0.  0.
<mgrwt>
<rscale>  0 0.29041046E+03</rscale>
<asrwt>0</asrwt>
<pdfrwt beam="1">  1        2 0.32722506E+00 0.29041046E+03</pdfrwt>
<pdfrwt beam="2">  1       -2 0.15250751E-02 0.29041046E+03</pdfrwt>
<totfact> 0.73335978E+03</totfact>
</mgrwt>
</event>
<event>
 4    1  0.6086918E-004  0.2623159E+03  0.7818608E-02  0.1105760E+00
          2   -1    0    0  501    0  0.00000000000E+00  0.00000000000E+00  0.14711920583E+03  0.14711920585E+03  0.25500000000E-02 0.  1.
         -2   -1    0    0    0  501 -0.00000000000E+00 -0.00000000000E+00 -0.11692835366E+03  0.11692835369E+03  0.25500000000E-02 0. -1.
    5000001    1    1    2    0    0 -0.77159571467E+01  0.10008895702E+03  0.49907995600E+02  0.13600420338E+03  0.77000000000E+02 0.  0.
   -5000001    1    1    2    0    0  0.77159571467E+01 -0.10008895702E+03 -0.19717143433E+02  0.12804335616E+03  0.77000000000E+02 0.  0.
<mgrwt>
<rscale>  0 0.26231589E+03</rscale>
<asrwt>0</asrwt>
<pdfrwt beam="1">  1        2 0.22633724E-01 0.26231589E+03</pdfrwt>
<pdfrwt beam="2">  1       -2 0.17988978E-01 0.26231589E+03</pdfrwt>
<totfact> 0.60093537E+03</totfact>
</mgrwt>
</event>
<event>
 4    1  0.6086918E-004  0.2377261E+03  0.7818608E-02  0.1121317E+00
         -2   -1    0    0    0  501 -0.00000000000E+00  0.00000000000E+00  0.19578436589E+02  0.19578436755E+02  0.25500000000E-02 0. -1.
          2   -1    0    0  501    0  0.00000000000E+00 -0.00000000000E+00 -0.72163212921E+03  0.72163212922E+03  0.25500000000E-02 0.  1.
    5000001    1    1    2    0    0  0.31003035675E+02 -0.72919016447E+02 -0.48768479015E+03  0.50004382380E+03  0.77000000000E+02 0.  0.
   -5000001    1    1    2    0    0 -0.31003035675E+02  0.72919016447E+02 -0.21436890248E+03  0.24116674217E+03  0.77000000000E+02 0.  0.
<mgrwt>
<rscale>  0 0.23772614E+03</rscale>
<asrwt>0</asrwt>
<pdfrwt beam="1">  1        2 0.11102031E+00 0.23772614E+03</pdfrwt>
<pdfrwt beam="2">  1       -2 0.30120677E-02 0.23772614E+03</pdfrwt>
<totfact> 0.16790738E+04</totfact>
</mgrwt>
</event>
<event>
 4    1  0.6086918E-004  0.2399034E+03  0.7818608E-02  0.1119857E+00
          2   -1    0    0  501    0  0.00000000000E+00  0.00000000000E+00  0.26534555166E+03  0.26534555167E+03  0.25500000000E-02 0.  1.
         -2   -1    0    0    0  501 -0.00000000000E+00 -0.00000000000E+00 -0.54225201535E+02  0.54225201595E+02  0.25500000000E-02 0. -1.
    5000001    1    1    2    0    0  0.69425155467E+02 -0.49319180100E+02  0.15184269161E+03  0.19036133203E+03  0.77000000000E+02 0.  0.
   -5000001    1    1    2    0    0 -0.69425155467E+02  0.49319180100E+02  0.59277658517E+02  0.12920942124E+03  0.77000000000E+02 0.  0.
<mgrwt>
<rscale>  0 0.23990345E+03</rscale>
<asrwt>0</asrwt>
<pdfrwt beam="1">  1        2 0.40822393E-01 0.23990345E+03</pdfrwt>
<pdfrwt beam="2">  1       -2 0.83423387E-02 0.23990345E+03</pdfrwt>
<totfact> 0.10871709E+04</totfact>
</mgrwt>
</event>
<event>
 4    1  0.6086918E-004  0.1863649E+03  0.7818608E-02  0.1161781E+00
          2   -1    0    0  501    0  0.00000000000E+00  0.00000000000E+00  0.10953994484E+04  0.10953994484E+04  0.25500000000E-02 0.  1.
         -2   -1    0    0    0  501 -0.00000000000E+00 -0.00000000000E+00 -0.79267607655E+01  0.79267611756E+01  0.25500000000E-02 0. -1.
    5000001    1    1    2    0    0  0.47179305017E+02  0.63473922360E+01  0.67449117787E+03  0.68053914305E+03  0.77000000000E+02 0.  0.
   -5000001    1    1    2    0    0 -0.47179305017E+02 -0.63473922360E+01  0.41298150980E+03  0.42278706655E+03  0.77000000000E+02 0.  0.
<mgrwt>
<rscale>  0 0.18636491E+03</rscale>
<asrwt>0</asrwt>
<pdfrwt beam="1">  1        2 0.16852289E+00 0.18636491E+03</pdfrwt>
<pdfrwt beam="2">  1       -2 0.12195024E-02 0.18636491E+03</pdfrwt>
<totfact> 0.35677767E+04</totfact>
</mgrwt>
</event>
<event>
 4    1  0.6086918E-004  0.2899013E+03  0.7818608E-02  0.1090401E+00
          2   -1    0    0  501    0  0.00000000000E+00  0.00000000000E+00  0.28306326921E+03  0.28306326922E+03  0.25500000000E-02 0.  1.
         -2   -1    0    0    0  501 -0.00000000000E+00 -0.00000000000E+00 -0.74226139209E+02  0.74226139252E+02  0.25500000000E-02 0. -1.
    5000001    1    1    2    0    0  0.10845098908E+03 -0.39919497439E+02  0.53208592613E+02  0.14871226458E+03  0.77000000000E+02 0.  0.
   -5000001    1    1    2    0    0 -0.10845098908E+03  0.39919497439E+02  0.15562853739E+03  0.20857714390E+03  0.77000000000E+02 0.  0.
<mgrwt>
<rscale>  0 0.28990132E+03</rscale>
<asrwt>0</asrwt>
<pdfrwt beam="1">  1        2 0.43548195E-01 0.28990132E+03</pdfrwt>
<pdfrwt beam="2">  1       -2 0.11419406E-01 0.28990132E+03</pdfrwt>
<totfact> 0.62132433E+03</totfact>
</mgrwt>
</event>
<event>
 4    1  0.6086918E-004  0.3290349E+03  0.7818608E-02  0.1071565E+00
          2   -1    0    0  501    0  0.00000000000E+00  0.00000000000E+00  0.12112490610E+04  0.12112490610E+04  0.25500000000E-02 0.  1.
         -2   -1    0    0    0  501 -0.00000000000E+00 -0.00000000000E+00 -0.22345514543E+02  0.22345514688E+02  0.25500000000E-02 0. -1.
    5000001    1    1    2    0    0 -0.12016419460E+03 -0.39422947854E+02  0.86332954547E+03  0.87593407661E+03  0.77000000000E+02 0.  0.
   -5000001    1    1    2    0    0  0.12016419460E+03  0.39422947854E+02  0.32557400095E+03  0.35766049904E+03  0.77000000000E+02 0.  0.
<mgrwt>
<rscale>  0 0.32903485E+03</rscale>
<asrwt>0</asrwt>
<pdfrwt beam="1">  1        2 0.18634599E+00 0.32903485E+03</pdfrwt>
<pdfrwt beam="2">  1       -2 0.34377719E-02 0.32903485E+03</pdfrwt>
<totfact> 0.68208486E+03</totfact>
</mgrwt>
</event>
<event>
 4    1  0.6086918E-004  0.3129477E+03  0.7818608E-02  0.1078942E+00
          2   -1    0    0  501    0  0.00000000000E+00  0.00000000000E+00  0.36423616282E+04  0.36423616282E+04  0.25500000000E-02 0.  1.
         -2   -1    0    0    0  501 -0.00000000000E+00 -0.00000000000E+00 -0.67220300817E+01  0.67220305654E+01  0.25500000000E-02 0. -1.
    5000001    1    1    2    0    0 -0.66326968965E+02  0.11769988361E+03  0.16150045893E+04  0.16224738374E+04  0.77000000000E+02 0.  0.
   -5000001    1    1    2    0    0  0.66326968965E+02 -0.11769988361E+03  0.20206350087E+04  0.20266098213E+04  0.77000000000E+02 0.  0.
<mgrwt>
<rscale>  0 0.31294770E+03</rscale>
<asrwt>0</asrwt>
<pdfrwt beam="1">  1        2 0.56036268E+00 0.31294770E+03</pdfrwt>
<pdfrwt beam="2">  1       -2 0.10341597E-02 0.31294770E+03</pdfrwt>
<totfact> 0.16398402E+03</totfact>
</mgrwt>
</event>
<event>
 4    1  0.6086918E-004  0.2439420E+03  0.7818608E-02  0.1117194E+00
         -2   -1    0    0    0  501 -0.00000000000E+00  0.00000000000E+00  0.14703424968E+04  0.14703424968E+04  0.25500000000E-02 0. -1.
          2   -1    0    0  501    0  0.00000000000E+00 -0.00000000000E+00 -0.10117998315E+02  0.10117998636E+02  0.25500000000E-02 0.  1.
    5000001    1    1    2    0    0  0.84637912836E+02 -0.52906056757E+01  0.98445337260E+03  0.99109485400E+03  0.77000000000E+02 0.  0.
   -5000001    1    1    2    0    0 -0.84637912836E+02  0.52906056757E+01  0.47577112591E+03  0.48936564146E+03  0.77000000000E+02 0.  0.
<mgrwt>
<rscale>  0 0.24394199E+03</rscale>
<asrwt>0</asrwt>
<pdfrwt beam="1">  1        2 0.15566160E-02 0.24394199E+03</pdfrwt>
<pdfrwt beam="2">  1       -2 0.22620642E+00 0.24394199E+03</pdfrwt>
<totfact> 0.76899471E+02</totfact>
</mgrwt>
</event>
<event>
 4    1  0.6086918E-004  0.2872079E+03  0.7818608E-02  0.1091816E+00
         -2   -1    0    0    0  501 -0.00000000000E+00  0.00000000000E+00  0.16349620317E+02  0.16349620516E+02  0.25500000000E-02 0. -1.
          2   -1    0    0  501    0  0.00000000000E+00 -0.00000000000E+00 -0.12613191556E+04  0.12613191556E+04  0.25500000000E-02 0.  1.
    5000001    1    1    2    0    0  0.54249364344E+02 -0.78359223951E+02 -0.95568139233E+03  0.96350354704E+03  0.77000000000E+02 0.  0.
   -5000001    1    1    2    0    0 -0.54249364344E+02  0.78359223951E+02 -0.28928814295E+03  0.31416522908E+03  0.77000000000E+02 0.  0.
<mgrwt>
<rscale>  0 0.28720786E+03</rscale>
<asrwt>0</asrwt>
<pdfrwt beam="1">  1        2 0.19404902E+00 0.28720786E+03</pdfrwt>
<pdfrwt beam="2">  1       -2 0.25153272E-02 0.28720786E+03</pdfrwt>
<totfact> 0.10160616E+04</totfact>
</mgrwt>
</event>
<event>
 4    1  0.6086918E-004  0.1589811E+03  0.7818608E-02  0.1189852E+00
         -2   -1    0    0    0  501 -0.00000000000E+00  0.00000000000E+00  0.21186194959E+01  0.21186210305E+01  0.25500000000E-02 0. -1.
          2   -1    0    0  501    0  0.00000000000E+00 -0.00000000000E+00 -0.29824818392E+04  0.29824818392E+04  0.25500000000E-02 0.  1.
    5000001    1    1    2    0    0 -0.59658279407E+01  0.98470757095E+01 -0.11891111346E+04  0.11916571850E+04  0.77000000000E+02 0.  0.
   -5000001    1    1    2    0    0  0.59658279407E+01 -0.98470757095E+01 -0.17912520851E+04  0.17929432753E+04  0.77000000000E+02 0.  0.
<mgrwt>
<rscale>  0 0.15898109E+03</rscale>
<asrwt>0</asrwt>
<pdfrwt beam="1">  1        2 0.45884000E+00 0.15898109E+03</pdfrwt>
<pdfrwt beam="2">  1       -2 0.32594397E-03 0.15898109E+03</pdfrwt>
<totfact> 0.22618890E+04</totfact>
</mgrwt>
</event>
<event>
 4    1  0.6086918E-004  0.1959827E+03  0.7818608E-02  0.1153173E+00
         -2   -1    0    0    0  501 -0.00000000000E+00  0.00000000000E+00  0.94555206916E+02  0.94555206950E+02  0.25500000000E-02 0. -1.
          2   -1    0    0  501    0  0.00000000000E+00 -0.00000000000E+00 -0.10155239166E+03  0.10155239170E+03  0.25500000000E-02 0.  1.
    5000001    1    1    2    0    0  0.48399437446E+02  0.31651392855E+02 -0.21648263627E+02  0.98701385668E+02  0.77000000000E+02 0.  0.
   -5000001    1    1    2    0    0 -0.48399437446E+02 -0.31651392855E+02  0.14651078879E+02  0.97406212979E+02  0.77000000000E+02 0.  0.
<mgrwt>
<rscale>  0 0.19598273E+03</rscale>
<asrwt>0</asrwt>
<pdfrwt beam="1">  1        2 0.15623445E-01 0.19598273E+03</pdfrwt>
<pdfrwt beam="2">  1       -2 0.14546955E-01 0.19598273E+03</pdfrwt>
<totfact> 0.12894003E+04</totfact>
</mgrwt>
</event>
<event>
 4    1  0.6086918E-004  0.2371083E+03  0.7818608E-02  0.1121734E+00
         -2   -1    0    0    0  501 -0.00000000000E+00  0.00000000000E+00  0.63827379964E+02  0.63827380015E+02  0.25500000000E-02 0. -1.
          2   -1    0    0  501    0  0.00000000000E+00 -0.00000000000E+00 -0.22020460901E+03  0.22020460903E+03  0.25500000000E-02 0.  1.
    5000001    1    1    2    0    0 -0.60610329291E+02  0.59797011740E+01  0.14218590756E+01  0.98185490405E+02  0.77000000000E+02 0.  0.
   -5000001    1    1    2    0    0  0.60610329291E+02 -0.59797011740E+01 -0.15779908812E+03  0.18584649864E+03  0.77000000000E+02 0.  0.
<mgrwt>
<rscale>  0 0.23710827E+03</rscale>
<asrwt>0</asrwt>
<pdfrwt beam="1">  1        2 0.33877632E-01 0.23710827E+03</pdfrwt>
<pdfrwt beam="2">  1       -2 0.98195970E-02 0.23710827E+03</pdfrwt>
<totfact> 0.10281880E+04</totfact>
</mgrwt>
</event>
<event>
 4    1  0.6086918E-004  0.2558220E+03  0.7818608E-02  0.1109680E+00
         -2   -1    0    0    0  501 -0.00000000000E+00  0.00000000000E+00  0.34441050733E+02  0.34441050827E+02  0.25500000000E-02 0. -1.
          2   -1    0    0  501    0  0.00000000000E+00 -0.00000000000E+00 -0.47504997173E+03  0.47504997173E+03  0.25500000000E-02 0.  1.
    5000001    1    1    2    0    0  0.19311820409E+02  0.78143918198E+02 -0.34551797835E+03  0.36303042809E+03  0.77000000000E+02 0.  0.
   -5000001    1    1    2    0    0 -0.19311820409E+02 -0.78143918198E+02 -0.95090942645E+02  0.14646059447E+03  0.77000000000E+02 0.  0.
<mgrwt>
<rscale>  0 0.25582197E+03</rscale>
<asrwt>0</asrwt>
<pdfrwt beam="1">  1        2 0.73084606E-01 0.25582197E+03</pdfrwt>
<pdfrwt beam="2">  1       -2 0.52986235E-02 0.25582197E+03</pdfrwt>
<totfact> 0.11694359E+04</totfact>
</mgrwt>
</event>
<event>
 4    1  0.6086918E-004  0.1864130E+03  0.7818608E-02  0.1161737E+00
          2   -1    0    0  501    0  0.00000000000E+00  0.00000000000E+00  0.17857909006E+04  0.17857909006E+04  0.25500000000E-02 0.  1.
         -2   -1    0    0    0  501 -0.00000000000E+00 -0.00000000000E+00 -0.48647615037E+01  0.48647621721E+01  0.25500000000E-02 0. -1.
    5000001    1    1    2    0    0 -0.82988753604E+01  0.35612825026E+02  0.12526054017E+04  0.12555024640E+04  0.77000000000E+02 0.  0.
   -5000001    1    1    2    0    0  0.82988753604E+01 -0.35612825026E+02  0.52832073735E+03  0.53515319877E+03  0.77000000000E+02 0.  0.
<mgrwt>
<rscale>  0 0.18641295E+03</rscale>
<asrwt>0</asrwt>
<pdfrwt beam="1">  1        2 0.27473707E+00 0.18641295E+03</pdfrwt>
<pdfrwt beam="2">  1       -2 0.74842487E-03 0.18641295E+03</pdfrwt>
<totfact> 0.30648877E+04</totfact>
</mgrwt>
</event>
<event>
 4    1  0.6086918E-004  0.1673732E+03  0.7818608E-02  0.1180615E+00
         -2   -1    0    0    0  501 -0.00000000000E+00  0.00000000000E+00  0.11094491367E+02  0.11094491660E+02  0.25500000000E-02 0. -1.
          2   -1    0    0  501    0  0.00000000000E+00 -0.00000000000E+00 -0.63125481567E+03  0.63125481567E+03  0.25500000000E-02 0.  1.
    5000001    1    1    2    0    0 -0.50490876950E+00  0.31408082166E+02 -0.27413372009E+03  0.28646992695E+03  0.77000000000E+02 0.  0.
   -5000001    1    1    2    0    0  0.50490876950E+00 -0.31408082166E+02 -0.34602660422E+03  0.35587938039E+03  0.77000000000E+02 0.  0.
<mgrwt>
<rscale>  0 0.16737325E+03</rscale>
<asrwt>0</asrwt>
<pdfrwt beam="1">  1        2 0.97116098E-01 0.16737325E+03</pdfrwt>
<pdfrwt beam="2">  1       -2 0.17068453E-02 0.16737325E+03</pdfrwt>
<totfact> 0.44179458E+04</totfact>
</mgrwt>
</event>
<event>
 4    1  0.6086918E-004  0.2905878E+03  0.7818608E-02  0.1090043E+00
          2   -1    0    0  501    0  0.00000000000E+00  0.00000000000E+00  0.54762133554E+02  0.54762133613E+02  0.25500000000E-02 0.  1.
         -2   -1    0    0    0  501 -0.00000000000E+00 -0.00000000000E+00 -0.38549127232E+03  0.38549127233E+03  0.25500000000E-02 0. -1.
    5000001    1    1    2    0    0  0.10379642968E+03 -0.60372232328E+02 -0.12352028830E+03  0.18869225441E+03  0.77000000000E+02 0.  0.
   -5000001    1    1    2    0    0 -0.10379642968E+03  0.60372232328E+02 -0.20720885047E+03  0.25156115154E+03  0.77000000000E+02 0.  0.
<mgrwt>
<rscale>  0 0.29058785E+03</rscale>
<asrwt>0</asrwt>
<pdfrwt beam="1">  1        2 0.84249439E-02 0.29058785E+03</pdfrwt>
<pdfrwt beam="2">  1       -2 0.59306348E-01 0.29058785E+03</pdfrwt>
<totfact> 0.21554444E+03</totfact>
</mgrwt>
</event>
<event>
 4    1  0.6086918E-004  0.3744105E+03  0.7818608E-02  0.1053019E+00
          2   -1    0    0  501    0  0.00000000000E+00  0.00000000000E+00  0.17623068909E+03  0.17623068911E+03  0.25500000000E-02 0.  1.
         -2   -1    0    0    0  501 -0.00000000000E+00 -0.00000000000E+00 -0.19886320720E+03  0.19886320722E+03  0.25500000000E-02 0. -1.
    5000001    1    1    2    0    0  0.11435688731E+03 -0.11579027702E+03 -0.62712087301E+02  0.19064808371E+03  0.77000000000E+02 0.  0.
   -5000001    1    1    2    0    0 -0.11435688731E+03  0.11579027702E+03  0.40079569192E+02  0.18444581262E+03  0.77000000000E+02 0.  0.
<mgrwt>
<rscale>  0 0.37441047E+03</rscale>
<asrwt>0</asrwt>
<pdfrwt beam="1">  1        2 0.27112414E-01 0.37441047E+03</pdfrwt>
<pdfrwt beam="2">  1       -2 0.30594339E-01 0.37441047E+03</pdfrwt>
<totfact> 0.19483482E+03</totfact>
</mgrwt>
</event>
<event>
 4    1  0.6086918E-004  0.3339908E+03  0.7818608E-02  0.1069385E+00
          2   -1    0    0  501    0  0.00000000000E+00  0.00000000000E+00  0.21172731633E+04  0.21172731633E+04  0.25500000000E-02 0.  1.
         -2   -1    0    0    0  501 -0.00000000000E+00 -0.00000000000E+00 -0.13171402227E+02  0.13171402474E+02  0.25500000000E-02 0. -1.
    5000001    1    1    2    0    0  0.16621784445E+01 -0.14777372061E+03  0.98257768471E+03  0.99660811848E+03  0.77000000000E+02 0.  0.
   -5000001    1    1    2    0    0 -0.16621784445E+01  0.14777372061E+03  0.11215240763E+04  0.11338364473E+04  0.77000000000E+02 0.  0.
<mgrwt>
<rscale>  0 0.33399076E+03</rscale>
<asrwt>0</asrwt>
<pdfrwt beam="1">  1        2 0.32573420E+00 0.33399076E+03</pdfrwt>
<pdfrwt beam="2">  1       -2 0.20263704E-02 0.33399076E+03</pdfrwt>
<totfact> 0.48809682E+03</totfact>
</mgrwt>
</event>
<event>
 4    1  0.6086918E-004  0.2360907E+03  0.7818608E-02  0.1122425E+00
         -2   -1    0    0    0  501 -0.00000000000E+00  0.00000000000E+00  0.49585264136E+02  0.49585264202E+02  0.25500000000E-02 0. -1.
          2   -1    0    0  501    0  0.00000000000E+00 -0.00000000000E+00 -0.28102521115E+03  0.28102521116E+03  0.25500000000E-02 0.  1.
    5000001    1    1    2    0    0 -0.20746380537E+02 -0.66939513436E+02 -0.37822067533E+02  0.11077373135E+03  0.77000000000E+02 0.  0.
   -5000001    1    1    2    0    0  0.20746380537E+02  0.66939513436E+02 -0.19361787948E+03  0.21983674402E+03  0.77000000000E+02 0.  0.
<mgrwt>
<rscale>  0 0.23609074E+03</rscale>
<asrwt>0</asrwt>
<pdfrwt beam="1">  1        2 0.43234647E-01 0.23609074E+03</pdfrwt>
<pdfrwt beam="2">  1       -2 0.76285024E-02 0.23609074E+03</pdfrwt>
<totfact> 0.11741567E+04</totfact>
</mgrwt>
</event>
<event>
 4    1  0.6086918E-004  0.2226116E+03  0.7818608E-02  0.1131951E+00
         -2   -1    0    0    0  501 -0.00000000000E+00  0.00000000000E+00  0.24620666079E+02  0.24620666212E+02  0.25500000000E-02 0. -1.
          2   -1    0    0  501    0  0.00000000000E+00 -0.00000000000E+00 -0.50319429931E+03  0.50319429932E+03  0.25500000000E-02 0.  1.
    5000001    1    1    2    0    0  0.76775726275E+02  0.21457308026E+02 -0.26358832888E+03  0.28594183907E+03  0.77000000000E+02 0.  0.
   -5000001    1    1    2    0    0 -0.76775726275E+02 -0.21457308026E+02 -0.21498530436E+03  0.24187312646E+03  0.77000000000E+02 0.  0.
<mgrwt>
<rscale>  0 0.22261158E+03</rscale>
<asrwt>0</asrwt>
<pdfrwt beam="1">  1        2 0.77414500E-01 0.22261158E+03</pdfrwt>
<pdfrwt beam="2">  1       -2 0.37877952E-02 0.22261158E+03</pdfrwt>
<totfact> 0.18067550E+04</totfact>
</mgrwt>
</event>
<event>
 4    1  0.6086918E-004  0.2807885E+03  0.7818608E-02  0.1095259E+00
         -2   -1    0    0    0  501 -0.00000000000E+00  0.00000000000E+00  0.14188404963E+02  0.14188405192E+02  0.25500000000E-02 0. -1.
          2   -1    0    0  501    0  0.00000000000E+00 -0.00000000000E+00 -0.13892011426E+04  0.13892011426E+04  0.25500000000E-02 0.  1.
    5000001    1    1    2    0    0  0.69244341439E+02 -0.50302904335E+02 -0.10891063484E+04  0.10951743236E+04  0.77000000000E+02 0.  0.
   -5000001    1    1    2    0    0 -0.69244341439E+02  0.50302904335E+02 -0.28590638932E+03  0.30821522425E+03  0.77000000000E+02 0.  0.
<mgrwt>
<rscale>  0 0.28078852E+03</rscale>
<asrwt>0</asrwt>
<pdfrwt beam="1">  1        2 0.21372315E+00 0.28078852E+03</pdfrwt>
<pdfrwt beam="2">  1       -2 0.21828326E-02 0.28078852E+03</pdfrwt>
<totfact> 0.10646092E+04</totfact>
</mgrwt>
</event>
<event>
 4    1  0.6086918E-004  0.2251953E+03  0.7818608E-02  0.1130068E+00
         -2   -1    0    0    0  501 -0.00000000000E+00  0.00000000000E+00  0.69902912151E+01  0.69902916802E+01  0.25500000000E-02 0. -1.
          2   -1    0    0  501    0  0.00000000000E+00 -0.00000000000E+00 -0.18136920234E+04  0.18136920234E+04  0.25500000000E-02 0.  1.
    5000001    1    1    2    0    0  0.49071442698E+01 -0.80636145946E+02 -0.10240754692E+04  0.10301387453E+04  0.77000000000E+02 0.  0.
   -5000001    1    1    2    0    0 -0.49071442698E+01  0.80636145946E+02 -0.78262626305E+03  0.79054356978E+03  0.77000000000E+02 0.  0.
<mgrwt>
<rscale>  0 0.22519534E+03</rscale>
<asrwt>0</asrwt>
<pdfrwt beam="1">  1        2 0.27902917E+00 0.22519534E+03</pdfrwt>
<pdfrwt beam="2">  1       -2 0.10754309E-02 0.22519534E+03</pdfrwt>
<totfact> 0.17730278E+04</totfact>
</mgrwt>
</event>
<event>
 4    1  0.6086918E-004  0.1803335E+03  0.7818608E-02  0.1167481E+00
          2   -1    0    0  501    0  0.00000000000E+00  0.00000000000E+00  0.55532948295E+02  0.55532948353E+02  0.25500000000E-02 0.  1.
         -2   -1    0    0    0  501 -0.00000000000E+00 -0.00000000000E+00 -0.14640027575E+03  0.14640027577E+03  0.25500000000E-02 0. -1.
    5000001    1    1    2    0    0 -0.23549638967E+01  0.40243057743E+02 -0.72308059964E+02  0.11305974123E+03  0.77000000000E+02 0.  0.
   -5000001    1    1    2    0    0  0.23549638967E+01 -0.40243057743E+02 -0.18559267488E+02  0.88873482891E+02  0.77000000000E+02 0.  0.
<mgrwt>
<rscale>  0 0.18033346E+03</rscale>
<asrwt>0</asrwt>
<pdfrwt beam="1">  1        2 0.85435306E-02 0.18033346E+03</pdfrwt>
<pdfrwt beam="2">  1       -2 0.22523119E-01 0.18033346E+03</pdfrwt>
<totfact> 0.12793863E+04</totfact>
</mgrwt>
</event>
<event>
 4    1  0.6086918E-004  0.2560581E+03  0.7818608E-02  0.1109535E+00
         -2   -1    0    0    0  501 -0.00000000000E+00  0.00000000000E+00  0.12749851241E+03  0.12749851243E+03  0.25500000000E-02 0. -1.
          2   -1    0    0  501    0  0.00000000000E+00 -0.00000000000E+00 -0.12856183617E+03  0.12856183619E+03  0.25500000000E-02 0.  1.
    5000001    1    1    2    0    0 -0.65332050278E+02 -0.25498867954E+02 -0.74990169878E+02  0.12833937291E+03  0.77000000000E+02 0.  0.
   -5000001    1    1    2    0    0  0.65332050278E+02  0.25498867954E+02  0.73926846117E+02  0.12772097571E+03  0.77000000000E+02 0.  0.
<mgrwt>
<rscale>  0 0.25605814E+03</rscale>
<asrwt>0</asrwt>
<pdfrwt beam="1">  1        2 0.19778744E-01 0.25605814E+03</pdfrwt>
<pdfrwt beam="2">  1       -2 0.19615156E-01 0.25605814E+03</pdfrwt>
<totfact> 0.60430374E+03</totfact>
</mgrwt>
</event>
<event>
 4    1  0.6086918E-004  0.2665732E+03  0.7818608E-02  0.1103257E+00
          2   -1    0    0  501    0  0.00000000000E+00  0.00000000000E+00  0.12075943518E+04  0.12075943518E+04  0.25500000000E-02 0.  1.
         -2   -1    0    0    0  501 -0.00000000000E+00 -0.00000000000E+00 -0.14711329838E+02  0.14711330059E+02  0.25500000000E-02 0. -1.
    5000001    1    1    2    0    0 -0.63741352319E+02 -0.45802745560E+02  0.94187476947E+03  0.94827102289E+03  0.77000000000E+02 0.  0.
   -5000001    1    1    2    0    0  0.63741352319E+02  0.45802745560E+02  0.25100825248E+03  0.27403465896E+03  0.77000000000E+02 0.  0.
<mgrwt>
<rscale>  0 0.26657321E+03</rscale>
<asrwt>0</asrwt>
<pdfrwt beam="1">  1        2 0.18578371E+00 0.26657321E+03</pdfrwt>
<pdfrwt beam="2">  1       -2 0.22632819E-02 0.26657321E+03</pdfrwt>
<totfact> 0.12708898E+04</totfact>
</mgrwt>
</event>
<event>
 4    1  0.6086918E-004  0.4241287E+03  0.7818608E-02  0.1035731E+00
          2   -1    0    0  501    0  0.00000000000E+00  0.00000000000E+00  0.60455124191E+03  0.60455124191E+03  0.25500000000E-02 0.  1.
         -2   -1    0    0    0  501 -0.00000000000E+00 -0.00000000000E+00 -0.74387900579E+02  0.74387900622E+02  0.25500000000E-02 0. -1.
    5000001    1    1    2    0    0 -0.56382848907E+01 -0.19641038288E+03  0.29840989153E+03  0.36549458563E+03  0.77000000000E+02 0.  0.
   -5000001    1    1    2    0    0  0.56382848907E+01  0.19641038288E+03  0.23175344979E+03  0.31344455690E+03  0.77000000000E+02 0.  0.
<mgrwt>
<rscale>  0 0.42412874E+03</rscale>
<asrwt>0</asrwt>
<pdfrwt beam="1">  1        2 0.93007881E-01 0.42412874E+03</pdfrwt>
<pdfrwt beam="2">  1       -2 0.11444293E-01 0.42412874E+03</pdfrwt>
<totfact> 0.26859056E+03</totfact>
</mgrwt>
</event>
<event>
 4    1  0.6086918E-004  0.3747644E+03  0.7818608E-02  0.1052886E+00
         -2   -1    0    0    0  501 -0.00000000000E+00  0.00000000000E+00  0.17878416514E+03  0.17878416516E+03  0.25500000000E-02 0. -1.
          2   -1    0    0  501    0  0.00000000000E+00 -0.00000000000E+00 -0.19639368459E+03  0.19639368460E+03  0.25500000000E-02 0.  1.
    5000001    1    1    2    0    0  0.18842922986E+02 -0.16972308237E+03 -0.13511064346E+02  0.18780982215E+03  0.77000000000E+02 0.  0.
   -5000001    1    1    2    0    0 -0.18842922986E+02  0.16972308237E+03 -0.40984550958E+01  0.18736802761E+03  0.77000000000E+02 0.  0.
<mgrwt>
<rscale>  0 0.37476436E+03</rscale>
<asrwt>0</asrwt>
<pdfrwt beam="1">  1        2 0.30214413E-01 0.37476436E+03</pdfrwt>
<pdfrwt beam="2">  1       -2 0.27505256E-01 0.37476436E+03</pdfrwt>
<totfact> 0.20960529E+03</totfact>
</mgrwt>
</event>
<event>
 4    1  0.6086918E-004  0.1895626E+03  0.7818608E-02  0.1158856E+00
          2   -1    0    0  501    0  0.00000000000E+00  0.00000000000E+00  0.10888885912E+04  0.10888885912E+04  0.25500000000E-02 0.  1.
         -2   -1    0    0    0  501 -0.00000000000E+00 -0.00000000000E+00 -0.82501482178E+01  0.82501486119E+01  0.25500000000E-02 0. -1.
    5000001    1    1    2    0    0  0.24690806170E+02  0.49026225608E+02  0.50313067514E+03  0.51194011658E+03  0.77000000000E+02 0.  0.
   -5000001    1    1    2    0    0 -0.24690806170E+02 -0.49026225608E+02  0.57750776783E+03  0.58519862321E+03  0.77000000000E+02 0.  0.
<mgrwt>
<rscale>  0 0.18956258E+03</rscale>
<asrwt>0</asrwt>
<pdfrwt beam="1">  1        2 0.16752127E+00 0.18956258E+03</pdfrwt>
<pdfrwt beam="2">  1       -2 0.12692540E-02 0.18956258E+03</pdfrwt>
<totfact> 0.34009935E+04</totfact>
</mgrwt>
</event>
<event>
 4    1  0.6086918E-004  0.2408835E+03  0.7818608E-02  0.1119206E+00
         -2   -1    0    0    0  501 -0.00000000000E+00  0.00000000000E+00  0.13412786630E+02  0.13412786873E+02  0.25500000000E-02 0. -1.
          2   -1    0    0  501    0  0.00000000000E+00 -0.00000000000E+00 -0.10815210214E+04  0.10815210214E+04  0.25500000000E-02 0.  1.
    5000001    1    1    2    0    0  0.67118005795E+02  0.48126571242E+02 -0.72454316004E+03  0.73328901827E+03  0.77000000000E+02 0.  0.
   -5000001    1    1    2    0    0 -0.67118005795E+02 -0.48126571242E+02 -0.34356507475E+03  0.36164479002E+03  0.77000000000E+02 0.  0.
<mgrwt>
<rscale>  0 0.24088346E+03</rscale>
<asrwt>0</asrwt>
<pdfrwt beam="1">  1        2 0.16638778E+00 0.24088346E+03</pdfrwt>
<pdfrwt beam="2">  1       -2 0.20635065E-02 0.24088346E+03</pdfrwt>
<totfact> 0.17151139E+04</totfact>
</mgrwt>
</event>
<event>
 4    1  0.6086918E-004  0.1861480E+03  0.7818608E-02  0.1161982E+00
          2   -1    0    0  501    0  0.00000000000E+00  0.00000000000E+00  0.11312797079E+04  0.11312797079E+04  0.25500000000E-02 0.  1.
         -2   -1    0    0    0  501 -0.00000000000E+00 -0.00000000000E+00 -0.76574992038E+01  0.76574996284E+01  0.25500000000E-02 0. -1.
    5000001    1    1    2    0    0  0.41180899599E+02 -0.21903679673E+02  0.70635885254E+03  0.71207265516E+03  0.77000000000E+02 0.  0.
   -5000001    1    1    2    0    0 -0.41180899599E+02  0.21903679673E+02  0.41726335619E+03  0.42686455240E+03  0.77000000000E+02 0.  0.
<mgrwt>
<rscale>  0 0.18614805E+03</rscale>
<asrwt>0</asrwt>
<pdfrwt beam="1">  1        2 0.17404298E+00 0.18614805E+03</pdfrwt>
<pdfrwt beam="2">  1       -2 0.11780772E-02 0.18614805E+03</pdfrwt>
<totfact> 0.35755855E+04</totfact>
</mgrwt>
</event>
<event>
 4    1  0.6086918E-004  0.2441891E+03  0.7818608E-02  0.1117033E+00
          2   -1    0    0  501    0  0.00000000000E+00  0.00000000000E+00  0.26652278413E+03  0.26652278414E+03  0.25500000000E-02 0.  1.
         -2   -1    0    0    0  501 -0.00000000000E+00 -0.00000000000E+00 -0.55931733327E+02  0.55931733385E+02  0.25500000000E-02 0. -1.
    5000001    1    1    2    0    0 -0.93090749007E+02 -0.13337076186E+02  0.12059957177E+03  0.17122214186E+03  0.77000000000E+02 0.  0.
   -5000001    1    1    2    0    0  0.93090749007E+02  0.13337076186E+02  0.89991479037E+02  0.15123237567E+03  0.77000000000E+02 0.  0.
<mgrwt>
<rscale>  0 0.24418912E+03</rscale>
<asrwt>0</asrwt>
<pdfrwt beam="1">  1        2 0.41003504E-01 0.24418912E+03</pdfrwt>
<pdfrwt beam="2">  1       -2 0.86048823E-02 0.24418912E+03</pdfrwt>
<totfact> 0.10316845E+04</totfact>
</mgrwt>
</event>
<event>
 4    1  0.6086918E-004  0.2295680E+03  0.7818608E-02  0.1126944E+00
          2   -1    0    0  501    0  0.00000000000E+00  0.00000000000E+00  0.53168791003E+03  0.53168791004E+03  0.25500000000E-02 0.  1.
         -2   -1    0    0    0  501 -0.00000000000E+00 -0.00000000000E+00 -0.24780261040E+02  0.24780261171E+02  0.25500000000E-02 0. -1.
    5000001    1    1    2    0    0 -0.83686066357E+00  0.60586553775E+02  0.10852224002E+03  0.14621049009E+03  0.77000000000E+02 0.  0.
   -5000001    1    1    2    0    0  0.83686066357E+00 -0.60586553775E+02  0.39838540897E+03  0.41025768112E+03  0.77000000000E+02 0.  0.
<mgrwt>
<rscale>  0 0.22956799E+03</rscale>
<asrwt>0</asrwt>
<pdfrwt beam="1">  1        2 0.81798137E-01 0.22956799E+03</pdfrwt>
<pdfrwt beam="2">  1       -2 0.38123480E-02 0.22956799E+03</pdfrwt>
<totfact> 0.16854209E+04</totfact>
</mgrwt>
</event>
<event>
 4    1  0.6086918E-004  0.2709214E+03  0.7818608E-02  0.1100753E+00
          2   -1    0    0  501    0  0.00000000000E+00  0.00000000000E+00  0.38780251039E+04  0.38780251039E+04  0.25500000000E-02 0.  1.
         -2   -1    0    0    0  501 -0.00000000000E+00 -0.00000000000E+00 -0.47316878621E+01  0.47316885492E+01  0.25500000000E-02 0. -1.
    5000001    1    1    2    0    0 -0.44034583355E+01  0.10725404235E+03  0.15072258422E+04  0.15130041505E+04  0.77000000000E+02 0.  0.
   -5000001    1    1    2    0    0  0.44034583355E+01 -0.10725404235E+03  0.23660675739E+04  0.23697526420E+04  0.77000000000E+02 0.  0.
<mgrwt>
<rscale>  0 0.27092143E+03</rscale>
<asrwt>0</asrwt>
<pdfrwt beam="1">  1        2 0.59662121E+00 0.27092143E+03</pdfrwt>
<pdfrwt beam="2">  1       -2 0.72794964E-03 0.27092143E+03</pdfrwt>
<totfact> 0.18678168E+03</totfact>
</mgrwt>
</event>
<event>
 4    1  0.6086918E-004  0.2473479E+03  0.7818608E-02  0.1114992E+00
         -2   -1    0    0    0  501 -0.00000000000E+00  0.00000000000E+00  0.31276558944E+02  0.31276559048E+02  0.25500000000E-02 0.  1.
          2   -1    0    0  501    0  0.00000000000E+00 -0.00000000000E+00 -0.48903214883E+03  0.48903214884E+03  0.25500000000E-02 0. -1.
    5000001    1    1    2    0    0 -0.59002912926E+02  0.76649480242E+02 -0.23544825116E+03  0.26593488965E+03  0.77000000000E+02 0.  0.
   -5000001    1    1    2    0    0  0.59002912926E+02 -0.76649480242E+02 -0.22230733872E+03  0.25437381824E+03  0.77000000000E+02 0.  0.
<mgrwt>
<rscale>  0 0.24734788E+03</rscale>
<asrwt>0</asrwt>
<pdfrwt beam="1">  1        2 0.75235710E-01 0.24734788E+03</pdfrwt>
<pdfrwt beam="2">  1       -2 0.48117787E-02 0.24734788E+03</pdfrwt>
<totfact> 0.13087386E+04</totfact>
</mgrwt>
</event>
<event>
 4    1  0.6086918E-004  0.2339232E+03  0.7818608E-02  0.1123909E+00
          2   -1    0    0  501    0  0.00000000000E+00  0.00000000000E+00  0.15254797066E+04  0.15254797066E+04  0.25500000000E-02 0.  1.
         -2   -1    0    0    0  501 -0.00000000000E+00 -0.00000000000E+00 -0.89676798585E+01  0.89676802211E+01  0.25500000000E-02 0. -1.
    5000001    1    1    2    0    0  0.17102337176E+02  0.36285515575E+02  0.24417733824E+03  0.25915381743E+03  0.77000000000E+02 0.  0.
   -5000001    1    1    2    0    0 -0.17102337176E+02 -0.36285515575E+02  0.12723346885E+04  0.12752935694E+04  0.77000000000E+02 0.  0.
<mgrwt>
<rscale>  0 0.23392318E+03</rscale>
<asrwt>0</asrwt>
<pdfrwt beam="1">  1        2 0.23468939E+00 0.23392318E+03</pdfrwt>
<pdfrwt beam="2">  1       -2 0.13796419E-02 0.23392318E+03</pdfrwt>
<totfact> 0.17519323E+04</totfact>
</mgrwt>
</event>
<event>
 4    1  0.6086918E-004  0.1851663E+03  0.7818608E-02  0.1162895E+00
          2   -1    0    0  501    0  0.00000000000E+00  0.00000000000E+00  0.47527249014E+03  0.47527249015E+03  0.25500000000E-02 0.  1.
         -2   -1    0    0    0  501 -0.00000000000E+00 -0.00000000000E+00 -0.18035202321E+02  0.18035202502E+02  0.25500000000E-02 0. -1.
    5000001    1    1    2    0    0  0.30728657870E+02 -0.40092229300E+02  0.25403262370E+03  0.27020956898E+03  0.77000000000E+02 0.  0.
   -5000001    1    1    2    0    0 -0.30728657870E+02  0.40092229300E+02  0.20320466412E+03  0.22309812367E+03  0.77000000000E+02 0.  0.
<mgrwt>
<rscale>  0 0.18516626E+03</rscale>
<asrwt>0</asrwt>
<pdfrwt beam="1">  1        2 0.73118842E-01 0.18516626E+03</pdfrwt>
<pdfrwt beam="2">  1       -2 0.27746466E-02 0.18516626E+03</pdfrwt>
<totfact> 0.30150389E+04</totfact>
</mgrwt>
</event>
<event>
 4    1  0.6086918E-004  0.2630288E+03  0.7818608E-02  0.1105337E+00
         -2   -1    0    0    0  501 -0.00000000000E+00  0.00000000000E+00  0.13880920490E+02  0.13880920725E+02  0.25500000000E-02 0. -1.
          2   -1    0    0  501    0  0.00000000000E+00 -0.00000000000E+00 -0.12460294547E+04  0.12460294547E+04  0.25500000000E-02 0.  1.
    5000001    1    1    2    0    0 -0.59167948718E+02 -0.78232041511E+02 -0.81622201575E+03  0.82569272582E+03  0.77000000000E+02 0.  0.
   -5000001    1    1    2    0    0  0.59167948718E+02  0.78232041511E+02 -0.41592651848E+03  0.43421764963E+03  0.77000000000E+02 0.  0.
<mgrwt>
<rscale>  0 0.26302879E+03</rscale>
<asrwt>0</asrwt>
<pdfrwt beam="1">  1        2 0.19169675E+00 0.26302879E+03</pdfrwt>
<pdfrwt beam="2">  1       -2 0.21355272E-02 0.26302879E+03</pdfrwt>
<totfact> 0.13166378E+04</totfact>
</mgrwt>
</event>
<event>
 4    1  0.6086918E-004  0.1938948E+03  0.7818608E-02  0.1154995E+00
         -2   -1    0    0    0  501 -0.00000000000E+00  0.00000000000E+00  0.34620512183E+01  0.34620521574E+01  0.25500000000E-02 0. -1.
          2   -1    0    0  501    0  0.00000000000E+00 -0.00000000000E+00 -0.27148048806E+04  0.27148048806E+04  0.25500000000E-02 0.  1.
    5000001    1    1    2    0    0 -0.82132612565E+01  0.41596273128E+02 -0.19289364925E+04  0.19309382951E+04  0.77000000000E+02 0.  0.
   -5000001    1    1    2    0    0  0.82132612565E+01 -0.41596273128E+02 -0.78240633697E+03  0.78732863769E+03  0.77000000000E+02 0.  0.
<mgrwt>
<rscale>  0 0.19389476E+03</rscale>
<asrwt>0</asrwt>
<pdfrwt beam="1">  1        2 0.41766059E+00 0.19389476E+03</pdfrwt>
<pdfrwt beam="2">  1       -2 0.53262551E-03 0.19389476E+03</pdfrwt>
<totfact> 0.16056240E+04</totfact>
</mgrwt>
</event>
<event>
 4    1  0.6086918E-004  0.1592956E+03  0.7818608E-02  0.1189494E+00
          2   -1    0    0  501    0  0.00000000000E+00  0.00000000000E+00  0.97814758204E+03  0.97814758204E+03  0.25500000000E-02 0.  1.
         -2   -1    0    0    0  501 -0.00000000000E+00 -0.00000000000E+00 -0.64854925761E+01  0.64854930774E+01  0.25500000000E-02 0. -1.
    5000001    1    1    2    0    0 -0.16648027267E+02  0.43131351367E+01  0.55326225860E+03  0.55885945168E+03  0.77000000000E+02 0.  0.
   -5000001    1    1    2    0    0  0.16648027267E+02 -0.43131351367E+01  0.41839983086E+03  0.42577362344E+03  0.77000000000E+02 0.  0.
<mgrwt>
<rscale>  0 0.15929556E+03</rscale>
<asrwt>0</asrwt>
<pdfrwt beam="1">  1        2 0.15048431E+00 0.15929556E+03</pdfrwt>
<pdfrwt beam="2">  1       -2 0.99776767E-03 0.15929556E+03</pdfrwt>
<totfact> 0.55193628E+04</totfact>
</mgrwt>
</event>
<event>
 4    1  0.6086918E-004  0.2382978E+03  0.7818608E-02  0.1120932E+00
          2   -1    0    0  501    0  0.00000000000E+00  0.00000000000E+00  0.14845832038E+04  0.14845832038E+04  0.25500000000E-02 0. -1.
         -2   -1    0    0    0  501 -0.00000000000E+00 -0.00000000000E+00 -0.95625869661E+01  0.95625873061E+01  0.25500000000E-02 0.  1.
    5000001    1    1    2    0    0 -0.90286345302E+02  0.13190377863E+01  0.80448351047E+03  0.81318883577E+03  0.77000000000E+02 0.  0.
   -5000001    1    1    2    0    0  0.90286345302E+02 -0.13190377863E+01  0.67053710640E+03  0.68095695537E+03  0.77000000000E+02 0.  0.
<mgrwt>
<rscale>  0 0.23829777E+03</rscale>
<asrwt>0</asrwt>
<pdfrwt beam="1">  1        2 0.22839739E+00 0.23829777E+03</pdfrwt>
<pdfrwt beam="2">  1       -2 0.14711674E-02 0.23829777E+03</pdfrwt>
<totfact> 0.16786153E+04</totfact>
</mgrwt>
</event>
<event>
 4    1  0.6086918E-004  0.6982941E+03  0.7818608E-02  0.9720154E-01
         -2   -1    0    0    0  501 -0.00000000000E+00  0.00000000000E+00  0.17945084763E+03  0.17945084765E+03  0.25500000000E-02 0. -1.
          2   -1    0    0  501    0  0.00000000000E+00 -0.00000000000E+00 -0.67931499214E+03  0.67931499215E+03  0.25500000000E-02 0.  1.
    5000001    1    1    2    0    0  0.29872223889E+03  0.16060994627E+03 -0.21214440536E+03  0.40738775089E+03  0.77000000000E+02 0.  0.
   -5000001    1    1    2    0    0 -0.29872223889E+03 -0.16060994627E+03 -0.28771973916E+03  0.45137808891E+03  0.77000000000E+02 0.  0.
<mgrwt>
<rscale>  0 0.69829407E+03</rscale>
<asrwt>0</asrwt>
<pdfrwt beam="1">  1        2 0.10451000E+00 0.69829407E+03</pdfrwt>
<pdfrwt beam="2">  1       -2 0.27607823E-01 0.69829407E+03</pdfrwt>
<totfact> 0.51193730E+02</totfact>
</mgrwt>
</event>
<event>
 4    1  0.6086918E-004  0.3212759E+03  0.7818608E-02  0.1075064E+00
          2   -1    0    0  501    0  0.00000000000E+00  0.00000000000E+00  0.85839796149E+03  0.85839796149E+03  0.25500000000E-02 0.  1.
         -2   -1    0    0    0  501 -0.00000000000E+00 -0.00000000000E+00 -0.30061290865E+02  0.30061290973E+02  0.25500000000E-02 0. -1.
    5000001    1    1    2    0    0  0.12759648935E+03 -0.56262367817E+02  0.35687477948E+03  0.39081316042E+03  0.77000000000E+02 0.  0.
   -5000001    1    1    2    0    0 -0.12759648935E+03  0.56262367817E+02  0.47146189114E+03  0.49764609205E+03  0.77000000000E+02 0.  0.
<mgrwt>
<rscale>  0 0.32127590E+03</rscale>
<asrwt>0</asrwt>
<pdfrwt beam="1">  1        2 0.13206123E+00 0.32127590E+03</pdfrwt>
<pdfrwt beam="2">  1       -2 0.46248138E-02 0.32127590E+03</pdfrwt>
<totfact> 0.71553460E+03</totfact>
</mgrwt>
</event>
<event>
 4    1  0.6086918E-004  0.2889431E+03  0.7818608E-02  0.1090902E+00
          2   -1    0    0  501    0  0.00000000000E+00  0.00000000000E+00  0.13353703875E+04  0.13353703875E+04  0.25500000000E-02 0.  1.
         -2   -1    0    0    0  501 -0.00000000000E+00 -0.00000000000E+00 -0.15630141411E+02  0.15630141619E+02  0.25500000000E-02 0. -1.
    5000001    1    1    2    0    0 -0.91728715094E+02  0.15231137983E+02  0.10308975575E+04  0.10379426375E+04  0.77000000000E+02 0.  0.
   -5000001    1    1    2    0    0  0.91728715094E+02 -0.15231137983E+02  0.28884268857E+03  0.31305789158E+03  0.77000000000E+02 0.  0.
<mgrwt>
<rscale>  0 0.28894310E+03</rscale>
<asrwt>0</asrwt>
<pdfrwt beam="1">  1        2 0.20544165E+00 0.28894310E+03</pdfrwt>
<pdfrwt beam="2">  1       -2 0.24046365E-02 0.28894310E+03</pdfrwt>
<totfact> 0.98812635E+03</totfact>
</mgrwt>
</event>
<event>
 4    1  0.6086918E-004  0.6299021E+03  0.7818608E-02  0.9845240E-01
         -2   -1    0    0    0  501 -0.00000000000E+00  0.00000000000E+00  0.47910348734E+03  0.47910348735E+03  0.25500000000E-02 0. -1.
          2   -1    0    0  501    0  0.00000000000E+00 -0.00000000000E+00 -0.20704117590E+03  0.20704117592E+03  0.25500000000E-02 0.  1.
    5000001    1    1    2    0    0 -0.23561536475E+03 -0.19421568133E+03  0.12998404523E+03  0.34067459986E+03  0.77000000000E+02 0.  0.
   -5000001    1    1    2    0    0  0.23561536475E+03  0.19421568133E+03  0.14207826620E+03  0.34547006340E+03  0.77000000000E+02 0.  0.
<mgrwt>
<rscale>  0 0.62990205E+03</rscale>
<asrwt>0</asrwt>
<pdfrwt beam="1">  1        2 0.31852489E-01 0.62990205E+03</pdfrwt>
<pdfrwt beam="2">  1       -2 0.73708227E-01 0.62990205E+03</pdfrwt>
<totfact> 0.27891453E+02</totfact>
</mgrwt>
</event>
<event>
 4    1  0.6086918E-004  0.2122242E+03  0.7818608E-02  0.1139817E+00
          2   -1    0    0  501    0  0.00000000000E+00  0.00000000000E+00  0.20890109771E+04  0.20890109771E+04  0.25500000000E-02 0.  1.
         -2   -1    0    0    0  501 -0.00000000000E+00 -0.00000000000E+00 -0.53900029189E+01  0.53900035221E+01  0.25500000000E-02 0. -1.
    5000001    1    1    2    0    0 -0.50545425792E+02 -0.35838454805E+02  0.14229487579E+04  0.14263770198E+04  0.77000000000E+02 0.  0.
   -5000001    1    1    2    0    0  0.50545425792E+02  0.35838454805E+02  0.66067221621E+03  0.66802396078E+03  0.77000000000E+02 0.  0.
<mgrwt>
<rscale>  0 0.21222418E+03</rscale>
<asrwt>0</asrwt>
<pdfrwt beam="1">  1        2 0.32138656E+00 0.21222418E+03</pdfrwt>
<pdfrwt beam="2">  1       -2 0.82923061E-03 0.21222418E+03</pdfrwt>
<totfact> 0.18506844E+04</totfact>
</mgrwt>
</event>
<event>
 4    1  0.6086918E-004  0.2834498E+03  0.7818608E-02  0.1093819E+00
          2   -1    0    0  501    0  0.00000000000E+00  0.00000000000E+00  0.28106435648E+03  0.28106435650E+03  0.25500000000E-02 0.  1.
         -2   -1    0    0    0  501 -0.00000000000E+00 -0.00000000000E+00 -0.71463890142E+02  0.71463890188E+02  0.25500000000E-02 0. -1.
    5000001    1    1    2    0    0 -0.95234596492E+02 -0.11393340930E+02  0.17231359912E+02  0.12419885809E+03  0.77000000000E+02 0.  0.
   -5000001    1    1    2    0    0  0.95234596492E+02  0.11393340930E+02  0.19236910643E+03  0.22832938859E+03  0.77000000000E+02 0.  0.
<mgrwt>
<rscale>  0 0.28344984E+03</rscale>
<asrwt>0</asrwt>
<pdfrwt beam="1">  1        2 0.43240671E-01 0.28344984E+03</pdfrwt>
<pdfrwt beam="2">  1       -2 0.10994445E-01 0.28344984E+03</pdfrwt>
<totfact> 0.66492564E+03</totfact>
</mgrwt>
</event>
<event>
 4    1  0.6086918E-004  0.3412761E+03  0.7818608E-02  0.1066254E+00
          2   -1    0    0  501    0  0.00000000000E+00  0.00000000000E+00  0.51129439129E+03  0.51129439130E+03  0.25500000000E-02 0.  1.
         -2   -1    0    0    0  501 -0.00000000000E+00 -0.00000000000E+00 -0.56948303188E+02  0.56948303245E+02  0.25500000000E-02 0. -1.
    5000001    1    1    2    0    0  0.12653107737E+03 -0.83115578596E+02  0.25453442763E+03  0.30599850947E+03  0.77000000000E+02 0.  0.
   -5000001    1    1    2    0    0 -0.12653107737E+03  0.83115578596E+02  0.19981166047E+03  0.26224418508E+03  0.77000000000E+02 0.  0.
<mgrwt>
<rscale>  0 0.34127612E+03</rscale>
<asrwt>0</asrwt>
<pdfrwt beam="1">  1        2 0.78660677E-01 0.34127612E+03</pdfrwt>
<pdfrwt beam="2">  1       -2 0.87612772E-02 0.34127612E+03</pdfrwt>
<totfact> 0.49872953E+03</totfact>
</mgrwt>
</event>
<event>
 4    1  0.6086918E-004  0.1845517E+03  0.7818608E-02  0.1163469E+00
         -2   -1    0    0    0  501 -0.00000000000E+00  0.00000000000E+00  0.11142719697E+02  0.11142719989E+02  0.25500000000E-02 0. -1.
          2   -1    0    0  501    0  0.00000000000E+00 -0.00000000000E+00 -0.76416081048E+03  0.76416081048E+03  0.25500000000E-02 0.  1.
    5000001    1    1    2    0    0 -0.41572699131E+02 -0.25742666451E+02 -0.31786684331E+03  0.33069518331E+03  0.77000000000E+02 0.  0.
   -5000001    1    1    2    0    0  0.41572699131E+02  0.25742666451E+02 -0.43515124747E+03  0.44460834716E+03  0.77000000000E+02 0.  0.
<mgrwt>
<rscale>  0 0.18455167E+03</rscale>
<asrwt>0</asrwt>
<pdfrwt beam="1">  1        2 0.11756316E+00 0.18455167E+03</pdfrwt>
<pdfrwt beam="2">  1       -2 0.17142652E-02 0.18455167E+03</pdfrwt>
<totfact> 0.35230323E+04</totfact>
</mgrwt>
</event>
<event>
 4    1  0.6086918E-004  0.3334232E+03  0.7818608E-02  0.1069632E+00
         -2   -1    0    0    0  501 -0.00000000000E+00  0.00000000000E+00  0.54909817044E+02  0.54909817103E+02  0.25500000000E-02 0. -1.
          2   -1    0    0  501    0  0.00000000000E+00 -0.00000000000E+00 -0.50615272570E+03  0.50615272570E+03  0.25500000000E-02 0.  1.
    5000001    1    1    2    0    0  0.85834335988E+02  0.59582476253E+02 -0.49567344894E+02  0.13893713107E+03  0.77000000000E+02 0.  0.
   -5000001    1    1    2    0    0 -0.85834335988E+02 -0.59582476253E+02 -0.40167556376E+03  0.42212541173E+03  0.77000000000E+02 0.  0.
<mgrwt>
<rscale>  0 0.33342318E+03</rscale>
<asrwt>0</asrwt>
<pdfrwt beam="1">  1        2 0.77869647E-01 0.33342318E+03</pdfrwt>
<pdfrwt beam="2">  1       -2 0.84476645E-02 0.33342318E+03</pdfrwt>
<totfact> 0.53405410E+03</totfact>
</mgrwt>
</event>
<event>
 4    1  0.6086918E-004  0.1919129E+03  0.7818608E-02  0.1156747E+00
          2   -1    0    0  501    0  0.00000000000E+00  0.00000000000E+00  0.26997772069E+03  0.26997772071E+03  0.25500000000E-02 0.  1.
         -2   -1    0    0    0  501 -0.00000000000E+00 -0.00000000000E+00 -0.34105198145E+02  0.34105198240E+02  0.25500000000E-02 0. -1.
    5000001    1    1    2    0    0 -0.12218686224E+02 -0.55811547984E+02  0.12395281399E+03  0.15670840845E+03  0.77000000000E+02 0.  0.
   -5000001    1    1    2    0    0  0.12218686224E+02  0.55811547984E+02  0.11191970856E+03  0.14737451050E+03  0.77000000000E+02 0.  0.
<mgrwt>
<rscale>  0 0.19191294E+03</rscale>
<asrwt>0</asrwt>
<pdfrwt beam="1">  1        2 0.41535033E-01 0.19191294E+03</pdfrwt>
<pdfrwt beam="2">  1       -2 0.52469537E-02 0.19191294E+03</pdfrwt>
<totfact> 0.21462049E+04</totfact>
</mgrwt>
</event>
<event>
 4    1  0.6086918E-004  0.3291077E+03  0.7818608E-02  0.1071532E+00
         -2   -1    0    0    0  501 -0.00000000000E+00  0.00000000000E+00  0.28928761010E+02  0.28928761123E+02  0.25500000000E-02 0. -1.
          2   -1    0    0  501    0  0.00000000000E+00 -0.00000000000E+00 -0.93602271263E+03  0.93602271264E+03  0.25500000000E-02 0.  1.
    5000001    1    1    2    0    0  0.90934106247E+02 -0.98628974205E+02 -0.61816619240E+03  0.63722455042E+03  0.77000000000E+02 0.  0.
   -5000001    1    1    2    0    0 -0.90934106247E+02  0.98628974205E+02 -0.28892775922E+03  0.32772692334E+03  0.77000000000E+02 0.  0.
<mgrwt>
<rscale>  0 0.32910775E+03</rscale>
<asrwt>0</asrwt>
<pdfrwt beam="1">  1        2 0.14400347E+00 0.32910775E+03</pdfrwt>
<pdfrwt beam="2">  1       -2 0.44505794E-02 0.32910775E+03</pdfrwt>
<totfact> 0.67543807E+03</totfact>
</mgrwt>
</event>
<event>
 4    1  0.6086918E-004  0.1804893E+03  0.7818608E-02  0.1167330E+00
         -2   -1    0    0    0  501 -0.00000000000E+00  0.00000000000E+00  0.71509640377E+02  0.71509640422E+02  0.25500000000E-02 0. -1.
          2   -1    0    0  501    0  0.00000000000E+00 -0.00000000000E+00 -0.11388806319E+03  0.11388806322E+03  0.25500000000E-02 0.  1.
    5000001    1    1    2    0    0  0.46627513224E+02  0.23175618945E+01 -0.27317906100E+02  0.94099755984E+02  0.77000000000E+02 0.  0.
   -5000001    1    1    2    0    0 -0.46627513224E+02 -0.23175618945E+01 -0.15060516714E+02  0.91297947657E+02  0.77000000000E+02 0.  0.
<mgrwt>
<rscale>  0 0.18048927E+03</rscale>
<asrwt>0</asrwt>
<pdfrwt beam="1">  1        2 0.17521240E-01 0.18048927E+03</pdfrwt>
<pdfrwt beam="2">  1       -2 0.11001483E-01 0.18048927E+03</pdfrwt>
<totfact> 0.17600942E+04</totfact>
</mgrwt>
</event>
<event>
 4    1  0.6086918E-004  0.1591051E+03  0.7818608E-02  0.1189711E+00
          2   -1    0    0  501    0  0.00000000000E+00  0.00000000000E+00  0.57112524112E+03  0.57112524113E+03  0.25500000000E-02 0.  1.
         -2   -1    0    0    0  501 -0.00000000000E+00 -0.00000000000E+00 -0.11080949174E+02  0.11080949468E+02  0.25500000000E-02 0. -1.
    5000001    1    1    2    0    0 -0.10069520609E+02  0.17190110569E+02  0.27399302040E+03  0.28530347066E+03  0.77000000000E+02 0.  0.
   -5000001    1    1    2    0    0  0.10069520609E+02 -0.17190110569E+02  0.28605127155E+03  0.29690271993E+03  0.77000000000E+02 0.  0.
<mgrwt>
<rscale>  0 0.15910512E+03</rscale>
<asrwt>0</asrwt>
<pdfrwt beam="1">  1        2 0.87865436E-01 0.15910512E+03</pdfrwt>
<pdfrwt beam="2">  1       -2 0.17047612E-02 0.15910512E+03</pdfrwt>
<totfact> 0.49393402E+04</totfact>
</mgrwt>
</event>
<event>
 4    1  0.6086918E-004  0.2471359E+03  0.7818608E-02  0.1115128E+00
          2   -1    0    0  501    0  0.00000000000E+00  0.00000000000E+00  0.23113001058E+02  0.23113001199E+02  0.25500000000E-02 0.  1.
         -2   -1    0    0    0  501 -0.00000000000E+00 -0.00000000000E+00 -0.66062553284E+03  0.66062553285E+03  0.25500000000E-02 0. -1.
    5000001    1    1    2    0    0 -0.66173208382E+02 -0.67315124566E+02 -0.26139785483E+03  0.28838872727E+03  0.77000000000E+02 0.  0.
   -5000001    1    1    2    0    0  0.66173208382E+02  0.67315124566E+02 -0.37611467695E+03  0.39534980678E+03  0.77000000000E+02 0.  0.
<mgrwt>
<rscale>  0 0.24713590E+03</rscale>
<asrwt>0</asrwt>
<pdfrwt beam="1">  1        2 0.35558468E-02 0.24713590E+03</pdfrwt>
<pdfrwt beam="2">  1       -2 0.10163468E+00 0.24713590E+03</pdfrwt>
<totfact> 0.20399417E+03</totfact>
</mgrwt>
</event>
<event>
 4    1  0.6086918E-004  0.2709033E+03  0.7818608E-02  0.1100764E+00
         -2   -1    0    0    0  501 -0.00000000000E+00  0.00000000000E+00  0.31237079178E+02  0.31237079282E+02  0.25500000000E-02 0. -1.
          2   -1    0    0  501    0  0.00000000000E+00 -0.00000000000E+00 -0.58735168830E+03  0.58735168830E+03  0.25500000000E-02 0.  1.
    5000001    1    1    2    0    0  0.50912675184E+02 -0.90228313843E+02 -0.18432807413E+03  0.22503130455E+03  0.77000000000E+02 0.  0.
   -5000001    1    1    2    0    0 -0.50912675184E+02  0.90228313843E+02 -0.37178653499E+03  0.39355746304E+03  0.77000000000E+02 0.  0.
<mgrwt>
<rscale>  0 0.27090331E+03</rscale>
<asrwt>0</asrwt>
<pdfrwt beam="1">  1        2 0.90361791E-01 0.27090331E+03</pdfrwt>
<pdfrwt beam="2">  1       -2 0.48057049E-02 0.27090331E+03</pdfrwt>
<totfact> 0.10699595E+04</totfact>
</mgrwt>
</event>
<event>
 4    1  0.6086918E-004  0.2061674E+03  0.7818608E-02  0.1144637E+00
         -2   -1    0    0    0  501 -0.00000000000E+00  0.00000000000E+00  0.14423924642E+02  0.14423924867E+02  0.25500000000E-02 0. -1.
          2   -1    0    0  501    0  0.00000000000E+00 -0.00000000000E+00 -0.73670976572E+03  0.73670976572E+03  0.25500000000E-02 0.  1.
    5000001    1    1    2    0    0  0.59709737373E+02  0.33641152203E+02 -0.35926256018E+03  0.37375870158E+03  0.77000000000E+02 0.  0.
   -5000001    1    1    2    0    0 -0.59709737373E+02 -0.33641152203E+02 -0.36302328090E+03  0.37737498901E+03  0.77000000000E+02 0.  0.
<mgrwt>
<rscale>  0 0.20616737E+03</rscale>
<asrwt>0</asrwt>
<pdfrwt beam="1">  1        2 0.11333993E+00 0.20616737E+03</pdfrwt>
<pdfrwt beam="2">  1       -2 0.22190659E-02 0.20616737E+03</pdfrwt>
<totfact> 0.25481756E+04</totfact>
</mgrwt>
</event>
<event>
 4    1  0.6086918E-004  0.1669883E+03  0.7818608E-02  0.1181025E+00
          2   -1    0    0  501    0  0.00000000000E+00  0.00000000000E+00  0.23568541247E+04  0.23568541247E+04  0.25500000000E-02 0.  1.
         -2   -1    0    0    0  501 -0.00000000000E+00 -0.00000000000E+00 -0.29578721029E+01  0.29578732021E+01  0.25500000000E-02 0. -1.
    5000001    1    1    2    0    0 -0.91918901493E+00  0.17785487036E+02  0.15574808794E+04  0.15594848053E+04  0.77000000000E+02 0.  0.
   -5000001    1    1    2    0    0  0.91918901493E+00 -0.17785487036E+02  0.79641537326E+03  0.80032719260E+03  0.77000000000E+02 0.  0.
<mgrwt>
<rscale>  0 0.16698832E+03</rscale>
<asrwt>0</asrwt>
<pdfrwt beam="1">  1        2 0.36259259E+00 0.16698832E+03</pdfrwt>
<pdfrwt beam="2">  1       -2 0.45505777E-03 0.16698832E+03</pdfrwt>
<totfact> 0.31272169E+04</totfact>
</mgrwt>
</event>
<event>
 4    1  0.6086918E-004  0.1661356E+03  0.7818608E-02  0.1181939E+00
          2   -1    0    0  501    0  0.00000000000E+00  0.00000000000E+00  0.45604266531E+01  0.45604273661E+01  0.25500000000E-02 0.  1.
         -2   -1    0    0    0  501 -0.00000000000E+00 -0.00000000000E+00 -0.15130724662E+04  0.15130724662E+04  0.25500000000E-02 0. -1.
    5000001    1    1    2    0    0 -0.14453683564E+02 -0.25746910021E+02 -0.84535087474E+03  0.84936382886E+03  0.77000000000E+02 0.  0.
   -5000001    1    1    2    0    0  0.14453683564E+02  0.25746910021E+02 -0.66316116481E+03  0.66826906471E+03  0.77000000000E+02 0.  0.
<mgrwt>
<rscale>  0 0.16613557E+03</rscale>
<asrwt>0</asrwt>
<pdfrwt beam="1">  1        2 0.70160536E-03 0.16613557E+03</pdfrwt>
<pdfrwt beam="2">  1       -2 0.23277998E+00 0.16613557E+03</pdfrwt>
<totfact> 0.20985100E+03</totfact>
</mgrwt>
</event>
<event>
 4    1  0.6086918E-004  0.4664418E+03  0.7818608E-02  0.1022929E+00
          2   -1    0    0  501    0  0.00000000000E+00  0.00000000000E+00  0.26890886629E+03  0.26890886630E+03  0.25500000000E-02 0.  1.
         -2   -1    0    0    0  501 -0.00000000000E+00 -0.00000000000E+00 -0.20226918271E+03  0.20226918273E+03  0.25500000000E-02 0. -1.
    5000001    1    1    2    0    0  0.13494153935E+03  0.15609724845E+01 -0.14237532100E+03  0.21074009516E+03  0.77000000000E+02 0.  0.
   -5000001    1    1    2    0    0 -0.13494153935E+03 -0.15609724845E+01  0.20901500458E+03  0.26043795387E+03  0.77000000000E+02 0.  0.
<mgrwt>
<rscale>  0 0.46644175E+03</rscale>
<asrwt>0</asrwt>
<pdfrwt beam="1">  1        2 0.41370595E-01 0.46644175E+03</pdfrwt>
<pdfrwt beam="2">  1       -2 0.31118336E-01 0.46644175E+03</pdfrwt>
<totfact> 0.11858444E+03</totfact>
</mgrwt>
</event>
<event>
 4    1  0.6086918E-004  0.5456905E+03  0.7818608E-02  0.1002496E+00
          2   -1    0    0  501    0  0.00000000000E+00  0.00000000000E+00  0.30759289831E+04  0.30759289831E+04  0.25500000000E-02 0.  1.
         -2   -1    0    0    0  501 -0.00000000000E+00 -0.00000000000E+00 -0.24202287813E+02  0.24202287947E+02  0.25500000000E-02 0. -1.
    5000001    1    1    2    0    0 -0.85485999849E+02  0.23853414136E+03  0.18987942060E+04  0.19171736565E+04  0.77000000000E+02 0.  0.
   -5000001    1    1    2    0    0  0.85485999849E+02 -0.23853414136E+03  0.11529324893E+04  0.11829576145E+04  0.77000000000E+02 0.  0.
<mgrwt>
<rscale>  0 0.54569046E+03</rscale>
<asrwt>0</asrwt>
<pdfrwt beam="1">  1        2 0.47321992E+00 0.54569046E+03</pdfrwt>
<pdfrwt beam="2">  1       -2 0.37234283E-02 0.54569046E+03</pdfrwt>
<totfact> 0.54926747E+02</totfact>
</mgrwt>
</event>
<event>
 4    1  0.6086918E-004  0.4719321E+03  0.7818608E-02  0.1021376E+00
          2   -1    0    0  501    0  0.00000000000E+00  0.00000000000E+00  0.89924298745E+03  0.89924298746E+03  0.25500000000E-02 0.  1.
         -2   -1    0    0    0  501 -0.00000000000E+00 -0.00000000000E+00 -0.61918729089E+02  0.61918729142E+02  0.25500000000E-02 0. -1.
    5000001    1    1    2    0    0 -0.14507662182E+03  0.15932111778E+03  0.30130184265E+03  0.37834143991E+03  0.77000000000E+02 0.  0.
   -5000001    1    1    2    0    0  0.14507662182E+03 -0.15932111778E+03  0.53602241571E+03  0.58282027669E+03  0.77000000000E+02 0.  0.
<mgrwt>
<rscale>  0 0.47193213E+03</rscale>
<asrwt>0</asrwt>
<pdfrwt beam="1">  1        2 0.13834508E+00 0.47193213E+03</pdfrwt>
<pdfrwt beam="2">  1       -2 0.95259583E-02 0.47193213E+03</pdfrwt>
<totfact> 0.21862582E+03</totfact>
</mgrwt>
</event>
<event>
 4    1  0.6086918E-004  0.2014256E+03  0.7818608E-02  0.1148542E+00
          2   -1    0    0  501    0  0.00000000000E+00  0.00000000000E+00  0.15429460629E+03  0.15429460632E+03  0.25500000000E-02 0.  1.
         -2   -1    0    0    0  501 -0.00000000000E+00 -0.00000000000E+00 -0.65738329508E+02  0.65738329557E+02  0.25500000000E-02 0. -1.
    5000001    1    1    2    0    0  0.55004534214E+02  0.14321207977E+02  0.10020737350E+02  0.96228950733E+02  0.77000000000E+02 0.  0.
   -5000001    1    1    2    0    0 -0.55004534214E+02 -0.14321207977E+02  0.78535539436E+02  0.12380398514E+03  0.77000000000E+02 0.  0.
<mgrwt>
<rscale>  0 0.20142562E+03</rscale>
<asrwt>0</asrwt>
<pdfrwt beam="1">  1        2 0.23737631E-01 0.20142562E+03</pdfrwt>
<pdfrwt beam="2">  1       -2 0.10113589E-01 0.20142562E+03</pdfrwt>
<totfact> 0.14366581E+04</totfact>
</mgrwt>
</event>
<event>
 4    1  0.6086918E-004  0.1852299E+03  0.7818608E-02  0.1162835E+00
         -2   -1    0    0    0  501 -0.00000000000E+00  0.00000000000E+00  0.36016182063E+03  0.36016182064E+03  0.25500000000E-02 0. -1.
          2   -1    0    0  501    0  0.00000000000E+00 -0.00000000000E+00 -0.23815761170E+02  0.23815761307E+02  0.25500000000E-02 0.  1.
    5000001    1    1    2    0    0  0.34281116123E+02  0.13519850803E+02  0.24264308152E+03  0.25722100672E+03  0.77000000000E+02 0.  0.
   -5000001    1    1    2    0    0 -0.34281116123E+02 -0.13519850803E+02  0.93702977942E+02  0.12675657523E+03  0.77000000000E+02 0.  0.
<mgrwt>
<rscale>  0 0.18522989E+03</rscale>
<asrwt>0</asrwt>
<pdfrwt beam="1">  1        2 0.36639637E-02 0.18522989E+03</pdfrwt>
<pdfrwt beam="2">  1       -2 0.55409505E-01 0.18522989E+03</pdfrwt>
<totfact> 0.71974534E+03</totfact>
</mgrwt>
</event>
<event>
 4    1  0.6086918E-004  0.2356748E+03  0.7818608E-02  0.1122708E+00
         -2   -1    0    0    0  501 -0.00000000000E+00  0.00000000000E+00  0.55440366115E+01  0.55440371979E+01  0.25500000000E-02 0. -1.
          2   -1    0    0  501    0  0.00000000000E+00 -0.00000000000E+00 -0.25046095749E+04  0.25046095749E+04  0.25500000000E-02 0.  1.
    5000001    1    1    2    0    0 -0.77759082693E+02 -0.30974524477E+02 -0.15779461244E+04  0.15820394647E+04  0.77000000000E+02 0.  0.
   -5000001    1    1    2    0    0  0.77759082693E+02  0.30974524477E+02 -0.92111941389E+03  0.92811414748E+03  0.77000000000E+02 0.  0.
<mgrwt>
<rscale>  0 0.23567476E+03</rscale>
<asrwt>0</asrwt>
<pdfrwt beam="1">  1        2 0.38532365E+00 0.23567476E+03</pdfrwt>
<pdfrwt beam="2">  1       -2 0.85293075E-03 0.23567476E+03</pdfrwt>
<totfact> 0.10693241E+04</totfact>
</mgrwt>
</event>
<event>
 4    1  0.6086918E-004  0.3638074E+03  0.7818608E-02  0.1057086E+00
          2   -1    0    0  501    0  0.00000000000E+00  0.00000000000E+00  0.92694633915E+02  0.92694633950E+02  0.25500000000E-02 0.  1.
         -2   -1    0    0    0  501 -0.00000000000E+00 -0.00000000000E+00 -0.35696741867E+03  0.35696741867E+03  0.25500000000E-02 0. -1.
    5000001    1    1    2    0    0  0.84880790779E+02 -0.12304195738E+03 -0.21790987402E+03  0.27524132160E+03  0.77000000000E+02 0.  0.
   -5000001    1    1    2    0    0 -0.84880790779E+02  0.12304195738E+03 -0.46362910728E+02  0.17442073102E+03  0.77000000000E+02 0.  0.
<mgrwt>
<rscale>  0 0.36380744E+03</rscale>
<asrwt>0</asrwt>
<pdfrwt beam="1">  1        2 0.14260713E-01 0.36380744E+03</pdfrwt>
<pdfrwt beam="2">  1       -2 0.54918064E-01 0.36380744E+03</pdfrwt>
<totfact> 0.13227750E+03</totfact>
</mgrwt>
</event>
<event>
 4    1  0.6086918E-004  0.2321244E+03  0.7818608E-02  0.1125153E+00
          2   -1    0    0  501    0  0.00000000000E+00  0.00000000000E+00  0.14006550295E+04  0.14006550295E+04  0.25500000000E-02 0.  1.
         -2   -1    0    0    0  501 -0.00000000000E+00 -0.00000000000E+00 -0.96172407569E+01  0.96172410950E+01  0.25500000000E-02 0. -1.
    5000001    1    1    2    0    0  0.12715254719E+02  0.76096075980E+02  0.45332450181E+03  0.46624499399E+03  0.77000000000E+02 0.  0.
   -5000001    1    1    2    0    0 -0.12715254719E+02 -0.76096075980E+02  0.93771328691E+03  0.94402727658E+03  0.77000000000E+02 0.  0.
<mgrwt>
<rscale>  0 0.23212442E+03</rscale>
<asrwt>0</asrwt>
<pdfrwt beam="1">  1        2 0.21548547E+00 0.23212442E+03</pdfrwt>
<pdfrwt beam="2">  1       -2 0.14795750E-02 0.23212442E+03</pdfrwt>
<totfact> 0.18447605E+04</totfact>
</mgrwt>
</event>
<event>
 4    1  0.6086918E-004  0.1715768E+03  0.7818608E-02  0.1176213E+00
          2   -1    0    0  501    0  0.00000000000E+00  0.00000000000E+00  0.13144605789E+04  0.13144605789E+04  0.25500000000E-02 0.  1.
         -2   -1    0    0    0  501 -0.00000000000E+00 -0.00000000000E+00 -0.55989870574E+01  0.55989876381E+01  0.25500000000E-02 0. -1.
    5000001    1    1    2    0    0 -0.28949027834E+02 -0.18648733872E+02  0.77481357540E+03  0.77939136389E+03  0.77000000000E+02 0.  0.
   -5000001    1    1    2    0    0  0.28949027834E+02  0.18648733872E+02  0.53404801645E+03  0.54066820265E+03  0.77000000000E+02 0.  0.
<mgrwt>
<rscale>  0 0.17157678E+03</rscale>
<asrwt>0</asrwt>
<pdfrwt beam="1">  1        2 0.20222475E+00 0.17157678E+03</pdfrwt>
<pdfrwt beam="2">  1       -2 0.86138246E-03 0.17157678E+03</pdfrwt>
<totfact> 0.44102025E+04</totfact>
</mgrwt>
</event>
<event>
 4    1  0.6086918E-004  0.4861645E+03  0.7818608E-02  0.1017455E+00
         -2   -1    0    0    0  501 -0.00000000000E+00  0.00000000000E+00  0.91283657214E+02  0.91283657249E+02  0.25500000000E-02 0. -1.
          2   -1    0    0  501    0  0.00000000000E+00 -0.00000000000E+00 -0.64731182462E+03  0.64731182462E+03  0.25500000000E-02 0.  1.
    5000001    1    1    2    0    0  0.26068694264E+02 -0.20954114856E+03 -0.13734852519E+03  0.26340213957E+03  0.77000000000E+02 0.  0.
   -5000001    1    1    2    0    0 -0.26068694264E+02  0.20954114856E+03 -0.41867964222E+03  0.47519334230E+03  0.77000000000E+02 0.  0.
<mgrwt>
<rscale>  0 0.48616454E+03</rscale>
<asrwt>0</asrwt>
<pdfrwt beam="1">  1        2 0.99586432E-01 0.48616454E+03</pdfrwt>
<pdfrwt beam="2">  1       -2 0.14043640E-01 0.48616454E+03</pdfrwt>
<totfact> 0.17684016E+03</totfact>
</mgrwt>
</event>
<event>
 4    1  0.6086918E-004  0.3283283E+03  0.7818608E-02  0.1071879E+00
         -2   -1    0    0    0  501 -0.00000000000E+00  0.00000000000E+00  0.21261306727E+02  0.21261306880E+02  0.25500000000E-02 0. -1.
          2   -1    0    0  501    0  0.00000000000E+00 -0.00000000000E+00 -0.12675546803E+04  0.12675546803E+04  0.25500000000E-02 0.  1.
    5000001    1    1    2    0    0 -0.39461282929E+02 -0.12817700012E+03 -0.40691756132E+03  0.43531303441E+03  0.77000000000E+02 0.  0.
   -5000001    1    1    2    0    0  0.39461282929E+02  0.12817700012E+03 -0.83937581222E+03  0.85350295275E+03  0.77000000000E+02 0.  0.
<mgrwt>
<rscale>  0 0.32832830E+03</rscale>
<asrwt>0</asrwt>
<pdfrwt beam="1">  1        2 0.19500835E+00 0.32832830E+03</pdfrwt>
<pdfrwt beam="2">  1       -2 0.32709713E-02 0.32832830E+03</pdfrwt>
<totfact> 0.68291906E+03</totfact>
</mgrwt>
</event>
<event>
 4    1  0.6086918E-004  0.2739510E+03  0.7818608E-02  0.1099039E+00
          2   -1    0    0  501    0  0.00000000000E+00  0.00000000000E+00  0.85343641941E+03  0.85343641942E+03  0.25500000000E-02 0.  1.
         -2   -1    0    0    0  501 -0.00000000000E+00 -0.00000000000E+00 -0.21984392058E+02  0.21984392206E+02  0.25500000000E-02 0. -1.
    5000001    1    1    2    0    0  0.28740952324E+02 -0.10677367322E+03  0.49443111320E+03  0.51246247212E+03  0.77000000000E+02 0.  0.
   -5000001    1    1    2    0    0 -0.28740952324E+02  0.10677367322E+03  0.33702091416E+03  0.36295833950E+03  0.77000000000E+02 0.  0.
<mgrwt>
<rscale>  0 0.27395095E+03</rscale>
<asrwt>0</asrwt>
<pdfrwt beam="1">  1        2 0.13129794E+00 0.27395095E+03</pdfrwt>
<pdfrwt beam="2">  1       -2 0.33822134E-02 0.27395095E+03</pdfrwt>
<totfact> 0.11502495E+04</totfact>
</mgrwt>
</event>
<event>
 4    1  0.6086918E-004  0.2230561E+03  0.7818608E-02  0.1131625E+00
          2   -1    0    0  501    0  0.00000000000E+00  0.00000000000E+00  0.82505742884E+03  0.82505742884E+03  0.25500000000E-02 0.  1.
         -2   -1    0    0    0  501 -0.00000000000E+00 -0.00000000000E+00 -0.15075925680E+02  0.15075925896E+02  0.25500000000E-02 0. -1.
    5000001    1    1    2    0    0  0.61460002375E+02 -0.35487920810E+01  0.20857108639E+03  0.23069638899E+03  0.77000000000E+02 0.  0.
   -5000001    1    1    2    0    0 -0.61460002375E+02  0.35487920810E+01  0.60141041677E+03  0.60943696575E+03  0.77000000000E+02 0.  0.
<mgrwt>
<rscale>  0 0.22305609E+03</rscale>
<asrwt>0</asrwt>
<pdfrwt beam="1">  1        2 0.12693189E+00 0.22305609E+03</pdfrwt>
<pdfrwt beam="2">  1       -2 0.23193736E-02 0.22305609E+03</pdfrwt>
<totfact> 0.20825484E+04</totfact>
</mgrwt>
</event>
<event>
 4    1  0.6086918E-004  0.2948539E+03  0.7818608E-02  0.1087842E+00
          2   -1    0    0  501    0  0.00000000000E+00  0.00000000000E+00  0.71855527783E+02  0.71855527828E+02  0.25500000000E-02 0.  1.
         -2   -1    0    0    0  501 -0.00000000000E+00 -0.00000000000E+00 -0.30247782251E+03  0.30247782252E+03  0.25500000000E-02 0. -1.
    5000001    1    1    2    0    0  0.61399230042E+02 -0.49341360088E+02  0.90875888207E+01  0.11052610341E+03  0.77000000000E+02 0.  0.
   -5000001    1    1    2    0    0 -0.61399230042E+02  0.49341360088E+02 -0.23970988355E+03  0.26380724693E+03  0.77000000000E+02 0.  0.
<mgrwt>
<rscale>  0 0.29485389E+03</rscale>
<asrwt>0</asrwt>
<pdfrwt beam="1">  1        2 0.11054697E-01 0.29485389E+03</pdfrwt>
<pdfrwt beam="2">  1       -2 0.46535049E-01 0.29485389E+03</pdfrwt>
<totfact> 0.25052708E+03</totfact>
</mgrwt>
</event>
<event>
 4    1  0.6086918E-004  0.2340989E+03  0.7818608E-02  0.1123788E+00
         -2   -1    0    0    0  501 -0.00000000000E+00  0.00000000000E+00  0.53252661325E+02  0.53252661386E+02  0.25500000000E-02 0. -1.
          2   -1    0    0  501    0  0.00000000000E+00 -0.00000000000E+00 -0.25727491395E+03  0.25727491396E+03  0.25500000000E-02 0.  1.
    5000001    1    1    2    0    0  0.44208853559E+02  0.71824580326E+02 -0.67975058853E+02  0.13290147365E+03  0.77000000000E+02 0.  0.
   -5000001    1    1    2    0    0 -0.44208853559E+02 -0.71824580326E+02 -0.13604719377E+03  0.17762610170E+03  0.77000000000E+02 0.  0.
<mgrwt>
<rscale>  0 0.23409890E+03</rscale>
<asrwt>0</asrwt>
<pdfrwt beam="1">  1        2 0.39580755E-01 0.23409890E+03</pdfrwt>
<pdfrwt beam="2">  1       -2 0.81927173E-02 0.23409890E+03</pdfrwt>
<totfact> 0.11546239E+04</totfact>
</mgrwt>
</event>
<event>
 4    1  0.6086918E-004  0.1792428E+03  0.7818608E-02  0.1168538E+00
         -2   -1    0    0    0  501 -0.00000000000E+00  0.00000000000E+00  0.66090557804E+01  0.66090562724E+01  0.25500000000E-02 0. -1.
          2   -1    0    0  501    0  0.00000000000E+00 -0.00000000000E+00 -0.12153014714E+04  0.12153014714E+04  0.25500000000E-02 0.  1.
    5000001    1    1    2    0    0 -0.42845106308E+02  0.16214045398E+02 -0.59005129386E+03  0.59681498623E+03  0.77000000000E+02 0.  0.
   -5000001    1    1    2    0    0  0.42845106308E+02 -0.16214045398E+02 -0.61864112176E+03  0.62509554145E+03  0.77000000000E+02 0.  0.
<mgrwt>
<rscale>  0 0.17924280E+03</rscale>
<asrwt>0</asrwt>
<pdfrwt beam="1">  1        2 0.18696928E+00 0.17924280E+03</pdfrwt>
<pdfrwt beam="2">  1       -2 0.10167788E-02 0.17924280E+03</pdfrwt>
<totfact> 0.39526558E+04</totfact>
</mgrwt>
</event>
<event>
 4    1  0.6086918E-004  0.6171033E+03  0.7818608E-02  0.9870544E-01
         -2   -1    0    0    0  501 -0.00000000000E+00  0.00000000000E+00  0.15450195850E+03  0.15450195852E+03  0.25500000000E-02 0. -1.
          2   -1    0    0  501    0  0.00000000000E+00 -0.00000000000E+00 -0.61620006183E+03  0.61620006184E+03  0.25500000000E-02 0.  1.
    5000001    1    1    2    0    0  0.21176943493E+03 -0.13121676327E+03 -0.24833141713E+02  0.26193475802E+03  0.77000000000E+02 0.  0.
   -5000001    1    1    2    0    0 -0.21176943493E+03  0.13121676327E+03 -0.43686496162E+03  0.50876726233E+03  0.77000000000E+02 0.  0.
<mgrwt>
<rscale>  0 0.61710329E+03</rscale>
<asrwt>0</asrwt>
<pdfrwt beam="1">  1        2 0.94800008E-01 0.61710329E+03</pdfrwt>
<pdfrwt beam="2">  1       -2 0.23769532E-01 0.61710329E+03</pdfrwt>
<totfact> 0.75775254E+02</totfact>
</mgrwt>
</event>
<event>
 4    1  0.6086918E-004  0.1787312E+03  0.7818608E-02  0.1169037E+00
         -2   -1    0    0    0  501 -0.00000000000E+00  0.00000000000E+00  0.64267412934E+01  0.64267417993E+01  0.25500000000E-02 0. -1.
          2   -1    0    0  501    0  0.00000000000E+00 -0.00000000000E+00 -0.12426530562E+04  0.12426530562E+04  0.25500000000E-02 0.  1.
    5000001    1    1    2    0    0  0.29516231476E+02 -0.25660535358E+02 -0.77862871212E+03  0.78340369053E+03  0.77000000000E+02 0.  0.
   -5000001    1    1    2    0    0 -0.29516231476E+02  0.25660535358E+02 -0.45759760276E+03  0.46567610745E+03  0.77000000000E+02 0.  0.
<mgrwt>
<rscale>  0 0.17873120E+03</rscale>
<asrwt>0</asrwt>
<pdfrwt beam="1">  1        2 0.19117720E+00 0.17873120E+03</pdfrwt>
<pdfrwt beam="2">  1       -2 0.98873046E-03 0.17873120E+03</pdfrwt>
<totfact> 0.39727939E+04</totfact>
</mgrwt>
</event>
<event>
 4    1  0.6086918E-004  0.1894960E+03  0.7818608E-02  0.1158917E+00
         -2   -1    0    0    0  501 -0.00000000000E+00  0.00000000000E+00  0.11239988291E+02  0.11239988580E+02  0.25500000000E-02 0. -1.
          2   -1    0    0  501    0  0.00000000000E+00 -0.00000000000E+00 -0.79868256647E+03  0.79868256647E+03  0.25500000000E-02 0.  1.
    5000001    1    1    2    0    0 -0.32021389653E+02 -0.30477637707E+02 -0.53508490249E+03  0.54240124324E+03  0.77000000000E+02 0.  0.
   -5000001    1    1    2    0    0  0.32021389653E+02  0.30477637707E+02 -0.25235767569E+03  0.26752131181E+03  0.77000000000E+02 0.  0.
<mgrwt>
<rscale>  0 0.18949599E+03</rscale>
<asrwt>0</asrwt>
<pdfrwt beam="1">  1        2 0.12287420E+00 0.18949599E+03</pdfrwt>
<pdfrwt beam="2">  1       -2 0.17292296E-02 0.18949599E+03</pdfrwt>
<totfact> 0.32991550E+04</totfact>
</mgrwt>
</event>
<event>
 4    1  0.6086918E-004  0.3519576E+03  0.7818608E-02  0.1061814E+00
          2   -1    0    0  501    0  0.00000000000E+00  0.00000000000E+00  0.23015454840E+04  0.23015454840E+04  0.25500000000E-02 0.  1.
         -2   -1    0    0    0  501 -0.00000000000E+00 -0.00000000000E+00 -0.13455537590E+02  0.13455537831E+02  0.25500000000E-02 0. -1.
    5000001    1    1    2    0    0 -0.12060357269E+03  0.10222269535E+03  0.11000047568E+04  0.11139722466E+04  0.77000000000E+02 0.  0.
   -5000001    1    1    2    0    0  0.12060357269E+03 -0.10222269535E+03  0.11880851896E+04  0.12010287753E+04  0.77000000000E+02 0.  0.
<mgrwt>
<rscale>  0 0.35195757E+03</rscale>
<asrwt>0</asrwt>
<pdfrwt beam="1">  1        2 0.35408383E+00 0.35195757E+03</pdfrwt>
<pdfrwt beam="2">  1       -2 0.20700833E-02 0.35195757E+03</pdfrwt>
<totfact> 0.37633335E+03</totfact>
</mgrwt>
</event>
<event>
 4    1  0.6086918E-004  0.3173042E+03  0.7818608E-02  0.1076897E+00
         -2   -1    0    0    0  501 -0.00000000000E+00  0.00000000000E+00  0.18018988380E+02  0.18018988560E+02  0.25500000000E-02 0. -1.
          2   -1    0    0  501    0  0.00000000000E+00 -0.00000000000E+00 -0.13968872682E+04  0.13968872682E+04  0.25500000000E-02 0.  1.
    5000001    1    1    2    0    0 -0.35703986109E+02  0.96742242270E+02 -0.27572575026E+03  0.30428198339E+03  0.77000000000E+02 0.  0.
   -5000001    1    1    2    0    0  0.35703986109E+02 -0.96742242270E+02 -0.11031425296E+04  0.11106242734E+04  0.77000000000E+02 0.  0.
<mgrwt>
<rscale>  0 0.31730424E+03</rscale>
<asrwt>0</asrwt>
<pdfrwt beam="1">  1        2 0.21490565E+00 0.31730424E+03</pdfrwt>
<pdfrwt beam="2">  1       -2 0.27721532E-02 0.31730424E+03</pdfrwt>
<totfact> 0.74128882E+03</totfact>
</mgrwt>
</event>
<event>
 4    1  0.6086918E-004  0.1976982E+03  0.7818608E-02  0.1151696E+00
         -2   -1    0    0    0  501 -0.00000000000E+00  0.00000000000E+00  0.22634168637E+02  0.22634168781E+02  0.25500000000E-02 0. -1.
          2   -1    0    0  501    0  0.00000000000E+00 -0.00000000000E+00 -0.43169905663E+03  0.43169905664E+03  0.25500000000E-02 0.  1.
    5000001    1    1    2    0    0 -0.33456545906E+02 -0.41700841896E+02 -0.13244895241E+03  0.16226529411E+03  0.77000000000E+02 0.  0.
   -5000001    1    1    2    0    0  0.33456545906E+02  0.41700841896E+02 -0.27661593559E+03  0.29206793131E+03  0.77000000000E+02 0.  0.
<mgrwt>
<rscale>  0 0.19769825E+03</rscale>
<asrwt>0</asrwt>
<pdfrwt beam="1">  1        2 0.66415233E-01 0.19769825E+03</pdfrwt>
<pdfrwt beam="2">  1       -2 0.34821801E-02 0.19769825E+03</pdfrwt>
<totfact> 0.24049385E+04</totfact>
</mgrwt>
</event>
<event>
 4    1  0.6086918E-004  0.2830578E+03  0.7818608E-02  0.1094030E+00
          2   -1    0    0  501    0  0.00000000000E+00  0.00000000000E+00  0.48527594408E+02  0.48527594475E+02  0.25500000000E-02 0.  1.
         -2   -1    0    0    0  501 -0.00000000000E+00 -0.00000000000E+00 -0.41276367540E+03  0.41276367541E+03  0.25500000000E-02 0. -1.
    5000001    1    1    2    0    0  0.53797943970E+02 -0.96458393427E+02 -0.11102646724E+03  0.17451165252E+03  0.77000000000E+02 0.  0.
   -5000001    1    1    2    0    0 -0.53797943970E+02  0.96458393427E+02 -0.25320961375E+03  0.28677961736E+03  0.77000000000E+02 0.  0.
<mgrwt>
<rscale>  0 0.28305779E+03</rscale>
<asrwt>0</asrwt>
<pdfrwt beam="1">  1        2 0.74657840E-02 0.28305779E+03</pdfrwt>
<pdfrwt beam="2">  1       -2 0.63502102E-01 0.28305779E+03</pdfrwt>
<totfact> 0.21792106E+03</totfact>
</mgrwt>
</event>
<event>
 4    1  0.6086918E-004  0.2943042E+03  0.7818608E-02  0.1088123E+00
          2   -1    0    0  501    0  0.00000000000E+00  0.00000000000E+00  0.34348999432E+04  0.34348999432E+04  0.25500000000E-02 0.  1.
         -2   -1    0    0    0  501 -0.00000000000E+00 -0.00000000000E+00 -0.63040379717E+01  0.63040384875E+01  0.25500000000E-02 0. -1.
    5000001    1    1    2    0    0  0.75840149465E+02 -0.44563802325E+02  0.66931797640E+03  0.67945067097E+03  0.77000000000E+02 0.  0.
   -5000001    1    1    2    0    0 -0.75840149465E+02  0.44563802325E+02  0.27592779289E+04  0.27617533107E+04  0.77000000000E+02 0.  0.
<mgrwt>
<rscale>  0 0.29430420E+03</rscale>
<asrwt>0</asrwt>
<pdfrwt beam="1">  1        2 0.52844469E+00 0.29430420E+03</pdfrwt>
<pdfrwt beam="2">  1       -2 0.96985471E-03 0.29430420E+03</pdfrwt>
<totfact> 0.24883316E+03</totfact>
</mgrwt>
</event>
<event>
 4    1  0.6086918E-004  0.2754252E+03  0.7818608E-02  0.1098214E+00
         -2   -1    0    0    0  501 -0.00000000000E+00  0.00000000000E+00  0.92635720321E+02  0.92635720356E+02  0.25500000000E-02 0. -1.
          2   -1    0    0  501    0  0.00000000000E+00 -0.00000000000E+00 -0.20472404387E+03  0.20472404389E+03  0.25500000000E-02 0.  1.
    5000001    1    1    2    0    0 -0.48368960667E+02  0.10341684352E+03 -0.57206667141E+02  0.14911808289E+03  0.77000000000E+02 0.  0.
   -5000001    1    1    2    0    0  0.48368960667E+02 -0.10341684352E+03 -0.54881656412E+02  0.14824168135E+03  0.77000000000E+02 0.  0.
<mgrwt>
<rscale>  0 0.27542519E+03</rscale>
<asrwt>0</asrwt>
<pdfrwt beam="1">  1        2 0.31496007E-01 0.27542519E+03</pdfrwt>
<pdfrwt beam="2">  1       -2 0.14251649E-01 0.27542519E+03</pdfrwt>
<totfact> 0.61469081E+03</totfact>
</mgrwt>
</event>
<event>
 4    1  0.6086918E-004  0.2362304E+03  0.7818608E-02  0.1122330E+00
          2   -1    0    0  501    0  0.00000000000E+00  0.00000000000E+00  0.30037916970E+03  0.30037916971E+03  0.25500000000E-02 0.  1.
         -2   -1    0    0    0  501 -0.00000000000E+00 -0.00000000000E+00 -0.46445299419E+02  0.46445299489E+02  0.25500000000E-02 0. -1.
    5000001    1    1    2    0    0 -0.36228157591E+02  0.74133292625E+02  0.17812086425E+03  0.21086551819E+03  0.77000000000E+02 0.  0.
   -5000001    1    1    2    0    0  0.36228157591E+02 -0.74133292625E+02  0.75813006029E+02  0.13595895101E+03  0.77000000000E+02 0.  0.
<mgrwt>
<rscale>  0 0.23623040E+03</rscale>
<asrwt>0</asrwt>
<pdfrwt beam="1">  1        2 0.46212180E-01 0.23623040E+03</pdfrwt>
<pdfrwt beam="2">  1       -2 0.71454306E-02 0.23623040E+03</pdfrwt>
<totfact> 0.12099543E+04</totfact>
</mgrwt>
</event>
<event>
 4    1  0.6086918E-004  0.2385275E+03  0.7818608E-02  0.1120778E+00
          2   -1    0    0  501    0  0.00000000000E+00  0.00000000000E+00  0.10763187173E+04  0.10763187173E+04  0.25500000000E-02 0. -1.
         -2   -1    0    0    0  501 -0.00000000000E+00 -0.00000000000E+00 -0.13215271203E+02  0.13215271449E+02  0.25500000000E-02 0.  1.
    5000001    1    1    2    0    0 -0.44143569374E+02  0.44946661909E+02  0.83198282531E+03  0.83791006603E+03  0.77000000000E+02 0.  0.
   -5000001    1    1    2    0    0  0.44143569374E+02 -0.44946661909E+02  0.23112062074E+03  0.25162392268E+03  0.77000000000E+02 0.  0.
<mgrwt>
<rscale>  0 0.23852752E+03</rscale>
<asrwt>0</asrwt>
<pdfrwt beam="1">  1        2 0.16558754E+00 0.23852752E+03</pdfrwt>
<pdfrwt beam="2">  1       -2 0.20331181E-02 0.23852752E+03</pdfrwt>
<totfact> 0.17645435E+04</totfact>
</mgrwt>
</event>
<event>
 4    1  0.6086918E-004  0.1828170E+03  0.7818608E-02  0.1165104E+00
         -2   -1    0    0    0  501 -0.00000000000E+00  0.00000000000E+00  0.62688151675E+01  0.62688156861E+01  0.25500000000E-02 0. -1.
          2   -1    0    0  501    0  0.00000000000E+00 -0.00000000000E+00 -0.13328689969E+04  0.13328689969E+04  0.25500000000E-02 0.  1.
    5000001    1    1    2    0    0 -0.28283802831E+02  0.40329831445E+02 -0.66478195831E+03  0.67103689980E+03  0.77000000000E+02 0.  0.
   -5000001    1    1    2    0    0  0.28283802831E+02 -0.40329831445E+02 -0.66181822345E+03  0.66810091281E+03  0.77000000000E+02 0.  0.
<mgrwt>
<rscale>  0 0.18281695E+03</rscale>
<asrwt>0</asrwt>
<pdfrwt beam="1">  1        2 0.20505654E+00 0.18281695E+03</pdfrwt>
<pdfrwt beam="2">  1       -2 0.96443421E-03 0.18281695E+03</pdfrwt>
<totfact> 0.36810437E+04</totfact>
</mgrwt>
</event>
<event>
 4    1  0.6086918E-004  0.2417004E+03  0.7818608E-02  0.1118665E+00
         -2   -1    0    0    0  501 -0.00000000000E+00  0.00000000000E+00  0.90931933416E+01  0.90931936992E+01  0.25500000000E-02 0. -1.
          2   -1    0    0  501    0  0.00000000000E+00 -0.00000000000E+00 -0.16061215872E+04  0.16061215872E+04  0.25500000000E-02 0.  1.
    5000001    1    1    2    0    0 -0.78105189774E+02  0.39424636088E+01 -0.46040515507E+03  0.47330526144E+03  0.77000000000E+02 0.  0.
   -5000001    1    1    2    0    0  0.78105189774E+02 -0.39424636088E+01 -0.11366232388E+04  0.11419095195E+04  0.77000000000E+02 0.  0.
<mgrwt>
<rscale>  0 0.24170043E+03</rscale>
<asrwt>0</asrwt>
<pdfrwt beam="1">  1        2 0.24709540E+00 0.24170043E+03</pdfrwt>
<pdfrwt beam="2">  1       -2 0.13989541E-02 0.24170043E+03</pdfrwt>
<totfact> 0.15580129E+04</totfact>
</mgrwt>
</event>
<event>
 4    1  0.6086918E-004  0.2124017E+03  0.7818608E-02  0.1139678E+00
         -2   -1    0    0    0  501 -0.00000000000E+00  0.00000000000E+00  0.17373002803E+02  0.17373002990E+02  0.25500000000E-02 0. -1.
          2   -1    0    0  501    0  0.00000000000E+00 -0.00000000000E+00 -0.64920384364E+03  0.64920384364E+03  0.25500000000E-02 0.  1.
    5000001    1    1    2    0    0 -0.57196731733E+02 -0.42537500023E+02 -0.26447098771E+03  0.28452558474E+03  0.77000000000E+02 0.  0.
   -5000001    1    1    2    0    0  0.57196731733E+02  0.42537500023E+02 -0.36735985312E+03  0.38205126189E+03  0.77000000000E+02 0.  0.
<mgrwt>
<rscale>  0 0.21240170E+03</rscale>
<asrwt>0</asrwt>
<pdfrwt beam="1">  1        2 0.99877496E-01 0.21240170E+03</pdfrwt>
<pdfrwt beam="2">  1       -2 0.26727702E-02 0.21240170E+03</pdfrwt>
<totfact> 0.22599087E+04</totfact>
</mgrwt>
</event>
<event>
 4    1  0.6086918E-004  0.1973082E+03  0.7818608E-02  0.1152030E+00
         -2   -1    0    0    0  501 -0.00000000000E+00  0.00000000000E+00  0.57413032267E+01  0.57413037930E+01  0.25500000000E-02 0. -1.
          2   -1    0    0  501    0  0.00000000000E+00 -0.00000000000E+00 -0.16951956372E+04  0.16951956372E+04  0.25500000000E-02 0.  1.
    5000001    1    1    2    0    0 -0.39201321420E+01 -0.53702642343E+02 -0.58549000400E+03  0.59298135385E+03  0.77000000000E+02 0.  0.
   -5000001    1    1    2    0    0  0.39201321420E+01  0.53702642343E+02 -0.11039643300E+04  0.11079555871E+04  0.77000000000E+02 0.  0.
<mgrwt>
<rscale>  0 0.19730821E+03</rscale>
<asrwt>0</asrwt>
<pdfrwt beam="1">  1        2 0.26079893E+00 0.19730821E+03</pdfrwt>
<pdfrwt beam="2">  1       -2 0.88327881E-03 0.19730821E+03</pdfrwt>
<totfact> 0.26999901E+04</totfact>
</mgrwt>
</event>
<event>
 4    1  0.6086918E-004  0.2327559E+03  0.7818608E-02  0.1124715E+00
          2   -1    0    0  501    0  0.00000000000E+00  0.00000000000E+00  0.42649774016E+03  0.42649774016E+03  0.25500000000E-02 0.  1.
         -2   -1    0    0    0  501 -0.00000000000E+00 -0.00000000000E+00 -0.31755924892E+02  0.31755924994E+02  0.25500000000E-02 0. -1.
    5000001    1    1    2    0    0  0.70779754641E+02 -0.36321148680E+02  0.26796967192E+03  0.28994093291E+03  0.77000000000E+02 0.  0.
   -5000001    1    1    2    0    0 -0.70779754641E+02  0.36321148680E+02  0.12677214335E+03  0.16831273225E+03  0.77000000000E+02 0.  0.
<mgrwt>
<rscale>  0 0.23275593E+03</rscale>
<asrwt>0</asrwt>
<pdfrwt beam="1">  1        2 0.65615038E-01 0.23275593E+03</pdfrwt>
<pdfrwt beam="2">  1       -2 0.48855269E-02 0.23275593E+03</pdfrwt>
<totfact> 0.14820407E+04</totfact>
</mgrwt>
</event>
<event>
 4    1  0.6086918E-004  0.4174176E+03  0.7818608E-02  0.1037910E+00
          2   -1    0    0  501    0  0.00000000000E+00  0.00000000000E+00  0.42847075747E+03  0.42847075748E+03  0.25500000000E-02 0.  1.
         -2   -1    0    0    0  501 -0.00000000000E+00 -0.00000000000E+00 -0.10166241876E+03  0.10166241879E+03  0.25500000000E-02 0. -1.
    5000001    1    1    2    0    0 -0.30781844520E+02  0.15367587531E+03  0.30858025782E+03  0.35456250805E+03  0.77000000000E+02 0.  0.
   -5000001    1    1    2    0    0  0.30781844520E+02 -0.15367587531E+03  0.18228080899E+02  0.17557066821E+03  0.77000000000E+02 0.  0.
<mgrwt>
<rscale>  0 0.41741765E+03</rscale>
<asrwt>0</asrwt>
<pdfrwt beam="1">  1        2 0.65918578E-01 0.41741765E+03</pdfrwt>
<pdfrwt beam="2">  1       -2 0.15640372E-01 0.41741765E+03</pdfrwt>
<totfact> 0.23772992E+03</totfact>
</mgrwt>
</event>
<event>
 4    1  0.6086918E-004  0.2011598E+03  0.7818608E-02  0.1148764E+00
          2   -1    0    0  501    0  0.00000000000E+00  0.00000000000E+00  0.50276079792E+03  0.50276079793E+03  0.25500000000E-02 0.  1.
         -2   -1    0    0    0  501 -0.00000000000E+00 -0.00000000000E+00 -0.20121522968E+02  0.20121523130E+02  0.25500000000E-02 0. -1.
    5000001    1    1    2    0    0 -0.39446111072E+02 -0.50665237767E+02  0.26217128864E+03  0.28068798796E+03  0.77000000000E+02 0.  0.
   -5000001    1    1    2    0    0  0.39446111072E+02  0.50665237767E+02  0.22046798632E+03  0.24219433310E+03  0.77000000000E+02 0.  0.
<mgrwt>
<rscale>  0 0.20115977E+03</rscale>
<asrwt>0</asrwt>
<pdfrwt beam="1">  1        2 0.77347826E-01 0.20115977E+03</pdfrwt>
<pdfrwt beam="2">  1       -2 0.30956185E-02 0.20115977E+03</pdfrwt>
<totfact> 0.24257030E+04</totfact>
</mgrwt>
</event>
<event>
 4    1  0.6086918E-004  0.1818634E+03  0.7818608E-02  0.1166012E+00
          2   -1    0    0  501    0  0.00000000000E+00  0.00000000000E+00  0.36473255464E+02  0.36473255553E+02  0.25500000000E-02 0.  1.
         -2   -1    0    0    0  501 -0.00000000000E+00 -0.00000000000E+00 -0.22670249829E+03  0.22670249830E+03  0.25500000000E-02 0. -1.
    5000001    1    1    2    0    0 -0.10880170221E+01 -0.43966955611E+02 -0.12424790236E+03  0.15264605533E+03  0.77000000000E+02 0.  0.
   -5000001    1    1    2    0    0  0.10880170221E+01  0.43966955611E+02 -0.65981340467E+02  0.11052969853E+03  0.77000000000E+02 0.  0.
<mgrwt>
<rscale>  0 0.18186344E+03</rscale>
<asrwt>0</asrwt>
<pdfrwt beam="1">  1        2 0.56112702E-02 0.18186344E+03</pdfrwt>
<pdfrwt beam="2">  1       -2 0.34877307E-01 0.18186344E+03</pdfrwt>
<totfact> 0.10031450E+04</totfact>
</mgrwt>
</event>
<event>
 4    1  0.6086918E-004  0.2650270E+03  0.7818608E-02  0.1104160E+00
         -2   -1    0    0    0  501 -0.00000000000E+00  0.00000000000E+00  0.34550822307E+02  0.34550822401E+02  0.25500000000E-02 0. -1.
          2   -1    0    0  501    0  0.00000000000E+00 -0.00000000000E+00 -0.50823187496E+03  0.50823187496E+03  0.25500000000E-02 0.  1.
    5000001    1    1    2    0    0 -0.28374370101E+02 -0.10387756115E+03 -0.24898735862E+03  0.28199176821E+03  0.77000000000E+02 0.  0.
   -5000001    1    1    2    0    0  0.28374370101E+02  0.10387756115E+03 -0.22469369403E+03  0.26079092915E+03  0.77000000000E+02 0.  0.
<mgrwt>
<rscale>  0 0.26502701E+03</rscale>
<asrwt>0</asrwt>
<pdfrwt beam="1">  1        2 0.78189514E-01 0.26502701E+03</pdfrwt>
<pdfrwt beam="2">  1       -2 0.53155115E-02 0.26502701E+03</pdfrwt>
<totfact> 0.10811184E+04</totfact>
</mgrwt>
</event>
<event>
 4    1  0.6086918E-004  0.3297083E+03  0.7818608E-02  0.1071266E+00
         -2   -1    0    0    0  501 -0.00000000000E+00  0.00000000000E+00  0.24826553880E+03  0.24826553881E+03  0.25500000000E-02 0. -1.
          2   -1    0    0  501    0  0.00000000000E+00 -0.00000000000E+00 -0.10946702985E+03  0.10946702988E+03  0.25500000000E-02 0.  1.
    5000001    1    1    2    0    0  0.15162216379E+02 -0.14070302973E+03  0.31491749345E+02  0.16415835543E+03  0.77000000000E+02 0.  0.
   -5000001    1    1    2    0    0 -0.15162216379E+02  0.14070302973E+03  0.10730675961E+03  0.19357421326E+03  0.77000000000E+02 0.  0.
<mgrwt>
<rscale>  0 0.32970830E+03</rscale>
<asrwt>0</asrwt>
<pdfrwt beam="1">  1        2 0.16841082E-01 0.32970830E+03</pdfrwt>
<pdfrwt beam="2">  1       -2 0.38194698E-01 0.32970830E+03</pdfrwt>
<totfact> 0.22173602E+03</totfact>
</mgrwt>
</event>
<event>
 4    1  0.6086918E-004  0.4559497E+03  0.7818608E-02  0.1025962E+00
          2   -1    0    0  501    0  0.00000000000E+00  0.00000000000E+00  0.15878044663E+04  0.15878044663E+04  0.25500000000E-02 0.  1.
         -2   -1    0    0    0  501 -0.00000000000E+00 -0.00000000000E+00 -0.32732328777E+02  0.32732328876E+02  0.25500000000E-02 0. -1.
    5000001    1    1    2    0    0  0.53780769498E+02  0.20104255641E+03  0.59172725829E+03  0.63196568645E+03  0.77000000000E+02 0.  0.
   -5000001    1    1    2    0    0 -0.53780769498E+02 -0.20104255641E+03  0.96334487925E+03  0.98857110874E+03  0.77000000000E+02 0.  0.
<mgrwt>
<rscale>  0 0.45594972E+03</rscale>
<asrwt>0</asrwt>
<pdfrwt beam="1">  1        2 0.24427754E+00 0.45594972E+03</pdfrwt>
<pdfrwt beam="2">  1       -2 0.50357444E-02 0.45594972E+03</pdfrwt>
<totfact> 0.23624424E+03</totfact>
</mgrwt>
</event>
<event>
 4    1  0.6086918E-004  0.2731182E+03  0.7818608E-02  0.1099508E+00
         -2   -1    0    0    0  501 -0.00000000000E+00  0.00000000000E+00  0.22207283910E+02  0.22207284056E+02  0.25500000000E-02 0. -1.
          2   -1    0    0  501    0  0.00000000000E+00 -0.00000000000E+00 -0.83974171677E+03  0.83974171677E+03  0.25500000000E-02 0.  1.
    5000001    1    1    2    0    0  0.10281130239E+03 -0.46088451752E+02 -0.39296425644E+03  0.41598583644E+03  0.77000000000E+02 0.  0.
   -5000001    1    1    2    0    0 -0.10281130239E+03  0.46088451752E+02 -0.42457017642E+03  0.44596316439E+03  0.77000000000E+02 0.  0.
<mgrwt>
<rscale>  0 0.27311816E+03</rscale>
<asrwt>0</asrwt>
<pdfrwt beam="1">  1        2 0.12919101E+00 0.27311816E+03</pdfrwt>
<pdfrwt beam="2">  1       -2 0.34165059E-02 0.27311816E+03</pdfrwt>
<totfact> 0.11570424E+04</totfact>
</mgrwt>
</event>
<event>
 4    1  0.6086918E-004  0.5939486E+03  0.7818608E-02  0.9918041E-01
          2   -1    0    0  501    0  0.00000000000E+00  0.00000000000E+00  0.21258785619E+04  0.21258785619E+04  0.25500000000E-02 0.  1.
         -2   -1    0    0    0  501 -0.00000000000E+00 -0.00000000000E+00 -0.41485779216E+02  0.41485779294E+02  0.25500000000E-02 0. -1.
    5000001    1    1    2    0    0 -0.21536753669E+02 -0.25710967616E+03  0.14993591149E+04  0.15233436817E+04  0.77000000000E+02 0.  0.
   -5000001    1    1    2    0    0  0.21536753669E+02  0.25710967616E+03  0.58503366779E+03  0.64402065944E+03  0.77000000000E+02 0.  0.
<mgrwt>
<rscale>  0 0.59394858E+03</rscale>
<asrwt>0</asrwt>
<pdfrwt beam="1">  1        2 0.32705820E+00 0.59394858E+03</pdfrwt>
<pdfrwt beam="2">  1       -2 0.63824283E-02 0.59394858E+03</pdfrwt>
<totfact> 0.83079432E+02</totfact>
</mgrwt>
</event>
<event>
 4    1  0.6086918E-004  0.2080886E+03  0.7818608E-02  0.1143089E+00
          2   -1    0    0  501    0  0.00000000000E+00  0.00000000000E+00  0.25419507311E+03  0.25419507312E+03  0.25500000000E-02 0.  1.
         -2   -1    0    0    0  501 -0.00000000000E+00 -0.00000000000E+00 -0.42586261228E+02  0.42586261305E+02  0.25500000000E-02 0. -1.
    5000001    1    1    2    0    0 -0.29205184855E+02  0.57028983236E+01  0.15480820968E+02  0.83988818836E+02  0.77000000000E+02 0.  0.
   -5000001    1    1    2    0    0  0.29205184855E+02 -0.57028983236E+01  0.19612799092E+03  0.21279251559E+03  0.77000000000E+02 0.  0.
<mgrwt>
<rscale>  0 0.20808861E+03</rscale>
<asrwt>0</asrwt>
<pdfrwt beam="1">  1        2 0.39106934E-01 0.20808861E+03</pdfrwt>
<pdfrwt beam="2">  1       -2 0.65517326E-02 0.20808861E+03</pdfrwt>
<totfact> 0.16412447E+04</totfact>
</mgrwt>
</event>
<event>
 4    1  0.6086918E-004  0.1712391E+03  0.7818608E-02  0.1176562E+00
         -2   -1    0    0    0  501 -0.00000000000E+00  0.00000000000E+00  0.28573699177E+01  0.28573710556E+01  0.25500000000E-02 0. -1.
          2   -1    0    0  501    0  0.00000000000E+00 -0.00000000000E+00 -0.25655435661E+04  0.25655435661E+04  0.25500000000E-02 0.  1.
    5000001    1    1    2    0    0  0.13951398241E+02 -0.34044427077E+02 -0.13853061865E+04  0.13879322372E+04  0.77000000000E+02 0.  0.
   -5000001    1    1    2    0    0 -0.13951398241E+02  0.34044427077E+02 -0.11773800096E+04  0.11804687000E+04  0.77000000000E+02 0.  0.
<mgrwt>
<rscale>  0 0.17123911E+03</rscale>
<asrwt>0</asrwt>
<pdfrwt beam="1">  1        2 0.39469717E+00 0.17123911E+03</pdfrwt>
<pdfrwt beam="2">  1       -2 0.43959751E-03 0.17123911E+03</pdfrwt>
<totfact> 0.25413922E+04</totfact>
</mgrwt>
</event>
<event>
 4    1  0.6086918E-004  0.4515880E+03  0.7818608E-02  0.1027250E+00
         -2   -1    0    0    0  501 -0.00000000000E+00  0.00000000000E+00  0.27448219674E+03  0.27448219675E+03  0.25500000000E-02 0. -1.
          2   -1    0    0  501    0  0.00000000000E+00 -0.00000000000E+00 -0.18574219625E+03  0.18574219626E+03  0.25500000000E-02 0.  1.
    5000001    1    1    2    0    0  0.11359055143E+03 -0.17162963960E+03 -0.85301178735E+01  0.21991204941E+03  0.77000000000E+02 0.  0.
   -5000001    1    1    2    0    0 -0.11359055143E+03  0.17162963960E+03  0.97270118368E+02  0.24031234361E+03  0.77000000000E+02 0.  0.
<mgrwt>
<rscale>  0 0.45158798E+03</rscale>
<asrwt>0</asrwt>
<pdfrwt beam="1">  1        2 0.28575722E-01 0.45158798E+03</pdfrwt>
<pdfrwt beam="2">  1       -2 0.42228030E-01 0.45158798E+03</pdfrwt>
<totfact> 0.10003126E+03</totfact>
</mgrwt>
</event>
<event>
 4    1  0.6086918E-004  0.3786045E+03  0.7818608E-02  0.1051451E+00
          2   -1    0    0  501    0  0.00000000000E+00  0.00000000000E+00  0.46231250515E+03  0.46231250515E+03  0.25500000000E-02 0.  1.
         -2   -1    0    0    0  501 -0.00000000000E+00 -0.00000000000E+00 -0.77513249818E+02  0.77513249860E+02  0.25500000000E-02 0. -1.
    5000001    1    1    2    0    0 -0.16425310381E+03 -0.33194311026E+01  0.26939768001E+03  0.32479872341E+03  0.77000000000E+02 0.  0.
   -5000001    1    1    2    0    0  0.16425310381E+03  0.33194311026E+01  0.11540157532E+03  0.21502703161E+03  0.77000000000E+02 0.  0.
<mgrwt>
<rscale>  0 0.37860452E+03</rscale>
<asrwt>0</asrwt>
<pdfrwt beam="1">  1        2 0.71125000E-01 0.37860452E+03</pdfrwt>
<pdfrwt beam="2">  1       -2 0.11925115E-01 0.37860452E+03</pdfrwt>
<totfact> 0.34135381E+03</totfact>
</mgrwt>
</event>
<event>
 4    1  0.6086918E-004  0.2111444E+03  0.7818608E-02  0.1140663E+00
         -2   -1    0    0    0  501 -0.00000000000E+00  0.00000000000E+00  0.11295658619E+03  0.11295658622E+03  0.25500000000E-02 0. -1.
          2   -1    0    0  501    0  0.00000000000E+00 -0.00000000000E+00 -0.98670565083E+02  0.98670565116E+02  0.25500000000E-02 0.  1.
    5000001    1    1    2    0    0  0.49615026243E+02  0.24266403083E+02 -0.39503496567E+02  0.10266467449E+03  0.77000000000E+02 0.  0.
   -5000001    1    1    2    0    0 -0.49615026243E+02 -0.24266403083E+02  0.53789517671E+02  0.10896247684E+03  0.77000000000E+02 0.  0.
<mgrwt>
<rscale>  0 0.21114441E+03</rscale>
<asrwt>0</asrwt>
<pdfrwt beam="1">  1        2 0.15180087E-01 0.21114441E+03</pdfrwt>
<pdfrwt beam="2">  1       -2 0.17377936E-01 0.21114441E+03</pdfrwt>
<totfact> 0.99848258E+03</totfact>
</mgrwt>
</event>
<event>
 4    1  0.6086918E-004  0.1946495E+03  0.7818608E-02  0.1154333E+00
          2   -1    0    0  501    0  0.00000000000E+00  0.00000000000E+00  0.10644489883E+04  0.10644489883E+04  0.25500000000E-02 0.  1.
         -2   -1    0    0    0  501 -0.00000000000E+00 -0.00000000000E+00 -0.88986012405E+01  0.88986016059E+01  0.25500000000E-02 0. -1.
    5000001    1    1    2    0    0 -0.53210344138E+02 -0.14704181062E+02  0.65052827769E+03  0.65739150720E+03  0.77000000000E+02 0.  0.
   -5000001    1    1    2    0    0  0.53210344138E+02  0.14704181062E+02  0.40502210934E+03  0.41595608268E+03  0.77000000000E+02 0.  0.
<mgrwt>
<rscale>  0 0.19464950E+03</rscale>
<asrwt>0</asrwt>
<pdfrwt beam="1">  1        2 0.16376127E+00 0.19464950E+03</pdfrwt>
<pdfrwt beam="2">  1       -2 0.13690165E-02 0.19464950E+03</pdfrwt>
<totfact> 0.31559756E+04</totfact>
</mgrwt>
</event>
<event>
 4    1  0.6086918E-004  0.1877716E+03  0.7818608E-02  0.1160487E+00
          2   -1    0    0  501    0  0.00000000000E+00  0.00000000000E+00  0.98586984214E+01  0.98586987511E+01  0.25500000000E-02 0.  1.
         -2   -1    0    0    0  501 -0.00000000000E+00 -0.00000000000E+00 -0.89408773932E+03  0.89408773933E+03  0.25500000000E-02 0. -1.
    5000001    1    1    2    0    0 -0.49979674773E+02 -0.10090524504E+02 -0.52349302906E+03  0.53157665303E+03  0.77000000000E+02 0.  0.
   -5000001    1    1    2    0    0  0.49979674773E+02  0.10090524504E+02 -0.36073601185E+03  0.37236978505E+03  0.77000000000E+02 0.  0.
<mgrwt>
<rscale>  0 0.18777158E+03</rscale>
<asrwt>0</asrwt>
<pdfrwt beam="1">  1        2 0.15167236E-02 0.18777158E+03</pdfrwt>
<pdfrwt beam="2">  1       -2 0.13755190E+00 0.18777158E+03</pdfrwt>
<totfact> 0.31095339E+03</totfact>
</mgrwt>
</event>
<event>
 4    1  0.6086918E-004  0.2284060E+03  0.7818608E-02  0.1127767E+00
          2   -1    0    0  501    0  0.00000000000E+00  0.00000000000E+00  0.23603894196E+03  0.23603894197E+03  0.25500000000E-02 0.  1.
         -2   -1    0    0    0  501 -0.00000000000E+00 -0.00000000000E+00 -0.55254954222E+02  0.55254954281E+02  0.25500000000E-02 0. -1.
    5000001    1    1    2    0    0 -0.49304316097E+02 -0.25983792178E+02  0.96597446054E+01  0.95542575366E+02  0.77000000000E+02 0.  0.
   -5000001    1    1    2    0    0  0.49304316097E+02  0.25983792178E+02  0.17112424313E+03  0.19575132089E+03  0.77000000000E+02 0.  0.
<mgrwt>
<rscale>  0 0.22840596E+03</rscale>
<asrwt>0</asrwt>
<pdfrwt beam="1">  1        2 0.36313683E-01 0.22840596E+03</pdfrwt>
<pdfrwt beam="2">  1       -2 0.85007622E-02 0.22840596E+03</pdfrwt>
<totfact> 0.11943266E+04</totfact>
</mgrwt>
</event>
<event>
 4    1  0.6086918E-004  0.2213823E+03  0.7818608E-02  0.1132857E+00
          2   -1    0    0  501    0  0.00000000000E+00  0.00000000000E+00  0.20048740670E+04  0.20048740670E+04  0.25500000000E-02 0.  1.
         -2   -1    0    0    0  501 -0.00000000000E+00 -0.00000000000E+00 -0.61113705309E+01  0.61113710629E+01  0.25500000000E-02 0. -1.
    5000001    1    1    2    0    0 -0.20667150262E+01  0.64853922919E+02  0.58180195707E+03  0.59045136962E+03  0.77000000000E+02 0.  0.
   -5000001    1    1    2    0    0  0.20667150262E+01 -0.64853922919E+02  0.14169607394E+04  0.14205340684E+04  0.77000000000E+02 0.  0.
<mgrwt>
<rscale>  0 0.22138228E+03</rscale>
<asrwt>0</asrwt>
<pdfrwt beam="1">  1        2 0.30844283E+00 0.22138228E+03</pdfrwt>
<pdfrwt beam="2">  1       -2 0.94020887E-03 0.22138228E+03</pdfrwt>
<totfact> 0.17108351E+04</totfact>
</mgrwt>
</event>
<event>
 4    1  0.6086918E-004  0.3374545E+03  0.7818608E-02  0.1067885E+00
          2   -1    0    0  501    0  0.00000000000E+00  0.00000000000E+00  0.52065902375E+03  0.52065902376E+03  0.25500000000E-02 0.  1.
         -2   -1    0    0    0  501 -0.00000000000E+00 -0.00000000000E+00 -0.54678549050E+02  0.54678549109E+02  0.25500000000E-02 0. -1.
    5000001    1    1    2    0    0  0.54730210361E+02 -0.13398884334E+03  0.30100564628E+03  0.34275618909E+03  0.77000000000E+02 0.  0.
   -5000001    1    1    2    0    0 -0.54730210361E+02  0.13398884334E+03  0.16497482842E+03  0.23258138378E+03  0.77000000000E+02 0.  0.
<mgrwt>
<rscale>  0 0.33745447E+03</rscale>
<asrwt>0</asrwt>
<pdfrwt beam="1">  1        2 0.80101390E-01 0.33745447E+03</pdfrwt>
<pdfrwt beam="2">  1       -2 0.84120843E-02 0.33745447E+03</pdfrwt>
<totfact> 0.52083635E+03</totfact>
</mgrwt>
</event>
<event>
 4    1  0.6086918E-004  0.2024727E+03  0.7818608E-02  0.1147669E+00
         -2   -1    0    0    0  501 -0.00000000000E+00  0.00000000000E+00  0.10973676481E+02  0.10973676778E+02  0.25500000000E-02 0. -1.
          2   -1    0    0  501    0  0.00000000000E+00 -0.00000000000E+00 -0.93394428460E+03  0.93394428461E+03  0.25500000000E-02 0.  1.
    5000001    1    1    2    0    0  0.40417001115E+02 -0.48730137123E+02 -0.54387174953E+03  0.55293185853E+03  0.77000000000E+02 0.  0.
   -5000001    1    1    2    0    0 -0.40417001115E+02  0.48730137123E+02 -0.37909885859E+03  0.39198610285E+03  0.77000000000E+02 0.  0.
<mgrwt>
<rscale>  0 0.20247274E+03</rscale>
<asrwt>0</asrwt>
<pdfrwt beam="1">  1        2 0.14368367E+00 0.20247274E+03</pdfrwt>
<pdfrwt beam="2">  1       -2 0.16882587E-02 0.20247274E+03</pdfrwt>
<totfact> 0.28001923E+04</totfact>
</mgrwt>
</event>
<event>
 4    1  0.6086918E-004  0.2739905E+03  0.7818608E-02  0.1099017E+00
         -2   -1    0    0    0  501 -0.00000000000E+00  0.00000000000E+00  0.94230104926E+02  0.94230104961E+02  0.25500000000E-02 0. -1.
          2   -1    0    0  501    0  0.00000000000E+00 -0.00000000000E+00 -0.19916887717E+03  0.19916887719E+03  0.25500000000E-02 0.  1.
    5000001    1    1    2    0    0 -0.11010815223E+03  0.84259357423E+01 -0.25296665187E+02  0.13698073898E+03  0.77000000000E+02 0.  0.
   -5000001    1    1    2    0    0  0.11010815223E+03 -0.84259357423E+01 -0.79642107060E+02  0.15641824317E+03  0.77000000000E+02 0.  0.
<mgrwt>
<rscale>  0 0.27399054E+03</rscale>
<asrwt>0</asrwt>
<pdfrwt beam="1">  1        2 0.30641366E-01 0.27399054E+03</pdfrwt>
<pdfrwt beam="2">  1       -2 0.14496939E-01 0.27399054E+03</pdfrwt>
<totfact> 0.61583097E+03</totfact>
</mgrwt>
</event>
<event>
 4    1  0.6086918E-004  0.2181762E+03  0.7818608E-02  0.1135250E+00
          2   -1    0    0  501    0  0.00000000000E+00  0.00000000000E+00  0.31331225486E+03  0.31331225487E+03  0.25500000000E-02 0.  1.
         -2   -1    0    0    0  501 -0.00000000000E+00 -0.00000000000E+00 -0.37981967725E+02  0.37981967811E+02  0.25500000000E-02 0. -1.
    5000001    1    1    2    0    0  0.62073739454E+02 -0.39715755292E+02  0.17510654226E+03  0.20499217422E+03  0.77000000000E+02 0.  0.
   -5000001    1    1    2    0    0 -0.62073739454E+02  0.39715755292E+02  0.10022374487E+03  0.14630204846E+03  0.77000000000E+02 0.  0.
<mgrwt>
<rscale>  0 0.21817622E+03</rscale>
<asrwt>0</asrwt>
<pdfrwt beam="1">  1        2 0.48201884E-01 0.21817622E+03</pdfrwt>
<pdfrwt beam="2">  1       -2 0.58433798E-02 0.21817622E+03</pdfrwt>
<totfact> 0.15679892E+04</totfact>
</mgrwt>
</event>
<event>
 4    1  0.6086918E-004  0.1823429E+03  0.7818608E-02  0.1165555E+00
          2   -1    0    0  501    0  0.00000000000E+00  0.00000000000E+00  0.25807840147E+03  0.25807840148E+03  0.25500000000E-02 0.  1.
         -2   -1    0    0    0  501 -0.00000000000E+00 -0.00000000000E+00 -0.32208173786E+02  0.32208173887E+02  0.25500000000E-02 0. -1.
    5000001    1    1    2    0    0 -0.47805103323E+02  0.76699388944E+01  0.12288699315E+03  0.15288678475E+03  0.77000000000E+02 0.  0.
   -5000001    1    1    2    0    0  0.47805103323E+02 -0.76699388944E+01  0.10298323453E+03  0.13739979062E+03  0.77000000000E+02 0.  0.
<mgrwt>
<rscale>  0 0.18234291E+03</rscale>
<asrwt>0</asrwt>
<pdfrwt beam="1">  1        2 0.39704368E-01 0.18234291E+03</pdfrwt>
<pdfrwt beam="2">  1       -2 0.49551038E-02 0.18234291E+03</pdfrwt>
<totfact> 0.24454213E+04</totfact>
</mgrwt>
</event>
<event>
 4    1  0.6086918E-004  0.2364414E+03  0.7818608E-02  0.1122186E+00
         -2   -1    0    0    0  501 -0.00000000000E+00  0.00000000000E+00  0.80763292490E+01  0.80763296515E+01  0.25500000000E-02 0. -1.
          2   -1    0    0  501    0  0.00000000000E+00 -0.00000000000E+00 -0.17305063496E+04  0.17305063496E+04  0.25500000000E-02 0.  1.
    5000001    1    1    2    0    0  0.11472307957E+02  0.71935820109E+02 -0.47626218706E+03  0.48791499965E+03  0.77000000000E+02 0.  0.
   -5000001    1    1    2    0    0 -0.11472307957E+02 -0.71935820109E+02 -0.12461678333E+04  0.12506676796E+04  0.77000000000E+02 0.  0.
<mgrwt>
<rscale>  0 0.23644145E+03</rscale>
<asrwt>0</asrwt>
<pdfrwt beam="1">  1        2 0.26623145E+00 0.23644145E+03</pdfrwt>
<pdfrwt beam="2">  1       -2 0.12425136E-02 0.23644145E+03</pdfrwt>
<totfact> 0.15917614E+04</totfact>
</mgrwt>
</event>
<event>
 4    1  0.6086918E-004  0.2233853E+03  0.7818608E-02  0.1131384E+00
          2   -1    0    0  501    0  0.00000000000E+00  0.00000000000E+00  0.28983262980E+03  0.28983262981E+03  0.25500000000E-02 0.  1.
         -2   -1    0    0    0  501 -0.00000000000E+00 -0.00000000000E+00 -0.43042923322E+02  0.43042923398E+02  0.25500000000E-02 0. -1.
    5000001    1    1    2    0    0  0.24015063104E+02 -0.41007064669E+02  0.22097282592E+03  0.23878084597E+03  0.77000000000E+02 0.  0.
   -5000001    1    1    2    0    0 -0.24015063104E+02  0.41007064669E+02  0.25816880562E+02  0.94094707240E+02  0.77000000000E+02 0.  0.
<mgrwt>
<rscale>  0 0.22338526E+03</rscale>
<asrwt>0</asrwt>
<pdfrwt beam="1">  1        2 0.44589636E-01 0.22338526E+03</pdfrwt>
<pdfrwt beam="2">  1       -2 0.66219882E-02 0.22338526E+03</pdfrwt>
<totfact> 0.14091953E+04</totfact>
</mgrwt>
</event>
<event>
 4    1  0.6086918E-004  0.4609663E+03  0.7818608E-02  0.1024501E+00
         -2   -1    0    0    0  501 -0.00000000000E+00  0.00000000000E+00  0.44750058873E+02  0.44750058946E+02  0.25500000000E-02 0. -1.
          2   -1    0    0  501    0  0.00000000000E+00 -0.00000000000E+00 -0.11870929556E+04  0.11870929556E+04  0.25500000000E-02 0.  1.
    5000001    1    1    2    0    0  0.49086161270E+02  0.17423364671E+03 -0.25019795369E+03  0.31826848871E+03  0.77000000000E+02 0.  0.
   -5000001    1    1    2    0    0 -0.49086161270E+02 -0.17423364671E+03 -0.89214494303E+03  0.91357452583E+03  0.77000000000E+02 0.  0.
<mgrwt>
<rscale>  0 0.46096629E+03</rscale>
<asrwt>0</asrwt>
<pdfrwt beam="1">  1        2 0.18262966E+00 0.46096629E+03</pdfrwt>
<pdfrwt beam="2">  1       -2 0.68846254E-02 0.46096629E+03</pdfrwt>
<totfact> 0.24312393E+03</totfact>
</mgrwt>
</event>
<event>
 4    1  0.6086918E-004  0.3881420E+03  0.7818608E-02  0.1047965E+00
          2   -1    0    0  501    0  0.00000000000E+00  0.00000000000E+00  0.13993606759E+03  0.13993606761E+03  0.25500000000E-02 0.  1.
         -2   -1    0    0    0  501 -0.00000000000E+00 -0.00000000000E+00 -0.26914824354E+03  0.26914824355E+03  0.25500000000E-02 0. -1.
    5000001    1    1    2    0    0 -0.11099180299E+03  0.45884485465E+02 -0.20327225456E+03  0.24834084604E+03  0.77000000000E+02 0.  0.
   -5000001    1    1    2    0    0  0.11099180299E+03 -0.45884485465E+02  0.74060078612E+02  0.16074346513E+03  0.77000000000E+02 0.  0.
<mgrwt>
<rscale>  0 0.38814197E+03</rscale>
<asrwt>0</asrwt>
<pdfrwt beam="1">  1        2 0.21528626E-01 0.38814197E+03</pdfrwt>
<pdfrwt beam="2">  1       -2 0.41407422E-01 0.38814197E+03</pdfrwt>
<totfact> 0.14311483E+03</totfact>
</mgrwt>
</event>
<event>
 4    1  0.6086918E-004  0.2198613E+03  0.7818608E-02  0.1133987E+00
          2   -1    0    0  501    0  0.00000000000E+00  0.00000000000E+00  0.14781390463E+04  0.14781390463E+04  0.25500000000E-02 0.  1.
         -2   -1    0    0    0  501 -0.00000000000E+00 -0.00000000000E+00 -0.81756468595E+01  0.81756472572E+01  0.25500000000E-02 0. -1.
    5000001    1    1    2    0    0 -0.69561335119E+02  0.35200783245E+02  0.79463622956E+03  0.80215560325E+03  0.77000000000E+02 0.  0.
   -5000001    1    1    2    0    0  0.69561335119E+02 -0.35200783245E+02  0.67532716991E+03  0.68415909035E+03  0.77000000000E+02 0.  0.
<mgrwt>
<rscale>  0 0.21986126E+03</rscale>
<asrwt>0</asrwt>
<pdfrwt beam="1">  1        2 0.22740588E+00 0.21986126E+03</pdfrwt>
<pdfrwt beam="2">  1       -2 0.12577925E-02 0.21986126E+03</pdfrwt>
<totfact> 0.21179491E+04</totfact>
</mgrwt>
</event>
<event>
 4    1  0.6086918E-004  0.3551738E+03  0.7818608E-02  0.1060511E+00
          2   -1    0    0  501    0  0.00000000000E+00  0.00000000000E+00  0.25809813454E+03  0.25809813455E+03  0.25500000000E-02 0.  1.
         -2   -1    0    0    0  501 -0.00000000000E+00 -0.00000000000E+00 -0.12219035395E+03  0.12219035398E+03  0.25500000000E-02 0. -1.
    5000001    1    1    2    0    0  0.12810852948E+03  0.20223112752E+02  0.16832317449E+03  0.22601429310E+03  0.77000000000E+02 0.  0.
   -5000001    1    1    2    0    0 -0.12810852948E+03 -0.20223112752E+02 -0.32415393896E+02  0.15427419543E+03  0.77000000000E+02 0.  0.
<mgrwt>
<rscale>  0 0.35517377E+03</rscale>
<asrwt>0</asrwt>
<pdfrwt beam="1">  1        2 0.39707405E-01 0.35517377E+03</pdfrwt>
<pdfrwt beam="2">  1       -2 0.18798516E-01 0.35517377E+03</pdfrwt>
<totfact> 0.30241839E+03</totfact>
</mgrwt>
</event>
<event>
 4    1  0.6086918E-004  0.1949667E+03  0.7818608E-02  0.1154056E+00
         -2   -1    0    0    0  501 -0.00000000000E+00  0.00000000000E+00  0.13267125559E+02  0.13267125804E+02  0.25500000000E-02 0. -1.
          2   -1    0    0  501    0  0.00000000000E+00 -0.00000000000E+00 -0.71628210332E+03  0.71628210333E+03  0.25500000000E-02 0.  1.
    5000001    1    1    2    0    0  0.16819632321E+02 -0.53147733951E+02 -0.43232102884E+03  0.44264890560E+03  0.77000000000E+02 0.  0.
   -5000001    1    1    2    0    0 -0.16819632321E+02  0.53147733951E+02 -0.27069394893E+03  0.28690032353E+03  0.77000000000E+02 0.  0.
<mgrwt>
<rscale>  0 0.19496671E+03</rscale>
<asrwt>0</asrwt>
<pdfrwt beam="1">  1        2 0.11019722E+00 0.19496671E+03</pdfrwt>
<pdfrwt beam="2">  1       -2 0.20410968E-02 0.19496671E+03</pdfrwt>
<totfact> 0.29688219E+04</totfact>
</mgrwt>
</event>
<event>
 4    1  0.6086918E-004  0.3831170E+03  0.7818608E-02  0.1049788E+00
         -2   -1    0    0    0  501 -0.00000000000E+00  0.00000000000E+00  0.36119967932E+02  0.36119968022E+02  0.25500000000E-02 0. -1.
          2   -1    0    0  501    0  0.00000000000E+00 -0.00000000000E+00 -0.10159103939E+04  0.10159103939E+04  0.25500000000E-02 0.  1.
    5000001    1    1    2    0    0  0.16869462647E+03 -0.27840786454E+02 -0.59739817942E+03  0.62613622412E+03  0.77000000000E+02 0.  0.
   -5000001    1    1    2    0    0 -0.16869462647E+03  0.27840786454E+02 -0.38239224653E+03  0.42589413778E+03  0.77000000000E+02 0.  0.
<mgrwt>
<rscale>  0 0.38311696E+03</rscale>
<asrwt>0</asrwt>
<pdfrwt beam="1">  1        2 0.15629389E+00 0.38311696E+03</pdfrwt>
<pdfrwt beam="2">  1       -2 0.55569189E-02 0.38311696E+03</pdfrwt>
<totfact> 0.42942398E+03</totfact>
</mgrwt>
</event>
<event>
 4    1  0.6086918E-004  0.1635921E+03  0.7818608E-02  0.1184700E+00
         -2   -1    0    0    0  501 -0.00000000000E+00  0.00000000000E+00  0.21000556969E+02  0.21000557124E+02  0.25500000000E-02 0. -1.
          2   -1    0    0  501    0  0.00000000000E+00 -0.00000000000E+00 -0.31859112756E+03  0.31859112757E+03  0.25500000000E-02 0.  1.
    5000001    1    1    2    0    0 -0.22252692922E+02 -0.15972262262E+02 -0.15577199064E+03  0.17590966025E+03  0.77000000000E+02 0.  0.
   -5000001    1    1    2    0    0  0.22252692922E+02  0.15972262262E+02 -0.14181857995E+03  0.16368202444E+03  0.77000000000E+02 0.  0.
<mgrwt>
<rscale>  0 0.16359207E+03</rscale>
<asrwt>0</asrwt>
<pdfrwt beam="1">  1        2 0.49014016E-01 0.16359207E+03</pdfrwt>
<pdfrwt beam="2">  1       -2 0.32308551E-02 0.16359207E+03</pdfrwt>
<totfact> 0.36633952E+04</totfact>
</mgrwt>
</event>
<event>
 4    1  0.6086918E-004  0.3314219E+03  0.7818608E-02  0.1070509E+00
          2   -1    0    0  501    0  0.00000000000E+00  0.00000000000E+00  0.42303623216E+03  0.42303623217E+03  0.25500000000E-02 0.  1.
         -2   -1    0    0    0  501 -0.00000000000E+00 -0.00000000000E+00 -0.64911970616E+02  0.64911970666E+02  0.25500000000E-02 0. -1.
    5000001    1    1    2    0    0  0.35837681181E+02 -0.14224540126E+03  0.17374925145E+03  0.24007477159E+03  0.77000000000E+02 0.  0.
   -5000001    1    1    2    0    0 -0.35837681181E+02  0.14224540126E+03  0.18437501009E+03  0.24787343125E+03  0.77000000000E+02 0.  0.
<mgrwt>
<rscale>  0 0.33142188E+03</rscale>
<asrwt>0</asrwt>
<pdfrwt beam="1">  1        2 0.65082498E-01 0.33142188E+03</pdfrwt>
<pdfrwt beam="2">  1       -2 0.99864570E-02 0.33142188E+03</pdfrwt>
<totfact> 0.50004665E+03</totfact>
</mgrwt>
</event>
<event>
 4    1  0.6086918E-004  0.1864677E+03  0.7818608E-02  0.1161686E+00
          2   -1    0    0  501    0  0.00000000000E+00  0.00000000000E+00  0.41616342830E+03  0.41616342831E+03  0.25500000000E-02 0.  1.
         -2   -1    0    0    0  501 -0.00000000000E+00 -0.00000000000E+00 -0.20887342829E+02  0.20887342984E+02  0.25500000000E-02 0. -1.
    5000001    1    1    2    0    0  0.39136775032E+02  0.27975686373E+02  0.14796064109E+03  0.17359630613E+03  0.77000000000E+02 0.  0.
   -5000001    1    1    2    0    0 -0.39136775032E+02 -0.27975686373E+02  0.24731544438E+03  0.26345446517E+03  0.77000000000E+02 0.  0.
<mgrwt>
<rscale>  0 0.18646767E+03</rscale>
<asrwt>0</asrwt>
<pdfrwt beam="1">  1        2 0.64025147E-01 0.18646767E+03</pdfrwt>
<pdfrwt beam="2">  1       -2 0.32134372E-02 0.18646767E+03</pdfrwt>
<totfact> 0.28064550E+04</totfact>
</mgrwt>
</event>
<event>
 4    1  0.6086918E-004  0.2127426E+03  0.7818608E-02  0.1139412E+00
          2   -1    0    0  501    0  0.00000000000E+00  0.00000000000E+00  0.19154565988E+03  0.19154565989E+03  0.25500000000E-02 0.  1.
         -2   -1    0    0    0  501 -0.00000000000E+00 -0.00000000000E+00 -0.59071335281E+02  0.59071335336E+02  0.25500000000E-02 0. -1.
    5000001    1    1    2    0    0  0.36959593723E+02  0.62841663171E+02  0.56326885002E+02  0.12006999697E+03  0.77000000000E+02 0.  0.
   -5000001    1    1    2    0    0 -0.36959593723E+02 -0.62841663171E+02  0.76147439594E+02  0.13054699826E+03  0.77000000000E+02 0.  0.
<mgrwt>
<rscale>  0 0.21274264E+03</rscale>
<asrwt>0</asrwt>
<pdfrwt beam="1">  1        2 0.29468563E-01 0.21274264E+03</pdfrwt>
<pdfrwt beam="2">  1       -2 0.90878978E-02 0.21274264E+03</pdfrwt>
<totfact> 0.13437775E+04</totfact>
</mgrwt>
</event>
<event>
 4    1  0.6086918E-004  0.2323845E+03  0.7818608E-02  0.1124973E+00
         -2   -1    0    0    0  501 -0.00000000000E+00  0.00000000000E+00  0.35000626637E+03  0.35000626638E+03  0.25500000000E-02 0.  1.
          2   -1    0    0  501    0  0.00000000000E+00 -0.00000000000E+00 -0.38572547345E+02  0.38572547429E+02  0.25500000000E-02 0. -1.
    5000001    1    1    2    0    0 -0.86800168305E+00  0.79262365966E+02  0.95697660035E+02  0.14618590295E+03  0.77000000000E+02 0.  0.
   -5000001    1    1    2    0    0  0.86800168305E+00 -0.79262365966E+02  0.21573605899E+03  0.24239291086E+03  0.77000000000E+02 0.  0.
<mgrwt>
<rscale>  0 0.23238445E+03</rscale>
<asrwt>0</asrwt>
<pdfrwt beam="1">  1        2 0.59342380E-02 0.23238445E+03</pdfrwt>
<pdfrwt beam="2">  1       -2 0.53847119E-01 0.23238445E+03</pdfrwt>
<totfact> 0.40876142E+03</totfact>
</mgrwt>
</event>
<event>
 4    1  0.6086918E-004  0.3739022E+03  0.7818608E-02  0.1053211E+00
          2   -1    0    0  501    0  0.00000000000E+00  0.00000000000E+00  0.17768876586E+04  0.17768876586E+04  0.25500000000E-02 0.  1.
         -2   -1    0    0    0  501 -0.00000000000E+00 -0.00000000000E+00 -0.19669627597E+02  0.19669627762E+02  0.25500000000E-02 0. -1.
    5000001    1    1    2    0    0 -0.11374846800E+03  0.12204600993E+03  0.10442051984E+04  0.10602487627E+04  0.77000000000E+02 0.  0.
   -5000001    1    1    2    0    0  0.11374846800E+03 -0.12204600993E+03  0.71301283257E+03  0.73630852360E+03  0.77000000000E+02 0.  0.
<mgrwt>
<rscale>  0 0.37390223E+03</rscale>
<asrwt>0</asrwt>
<pdfrwt beam="1">  1        2 0.27336744E+00 0.37390223E+03</pdfrwt>
<pdfrwt beam="2">  1       -2 0.30260954E-02 0.37390223E+03</pdfrwt>
<totfact> 0.40670450E+03</totfact>
</mgrwt>
</event>
<event>
 4    1  0.6086918E-004  0.3188293E+03  0.7818608E-02  0.1076189E+00
         -2   -1    0    0    0  501 -0.00000000000E+00  0.00000000000E+00  0.16503482653E+02  0.16503482850E+02  0.25500000000E-02 0. -1.
          2   -1    0    0  501    0  0.00000000000E+00 -0.00000000000E+00 -0.15398590358E+04  0.15398590358E+04  0.25500000000E-02 0.  1.
    5000001    1    1    2    0    0  0.71269393511E+02 -0.34046763544E+02 -0.19987079961E+03  0.22828895089E+03  0.77000000000E+02 0.  0.
   -5000001    1    1    2    0    0 -0.71269393511E+02  0.34046763544E+02 -0.13234847536E+04  0.13280735678E+04  0.77000000000E+02 0.  0.
<mgrwt>
<rscale>  0 0.31882934E+03</rscale>
<asrwt>0</asrwt>
<pdfrwt beam="1">  1        2 0.23690128E+00 0.31882934E+03</pdfrwt>
<pdfrwt beam="2">  1       -2 0.25389986E-02 0.31882934E+03</pdfrwt>
<totfact> 0.70708350E+03</totfact>
</mgrwt>
</event>
<event>
 4    1  0.6086918E-004  0.2499286E+03  0.7818608E-02  0.1113350E+00
          2   -1    0    0  501    0  0.00000000000E+00  0.00000000000E+00  0.18359947396E+03  0.18359947398E+03  0.25500000000E-02 0.  1.
         -2   -1    0    0    0  501 -0.00000000000E+00 -0.00000000000E+00 -0.85055107576E+02  0.85055107614E+02  0.25500000000E-02 0. -1.
    5000001    1    1    2    0    0  0.53889090726E+02 -0.42276796419E+02 -0.26703919321E+02  0.10645872873E+03  0.77000000000E+02 0.  0.
   -5000001    1    1    2    0    0 -0.53889090726E+02  0.42276796419E+02  0.12524828570E+03  0.16219585286E+03  0.77000000000E+02 0.  0.
<mgrwt>
<rscale>  0 0.24992857E+03</rscale>
<asrwt>0</asrwt>
<pdfrwt beam="1">  1        2 0.28246073E-01 0.24992857E+03</pdfrwt>
<pdfrwt beam="2">  1       -2 0.13085401E-01 0.24992857E+03</pdfrwt>
<totfact> 0.79332405E+03</totfact>
</mgrwt>
</event>
<event>
 4    1  0.6086918E-004  0.2232211E+03  0.7818608E-02  0.1131504E+00
         -2   -1    0    0    0  501 -0.00000000000E+00  0.00000000000E+00  0.12461156899E+02  0.12461157160E+02  0.25500000000E-02 0. -1.
          2   -1    0    0  501    0  0.00000000000E+00 -0.00000000000E+00 -0.99965985645E+03  0.99965985645E+03  0.25500000000E-02 0.  1.
    5000001    1    1    2    0    0  0.12724074771E+02  0.79786333014E+02 -0.49539842335E+03  0.50781528026E+03  0.77000000000E+02 0.  0.
   -5000001    1    1    2    0    0 -0.12724074771E+02 -0.79786333014E+02 -0.49180027620E+03  0.50430573334E+03  0.77000000000E+02 0.  0.
<mgrwt>
<rscale>  0 0.22322113E+03</rscale>
<asrwt>0</asrwt>
<pdfrwt beam="1">  1        2 0.15379376E+00 0.22322113E+03</pdfrwt>
<pdfrwt beam="2">  1       -2 0.19171019E-02 0.22322113E+03</pdfrwt>
<totfact> 0.21306890E+04</totfact>
</mgrwt>
</event>
<event>
 4    1  0.6086918E-004  0.2376902E+03  0.7818608E-02  0.1121341E+00
          2   -1    0    0  501    0  0.00000000000E+00  0.00000000000E+00  0.29456057628E+03  0.29456057629E+03  0.25500000000E-02 0.  1.
         -2   -1    0    0    0  501 -0.00000000000E+00 -0.00000000000E+00 -0.47949914026E+02  0.47949914093E+02  0.25500000000E-02 0. -1.
    5000001    1    1    2    0    0 -0.88449584263E+02 -0.51307437704E+01  0.96520605342E+02  0.15196999949E+03  0.77000000000E+02 0.  0.
   -5000001    1    1    2    0    0  0.88449584263E+02  0.51307437704E+01  0.15009005691E+03  0.19054049090E+03  0.77000000000E+02 0.  0.
<mgrwt>
<rscale>  0 0.23769017E+03</rscale>
<asrwt>0</asrwt>
<pdfrwt beam="1">  1        2 0.45317011E-01 0.23769017E+03</pdfrwt>
<pdfrwt beam="2">  1       -2 0.73769100E-02 0.23769017E+03</pdfrwt>
<totfact> 0.11764539E+04</totfact>
</mgrwt>
</event>
<event>
 4    1  0.6086918E-004  0.3957197E+03  0.7818608E-02  0.1045272E+00
         -2   -1    0    0    0  501 -0.00000000000E+00  0.00000000000E+00  0.19519556811E+02  0.19519556978E+02  0.25500000000E-02 0. -1.
          2   -1    0    0  501    0  0.00000000000E+00 -0.00000000000E+00 -0.20056053256E+04  0.20056053256E+04  0.25500000000E-02 0.  1.
    5000001    1    1    2    0    0  0.74315442830E+02  0.89480430751E+02 -0.27493962207E+03  0.30830233264E+03  0.77000000000E+02 0.  0.
   -5000001    1    1    2    0    0 -0.74315442830E+02 -0.89480430751E+02 -0.17111461468E+04  0.17168225500E+04  0.77000000000E+02 0.  0.
<mgrwt>
<rscale>  0 0.39571974E+03</rscale>
<asrwt>0</asrwt>
<pdfrwt beam="1">  1        2 0.30855450E+00 0.39571974E+03</pdfrwt>
<pdfrwt beam="2">  1       -2 0.30030103E-02 0.39571974E+03</pdfrwt>
<totfact> 0.31066528E+03</totfact>
</mgrwt>
</event>
<event>
 4    1  0.6086918E-004  0.1927479E+03  0.7818608E-02  0.1156006E+00
         -2   -1    0    0    0  501 -0.00000000000E+00  0.00000000000E+00  0.13221609351E+02  0.13221609597E+02  0.25500000000E-02 0. -1.
          2   -1    0    0  501    0  0.00000000000E+00 -0.00000000000E+00 -0.70248193760E+03  0.70248193760E+03  0.25500000000E-02 0.  1.
    5000001    1    1    2    0    0  0.17287405393E+02 -0.43044024293E+02 -0.21561197898E+03  0.23360044498E+03  0.77000000000E+02 0.  0.
   -5000001    1    1    2    0    0 -0.17287405393E+02  0.43044024293E+02 -0.47364834926E+03  0.48210310222E+03  0.77000000000E+02 0.  0.
<mgrwt>
<rscale>  0 0.19274794E+03</rscale>
<asrwt>0</asrwt>
<pdfrwt beam="1">  1        2 0.10807411E+00 0.19274794E+03</pdfrwt>
<pdfrwt beam="2">  1       -2 0.20340943E-02 0.19274794E+03</pdfrwt>
<totfact> 0.30520530E+04</totfact>
</mgrwt>
</event>
<event>
 4    1  0.6086918E-004  0.1654322E+03  0.7818608E-02  0.1182697E+00
          2   -1    0    0  501    0  0.00000000000E+00  0.00000000000E+00  0.31441133619E+04  0.31441133619E+04  0.25500000000E-02 0.  1.
         -2   -1    0    0    0  501 -0.00000000000E+00 -0.00000000000E+00 -0.21761138369E+01  0.21761153309E+01  0.25500000000E-02 0. -1.
    5000001    1    1    2    0    0  0.11103300532E+02 -0.27947016657E+02  0.16268455395E+04  0.16289443601E+04  0.77000000000E+02 0.  0.
   -5000001    1    1    2    0    0 -0.11103300532E+02  0.27947016657E+02  0.15150917086E+04  0.15173451171E+04  0.77000000000E+02 0.  0.
<mgrwt>
<rscale>  0 0.16543217E+03</rscale>
<asrwt>0</asrwt>
<pdfrwt beam="1">  1        2 0.48370890E+00 0.16543217E+03</pdfrwt>
<pdfrwt beam="2">  1       -2 0.33478745E-03 0.16543217E+03</pdfrwt>
<totfact> 0.17504989E+04</totfact>
</mgrwt>
</event>
<event>
 4    1  0.6086918E-004  0.3503661E+03  0.7818608E-02  0.1062465E+00
         -2   -1    0    0    0  501 -0.00000000000E+00  0.00000000000E+00  0.53849627433E+02  0.53849627493E+02  0.25500000000E-02 0. -1.
          2   -1    0    0  501    0  0.00000000000E+00 -0.00000000000E+00 -0.56990356849E+03  0.56990356850E+03  0.25500000000E-02 0.  1.
    5000001    1    1    2    0    0  0.69478395135E+02  0.13878612598E+03 -0.21190204133E+03  0.27371574905E+03  0.77000000000E+02 0.  0.
   -5000001    1    1    2    0    0 -0.69478395135E+02 -0.13878612598E+03 -0.30415189973E+03  0.35003744695E+03  0.77000000000E+02 0.  0.
<mgrwt>
<rscale>  0 0.35036606E+03</rscale>
<asrwt>0</asrwt>
<pdfrwt beam="1">  1        2 0.87677468E-01 0.35036606E+03</pdfrwt>
<pdfrwt beam="2">  1       -2 0.82845585E-02 0.35036606E+03</pdfrwt>
<totfact> 0.48138243E+03</totfact>
</mgrwt>
</event>
<event>
 4    1  0.6086918E-004  0.2590376E+03  0.7818608E-02  0.1107723E+00
         -2   -1    0    0    0  501 -0.00000000000E+00  0.00000000000E+00  0.12354790302E+02  0.12354790565E+02  0.25500000000E-02 0. -1.
          2   -1    0    0  501    0  0.00000000000E+00 -0.00000000000E+00 -0.13577821591E+04  0.13577821591E+04  0.25500000000E-02 0.  1.
    5000001    1    1    2    0    0 -0.61222750156E+01  0.98950239889E+02 -0.84143290822E+03  0.85074495077E+03  0.77000000000E+02 0.  0.
   -5000001    1    1    2    0    0  0.61222750156E+01 -0.98950239889E+02 -0.50399446060E+03  0.51939199892E+03  0.77000000000E+02 0.  0.
<mgrwt>
<rscale>  0 0.25903756E+03</rscale>
<asrwt>0</asrwt>
<pdfrwt beam="1">  1        2 0.20888945E+00 0.25903756E+03</pdfrwt>
<pdfrwt beam="2">  1       -2 0.19007381E-02 0.25903756E+03</pdfrwt>
<totfact> 0.13547127E+04</totfact>
</mgrwt>
</event>
<event>
 4    1  0.6086918E-004  0.2296916E+03  0.7818608E-02  0.1126857E+00
         -2   -1    0    0    0  501 -0.00000000000E+00  0.00000000000E+00  0.12610288024E+03  0.12610288027E+03  0.25500000000E-02 0. -1.
          2   -1    0    0  501    0  0.00000000000E+00 -0.00000000000E+00 -0.10459358970E+03  0.10459358973E+03  0.25500000000E-02 0.  1.
    5000001    1    1    2    0    0 -0.18905700628E+02 -0.79882603822E+02  0.33699658992E+02  0.11748754370E+03  0.77000000000E+02 0.  0.
   -5000001    1    1    2    0    0  0.18905700628E+02  0.79882603822E+02 -0.12190368448E+02  0.11320892629E+03  0.77000000000E+02 0.  0.
<mgrwt>
<rscale>  0 0.22969156E+03</rscale>
<asrwt>0</asrwt>
<pdfrwt beam="1">  1        2 0.16091321E-01 0.22969156E+03</pdfrwt>
<pdfrwt beam="2">  1       -2 0.19400443E-01 0.22969156E+03</pdfrwt>
<totfact> 0.77814508E+03</totfact>
</mgrwt>
</event>
<event>
 4    1  0.6086918E-004  0.1930519E+03  0.7818608E-02  0.1155737E+00
         -2   -1    0    0    0  501 -0.00000000000E+00  0.00000000000E+00  0.43550052052E+01  0.43550059517E+01  0.25500000000E-02 0. -1.
          2   -1    0    0  501    0  0.00000000000E+00 -0.00000000000E+00 -0.21394366606E+04  0.21394366606E+04  0.25500000000E-02 0.  1.
    5000001    1    1    2    0    0  0.18612227156E+02 -0.53676826149E+02 -0.12082874444E+04  0.12120706106E+04  0.77000000000E+02 0.  0.
   -5000001    1    1    2    0    0 -0.18612227156E+02  0.53676826149E+02 -0.92679421091E+03  0.93172105592E+03  0.77000000000E+02 0.  0.
<mgrwt>
<rscale>  0 0.19305190E+03</rscale>
<asrwt>0</asrwt>
<pdfrwt beam="1">  1        2 0.32914326E+00 0.19305190E+03</pdfrwt>
<pdfrwt beam="2">  1       -2 0.67000257E-03 0.19305190E+03</pdfrwt>
<totfact> 0.23576383E+04</totfact>
</mgrwt>
</event>
<event>
 4    1  0.6086918E-004  0.4594301E+03  0.7818608E-02  0.1024947E+00
          2   -1    0    0  501    0  0.00000000000E+00  0.00000000000E+00  0.35510074643E+03  0.35510074644E+03  0.25500000000E-02 0.  1.
         -2   -1    0    0    0  501 -0.00000000000E+00 -0.00000000000E+00 -0.14860291682E+03  0.14860291684E+03  0.25500000000E-02 0. -1.
    5000001    1    1    2    0    0  0.10584711563E+03  0.18871439029E+03  0.10853809528E+03  0.25402017856E+03  0.77000000000E+02 0.  0.
   -5000001    1    1    2    0    0 -0.10584711563E+03 -0.18871439029E+03  0.97959734330E+02  0.24968348472E+03  0.77000000000E+02 0.  0.
<mgrwt>
<rscale>  0 0.45943011E+03</rscale>
<asrwt>0</asrwt>
<pdfrwt beam="1">  1        2 0.54630884E-01 0.45943011E+03</pdfrwt>
<pdfrwt beam="2">  1       -2 0.22861987E-01 0.45943011E+03</pdfrwt>
<totfact> 0.15248539E+03</totfact>
</mgrwt>
</event>
<event>
 4    1  0.6086918E-004  0.3025659E+03  0.7818608E-02  0.1083965E+00
          2   -1    0    0  501    0  0.00000000000E+00  0.00000000000E+00  0.50403936885E+03  0.50403936886E+03  0.25500000000E-02 0.  1.
         -2   -1    0    0    0  501 -0.00000000000E+00 -0.00000000000E+00 -0.45406235127E+02  0.45406235199E+02  0.25500000000E-02 0. -1.
    5000001    1    1    2    0    0  0.66926389935E+02 -0.10649465750E+03  0.29055692737E+03  0.32584134451E+03  0.77000000000E+02 0.  0.
   -5000001    1    1    2    0    0 -0.66926389935E+02  0.10649465750E+03  0.16807620635E+03  0.22360425955E+03  0.77000000000E+02 0.  0.
<mgrwt>
<rscale>  0 0.30256589E+03</rscale>
<asrwt>0</asrwt>
<pdfrwt beam="1">  1        2 0.77544516E-01 0.30256589E+03</pdfrwt>
<pdfrwt beam="2">  1       -2 0.69855749E-02 0.30256589E+03</pdfrwt>
<totfact> 0.72037589E+03</totfact>
</mgrwt>
</event>
<event>
 4    1  0.6086918E-004  0.1595694E+03  0.7818608E-02  0.1189184E+00
         -2   -1    0    0    0  501 -0.00000000000E+00  0.00000000000E+00  0.56317235187E+01  0.56317240960E+01  0.25500000000E-02 0. -1.
          2   -1    0    0  501    0  0.00000000000E+00 -0.00000000000E+00 -0.11303106776E+04  0.11303106776E+04  0.25500000000E-02 0.  1.
    5000001    1    1    2    0    0  0.57530195770E+00 -0.11135425197E+02 -0.43654224498E+03  0.44342131243E+03  0.77000000000E+02 0.  0.
   -5000001    1    1    2    0    0 -0.57530195770E+00  0.11135425197E+02 -0.68813670907E+03  0.69252108924E+03  0.77000000000E+02 0.  0.
<mgrwt>
<rscale>  0 0.15956939E+03</rscale>
<asrwt>0</asrwt>
<pdfrwt beam="1">  1        2 0.17389377E+00 0.15956939E+03</pdfrwt>
<pdfrwt beam="2">  1       -2 0.86641995E-03 0.15956939E+03</pdfrwt>
<totfact> 0.55012033E+04</totfact>
</mgrwt>
</event>
<event>
 4    1  0.6086918E-004  0.1972914E+03  0.7818608E-02  0.1152045E+00
          2   -1    0    0  501    0  0.00000000000E+00  0.00000000000E+00  0.23237743805E+03  0.23237743806E+03  0.25500000000E-02 0.  1.
         -2   -1    0    0    0  501 -0.00000000000E+00 -0.00000000000E+00 -0.41875748030E+02  0.41875748108E+02  0.25500000000E-02 0. -1.
    5000001    1    1    2    0    0 -0.95592621095E+00  0.61572978905E+02  0.90891731877E+02  0.13409866685E+03  0.77000000000E+02 0.  0.
   -5000001    1    1    2    0    0  0.95592621095E+00 -0.61572978905E+02  0.99609958141E+02  0.14015451932E+03  0.77000000000E+02 0.  0.
<mgrwt>
<rscale>  0 0.19729145E+03</rscale>
<asrwt>0</asrwt>
<pdfrwt beam="1">  1        2 0.35750375E-01 0.19729145E+03</pdfrwt>
<pdfrwt beam="2">  1       -2 0.64424228E-02 0.19729145E+03</pdfrwt>
<totfact> 0.18480329E+04</totfact>
</mgrwt>
</event>
<event>
 4    1  0.6086918E-004  0.1759560E+03  0.7818608E-02  0.1171775E+00
         -2   -1    0    0    0  501 -0.00000000000E+00  0.00000000000E+00  0.10463429608E+02  0.10463429919E+02  0.25500000000E-02 0. -1.
          2   -1    0    0  501    0  0.00000000000E+00 -0.00000000000E+00 -0.73973190625E+03  0.73973190625E+03  0.25500000000E-02 0.  1.
    5000001    1    1    2    0    0 -0.73007473370E+01 -0.39866240180E+02 -0.30928785835E+03  0.32129518723E+03  0.77000000000E+02 0.  0.
   -5000001    1    1    2    0    0  0.73007473370E+01  0.39866240180E+02 -0.41998061829E+03  0.42890014894E+03  0.77000000000E+02 0.  0.
<mgrwt>
<rscale>  0 0.17595605E+03</rscale>
<asrwt>0</asrwt>
<pdfrwt beam="1">  1        2 0.11380487E+00 0.17595605E+03</pdfrwt>
<pdfrwt beam="2">  1       -2 0.16097590E-02 0.17595605E+03</pdfrwt>
<totfact> 0.40014489E+04</totfact>
</mgrwt>
</event>
<event>
 4    1  0.6086918E-004  0.3619835E+03  0.7818608E-02  0.1057801E+00
         -2   -1    0    0    0  501 -0.00000000000E+00  0.00000000000E+00  0.99959558768E+01  0.99959562020E+01  0.25500000000E-02 0. -1.
          2   -1    0    0  501    0  0.00000000000E+00 -0.00000000000E+00 -0.32771270625E+04  0.32771270625E+04  0.25500000000E-02 0.  1.
    5000001    1    1    2    0    0  0.14138485696E+03  0.72489384352E+02 -0.12720799443E+04  0.12842744151E+04  0.77000000000E+02 0.  0.
   -5000001    1    1    2    0    0 -0.14138485696E+03 -0.72489384352E+02 -0.19950511623E+04  0.20028486036E+04  0.77000000000E+02 0.  0.
<mgrwt>
<rscale>  0 0.36198352E+03</rscale>
<asrwt>0</asrwt>
<pdfrwt beam="1">  1        2 0.50417254E+00 0.36198352E+03</pdfrwt>
<pdfrwt beam="2">  1       -2 0.15378420E-02 0.36198352E+03</pdfrwt>
<totfact> 0.15858446E+03</totfact>
</mgrwt>
</event>
<event>
 4    1  0.6086918E-004  0.3463111E+03  0.7818608E-02  0.1064139E+00
         -2   -1    0    0    0  501 -0.00000000000E+00  0.00000000000E+00  0.20690161424E+02  0.20690161582E+02  0.25500000000E-02 0. -1.
          2   -1    0    0  501    0  0.00000000000E+00 -0.00000000000E+00 -0.14491354515E+04  0.14491354515E+04  0.25500000000E-02 0.  1.
    5000001    1    1    2    0    0 -0.42409325216E+02  0.12899580781E+03 -0.39617743951E+03  0.42582159748E+03  0.77000000000E+02 0.  0.
   -5000001    1    1    2    0    0  0.42409325216E+02 -0.12899580781E+03 -0.10322678506E+04  0.10440040156E+04  0.77000000000E+02 0.  0.
<mgrwt>
<rscale>  0 0.34631111E+03</rscale>
<asrwt>0</asrwt>
<pdfrwt beam="1">  1        2 0.22294384E+00 0.34631111E+03</pdfrwt>
<pdfrwt beam="2">  1       -2 0.31831029E-02 0.34631111E+03</pdfrwt>
<totfact> 0.56499105E+03</totfact>
</mgrwt>
</event>
<event>
 4    1  0.6086918E-004  0.2070232E+03  0.7818608E-02  0.1143945E+00
          2   -1    0    0  501    0  0.00000000000E+00  0.00000000000E+00  0.31568841077E+03  0.31568841078E+03  0.25500000000E-02 0.  1.
         -2   -1    0    0    0  501 -0.00000000000E+00 -0.00000000000E+00 -0.33940588338E+02  0.33940588434E+02  0.25500000000E-02 0. -1.
    5000001    1    1    2    0    0  0.41327358329E+02 -0.52669655167E+02  0.17030081342E+03  0.19852810927E+03  0.77000000000E+02 0.  0.
   -5000001    1    1    2    0    0 -0.41327358329E+02  0.52669655167E+02  0.11144700901E+03  0.15110088994E+03  0.77000000000E+02 0.  0.
<mgrwt>
<rscale>  0 0.20702319E+03</rscale>
<asrwt>0</asrwt>
<pdfrwt beam="1">  1        2 0.48567449E-01 0.20702319E+03</pdfrwt>
<pdfrwt beam="2">  1       -2 0.52216289E-02 0.20702319E+03</pdfrwt>
<totfact> 0.18392257E+04</totfact>
</mgrwt>
</event>
<event>
 4    1  0.6086918E-004  0.1770082E+03  0.7818608E-02  0.1170730E+00
          2   -1    0    0  501    0  0.00000000000E+00  0.00000000000E+00  0.67812720490E+03  0.67812720490E+03  0.25500000000E-02 0.  1.
         -2   -1    0    0    0  501 -0.00000000000E+00 -0.00000000000E+00 -0.11550889326E+02  0.11550889608E+02  0.25500000000E-02 0. -1.
    5000001    1    1    2    0    0 -0.35816230445E+02  0.19346308759E+02  0.39450983314E+03  0.40401001284E+03  0.77000000000E+02 0.  0.
   -5000001    1    1    2    0    0  0.35816230445E+02 -0.19346308759E+02  0.27206648243E+03  0.28566808167E+03  0.77000000000E+02 0.  0.
<mgrwt>
<rscale>  0 0.17700816E+03</rscale>
<asrwt>0</asrwt>
<pdfrwt beam="1">  1        2 0.10432729E+00 0.17700816E+03</pdfrwt>
<pdfrwt beam="2">  1       -2 0.17770595E-02 0.17700816E+03</pdfrwt>
<totfact> 0.38498984E+04</totfact>
</mgrwt>
</event>
<event>
 4    1  0.6086918E-004  0.2165804E+03  0.7818608E-02  0.1136458E+00
         -2   -1    0    0    0  501 -0.00000000000E+00  0.00000000000E+00  0.97807667010E+01  0.97807670334E+01  0.25500000000E-02 0. -1.
          2   -1    0    0  501    0  0.00000000000E+00 -0.00000000000E+00 -0.11989618910E+04  0.11989618910E+04  0.25500000000E-02 0.  1.
    5000001    1    1    2    0    0 -0.51453693063E+02  0.56044416138E+02 -0.61161741234E+03  0.62112262734E+03  0.77000000000E+02 0.  0.
   -5000001    1    1    2    0    0  0.51453693063E+02 -0.56044416138E+02 -0.57756371200E+03  0.58762003074E+03  0.77000000000E+02 0.  0.
<mgrwt>
<rscale>  0 0.21658039E+03</rscale>
<asrwt>0</asrwt>
<pdfrwt beam="1">  1        2 0.18445556E+00 0.21658039E+03</pdfrwt>
<pdfrwt beam="2">  1       -2 0.15047343E-02 0.21658039E+03</pdfrwt>
<totfact> 0.23168882E+04</totfact>
</mgrwt>
</event>
<event>
 4    1  0.6086918E-004  0.2829556E+03  0.7818608E-02  0.1094086E+00
          2   -1    0    0  501    0  0.00000000000E+00  0.00000000000E+00  0.43635766256E+03  0.43635766257E+03  0.25500000000E-02 0.  1.
         -2   -1    0    0    0  501 -0.00000000000E+00 -0.00000000000E+00 -0.45870565921E+02  0.45870565992E+02  0.25500000000E-02 0. -1.
    5000001    1    1    2    0    0  0.30481568657E+02  0.55428951666E+02  0.24091331232E+02  0.10252261678E+03  0.77000000000E+02 0.  0.
   -5000001    1    1    2    0    0 -0.30481568657E+02 -0.55428951666E+02  0.36639576541E+03  0.37970561178E+03  0.77000000000E+02 0.  0.
<mgrwt>
<rscale>  0 0.28295564E+03</rscale>
<asrwt>0</asrwt>
<pdfrwt beam="1">  1        2 0.67131950E-01 0.28295564E+03</pdfrwt>
<pdfrwt beam="2">  1       -2 0.70570100E-02 0.28295564E+03</pdfrwt>
<totfact> 0.83043342E+03</totfact>
</mgrwt>
</event>
<event>
 4    1  0.6086918E-004  0.2548616E+03  0.7818608E-02  0.1110270E+00
         -2   -1    0    0    0  501 -0.00000000000E+00  0.00000000000E+00  0.20110398447E+02  0.20110398609E+02  0.25500000000E-02 0. -1.
          2   -1    0    0  501    0  0.00000000000E+00 -0.00000000000E+00 -0.80747326042E+03  0.80747326043E+03  0.25500000000E-02 0.  1.
    5000001    1    1    2    0    0  0.82865625606E+02  0.28615450359E+02 -0.22734253578E+03  0.25553705109E+03  0.77000000000E+02 0.  0.
   -5000001    1    1    2    0    0 -0.82865625606E+02 -0.28615450359E+02 -0.56002032620E+03  0.57204660795E+03  0.77000000000E+02 0.  0.
<mgrwt>
<rscale>  0 0.25486160E+03</rscale>
<asrwt>0</asrwt>
<pdfrwt beam="1">  1        2 0.12422663E+00 0.25486160E+03</pdfrwt>
<pdfrwt beam="2">  1       -2 0.30939081E-02 0.25486160E+03</pdfrwt>
<totfact> 0.14070679E+04</totfact>
</mgrwt>
</event>
<event>
 4    1  0.6086918E-004  0.3890939E+03  0.7818608E-02  0.1047623E+00
         -2   -1    0    0    0  501 -0.00000000000E+00  0.00000000000E+00  0.35566292581E+02  0.35566292672E+02  0.25500000000E-02 0. -1.
          2   -1    0    0  501    0  0.00000000000E+00 -0.00000000000E+00 -0.10641679078E+04  0.10641679078E+04  0.25500000000E-02 0.  1.
    5000001    1    1    2    0    0 -0.17362985900E+03 -0.40765060783E+02 -0.48460491027E+03  0.52209198153E+03  0.77000000000E+02 0.  0.
   -5000001    1    1    2    0    0  0.17362985900E+03  0.40765060783E+02 -0.54399670497E+03  0.57764221897E+03  0.77000000000E+02 0.  0.
<mgrwt>
<rscale>  0 0.38909386E+03</rscale>
<asrwt>0</asrwt>
<pdfrwt beam="1">  1        2 0.16371812E+00 0.38909386E+03</pdfrwt>
<pdfrwt beam="2">  1       -2 0.54717381E-02 0.38909386E+03</pdfrwt>
<totfact> 0.41097535E+03</totfact>
</mgrwt>
</event>
<event>
 4    1  0.6086918E-004  0.2058471E+03  0.7818608E-02  0.1144898E+00
         -2   -1    0    0    0  501 -0.00000000000E+00  0.00000000000E+00  0.68277303731E+02  0.68277303778E+02  0.25500000000E-02 0. -1.
          2   -1    0    0  501    0  0.00000000000E+00 -0.00000000000E+00 -0.15515045881E+03  0.15515045883E+03  0.25500000000E-02 0.  1.
    5000001    1    1    2    0    0  0.80781648440E+01  0.40872757443E+02 -0.10217317840E+03  0.13455183920E+03  0.77000000000E+02 0.  0.
   -5000001    1    1    2    0    0 -0.80781648440E+01 -0.40872757443E+02  0.15300023319E+02  0.88875923409E+02  0.77000000000E+02 0.  0.
<mgrwt>
<rscale>  0 0.20584708E+03</rscale>
<asrwt>0</asrwt>
<pdfrwt beam="1">  1        2 0.23869301E-01 0.20584708E+03</pdfrwt>
<pdfrwt beam="2">  1       -2 0.10504201E-01 0.20584708E+03</pdfrwt>
<totfact> 0.13464784E+04</totfact>
</mgrwt>
</event>
<event>
 4    1  0.6086918E-004  0.1755850E+03  0.7818608E-02  0.1172146E+00
          2   -1    0    0  501    0  0.00000000000E+00  0.00000000000E+00  0.27543352777E+03  0.27543352779E+03  0.25500000000E-02 0.  1.
         -2   -1    0    0    0  501 -0.00000000000E+00 -0.00000000000E+00 -0.27983248954E+02  0.27983249071E+02  0.25500000000E-02 0. -1.
    5000001    1    1    2    0    0  0.40020169063E+02  0.12544774709E+02  0.13136369060E+03  0.15793797679E+03  0.77000000000E+02 0.  0.
   -5000001    1    1    2    0    0 -0.40020169063E+02 -0.12544774709E+02  0.11608658822E+03  0.14547880007E+03  0.77000000000E+02 0.  0.
<mgrwt>
<rscale>  0 0.17558502E+03</rscale>
<asrwt>0</asrwt>
<pdfrwt beam="1">  1        2 0.42374388E-01 0.17558502E+03</pdfrwt>
<pdfrwt beam="2">  1       -2 0.43051154E-02 0.17558502E+03</pdfrwt>
<totfact> 0.28090171E+04</totfact>
</mgrwt>
</event>
<event>
 4    1  0.6086918E-004  0.3995907E+03  0.7818608E-02  0.1043921E+00
          2   -1    0    0  501    0  0.00000000000E+00  0.00000000000E+00  0.30432550295E+03  0.30432550296E+03  0.25500000000E-02 0.  1.
         -2   -1    0    0    0  501 -0.00000000000E+00 -0.00000000000E+00 -0.13116936863E+03  0.13116936866E+03  0.25500000000E-02 0. -1.
    5000001    1    1    2    0    0 -0.15918801990E+03 -0.53250948870E+02  0.16966953356E+03  0.25078524648E+03  0.77000000000E+02 0.  0.
   -5000001    1    1    2    0    0  0.15918801990E+03  0.53250948870E+02  0.34866007629E+01  0.18470962514E+03  0.77000000000E+02 0.  0.
<mgrwt>
<rscale>  0 0.39959071E+03</rscale>
<asrwt>0</asrwt>
<pdfrwt beam="1">  1        2 0.46819308E-01 0.39959071E+03</pdfrwt>
<pdfrwt beam="2">  1       -2 0.20179903E-01 0.39959071E+03</pdfrwt>
<totfact> 0.22421701E+03</totfact>
</mgrwt>
</event>
<event>
 4    1  0.6086918E-004  0.2765186E+03  0.7818608E-02  0.1097606E+00
         -2   -1    0    0    0  501 -0.00000000000E+00  0.00000000000E+00  0.95704299848E+01  0.95704303245E+01  0.25500000000E-02 0. -1.
          2   -1    0    0  501    0  0.00000000000E+00 -0.00000000000E+00 -0.19973644926E+04  0.19973644926E+04  0.25500000000E-02 0.  1.
    5000001    1    1    2    0    0  0.86894527092E+02 -0.68304954099E+02 -0.12199899357E+04  0.12274040365E+04  0.77000000000E+02 0.  0.
   -5000001    1    1    2    0    0 -0.86894527092E+02  0.68304954099E+02 -0.76780412691E+03  0.77953088643E+03  0.77000000000E+02 0.  0.
<mgrwt>
<rscale>  0 0.27651862E+03</rscale>
<asrwt>0</asrwt>
<pdfrwt beam="1">  1        2 0.30728651E+00 0.27651862E+03</pdfrwt>
<pdfrwt beam="2">  1       -2 0.14723755E-02 0.27651862E+03</pdfrwt>
<totfact> 0.90365300E+03</totfact>
</mgrwt>
</event>
<event>
 4    1  0.6086918E-004  0.2715441E+03  0.7818608E-02  0.1100399E+00
          2   -1    0    0  501    0  0.00000000000E+00  0.00000000000E+00  0.38351040339E+03  0.38351040340E+03  0.25500000000E-02 0.  1.
         -2   -1    0    0    0  501 -0.00000000000E+00 -0.00000000000E+00 -0.48066618722E+02  0.48066618790E+02  0.25500000000E-02 0. -1.
    5000001    1    1    2    0    0 -0.49606735134E+02  0.96583309833E+02  0.12519737237E+03  0.18273627434E+03  0.77000000000E+02 0.  0.
   -5000001    1    1    2    0    0  0.49606735134E+02 -0.96583309833E+02  0.21024641229E+03  0.24884074785E+03  0.77000000000E+02 0.  0.
<mgrwt>
<rscale>  0 0.27154409E+03</rscale>
<asrwt>0</asrwt>
<pdfrwt beam="1">  1        2 0.59001601E-01 0.27154409E+03</pdfrwt>
<pdfrwt beam="2">  1       -2 0.73948644E-02 0.27154409E+03</pdfrwt>
<totfact> 0.88758788E+03</totfact>
</mgrwt>
</event>
<event>
 4    1  0.6086918E-004  0.3860705E+03  0.7818608E-02  0.1048713E+00
         -2   -1    0    0    0  501 -0.00000000000E+00  0.00000000000E+00  0.33147472493E+02  0.33147472591E+02  0.25500000000E-02 0. -1.
          2   -1    0    0  501    0  0.00000000000E+00 -0.00000000000E+00 -0.11241464055E+04  0.11241464055E+04  0.25500000000E-02 0.  1.
    5000001    1    1    2    0    0  0.57310127727E+02 -0.16107850878E+03 -0.68296182174E+03  0.70823483865E+03  0.77000000000E+02 0.  0.
   -5000001    1    1    2    0    0 -0.57310127727E+02  0.16107850878E+03 -0.40803711129E+03  0.44905903946E+03  0.77000000000E+02 0.  0.
<mgrwt>
<rscale>  0 0.38607052E+03</rscale>
<asrwt>0</asrwt>
<pdfrwt beam="1">  1        2 0.17294557E+00 0.38607052E+03</pdfrwt>
<pdfrwt beam="2">  1       -2 0.50996120E-02 0.38607052E+03</pdfrwt>
<totfact> 0.42170634E+03</totfact>
</mgrwt>
</event>
<event>
 4    1  0.6086918E-004  0.3804773E+03  0.7818608E-02  0.1050757E+00
          2   -1    0    0  501    0  0.00000000000E+00  0.00000000000E+00  0.28711482424E+03  0.28711482425E+03  0.25500000000E-02 0.  1.
         -2   -1    0    0    0  501 -0.00000000000E+00 -0.00000000000E+00 -0.12604974311E+03  0.12604974313E+03  0.25500000000E-02 0. -1.
    5000001    1    1    2    0    0  0.16085899012E+03 -0.32816590931E+02  0.18064739615E+02  0.18223028881E+03  0.77000000000E+02 0.  0.
   -5000001    1    1    2    0    0 -0.16085899012E+03  0.32816590931E+02  0.14300034152E+03  0.23093427857E+03  0.77000000000E+02 0.  0.
<mgrwt>
<rscale>  0 0.38047733E+03</rscale>
<asrwt>0</asrwt>
<pdfrwt beam="1">  1        2 0.44171511E-01 0.38047733E+03</pdfrwt>
<pdfrwt beam="2">  1       -2 0.19392268E-01 0.38047733E+03</pdfrwt>
<totfact> 0.25566730E+03</totfact>
</mgrwt>
</event>
<event>
 4    1  0.6086918E-004  0.3828222E+03  0.7818608E-02  0.1049896E+00
         -2   -1    0    0    0  501 -0.00000000000E+00  0.00000000000E+00  0.14382949680E+03  0.14382949682E+03  0.25500000000E-02 0. -1.
          2   -1    0    0  501    0  0.00000000000E+00 -0.00000000000E+00 -0.25473365737E+03  0.25473365739E+03  0.25500000000E-02 0.  1.
    5000001    1    1    2    0    0  0.69071942901E+02  0.34264381916E+02  0.10838509160E+03  0.15369225499E+03  0.77000000000E+02 0.  0.
   -5000001    1    1    2    0    0 -0.69071942901E+02 -0.34264381916E+02 -0.21928925217E+03  0.24487089922E+03  0.77000000000E+02 0.  0.
<mgrwt>
<rscale>  0 0.38282222E+03</rscale>
<asrwt>0</asrwt>
<pdfrwt beam="1">  1        2 0.39189793E-01 0.38282222E+03</pdfrwt>
<pdfrwt beam="2">  1       -2 0.22127615E-01 0.38282222E+03</pdfrwt>
<totfact> 0.23176356E+03</totfact>
</mgrwt>
</event>
<event>
 4    1  0.6086918E-004  0.1808513E+03  0.7818608E-02  0.1166982E+00
          2   -1    0    0  501    0  0.00000000000E+00  0.00000000000E+00  0.78368040336E+03  0.78368040337E+03  0.25500000000E-02 0.  1.
         -2   -1    0    0    0  501 -0.00000000000E+00 -0.00000000000E+00 -0.10433845489E+02  0.10433845800E+02  0.25500000000E-02 0. -1.
    5000001    1    1    2    0    0  0.27290998664E+02  0.38641671721E+02  0.40038531193E+03  0.41045751962E+03  0.77000000000E+02 0.  0.
   -5000001    1    1    2    0    0 -0.27290998664E+02 -0.38641671721E+02  0.37286124595E+03  0.38365672955E+03  0.77000000000E+02 0.  0.
<mgrwt>
<rscale>  0 0.18085132E+03</rscale>
<asrwt>0</asrwt>
<pdfrwt beam="1">  1        2 0.12056625E+00 0.18085132E+03</pdfrwt>
<pdfrwt beam="2">  1       -2 0.16052066E-02 0.18085132E+03</pdfrwt>
<totfact> 0.37505884E+04</totfact>
</mgrwt>
</event>
<event>
 4    1  0.6086918E-004  0.6596180E+03  0.7818608E-02  0.9788897E-01
         -2   -1    0    0    0  501 -0.00000000000E+00  0.00000000000E+00  0.82040974293E+02  0.82040974332E+02  0.25500000000E-02 0. -1.
          2   -1    0    0  501    0  0.00000000000E+00 -0.00000000000E+00 -0.13258493367E+04  0.13258493367E+04  0.25500000000E-02 0.  1.
    5000001    1    1    2    0    0  0.19804353439E+03  0.16389368181E+03 -0.10311454173E+04  0.10654915542E+04  0.77000000000E+02 0.  0.
   -5000001    1    1    2    0    0 -0.19804353439E+03 -0.16389368181E+03 -0.21266294508E+03  0.34239875680E+03  0.77000000000E+02 0.  0.
<mgrwt>
<rscale>  0 0.65961798E+03</rscale>
<asrwt>0</asrwt>
<pdfrwt beam="1">  1        2 0.20397681E+00 0.65961798E+03</pdfrwt>
<pdfrwt beam="2">  1       -2 0.12621689E-01 0.65961798E+03</pdfrwt>
<totfact> 0.75707682E+02</totfact>
</mgrwt>
</event>
<event>
 4    1  0.6086918E-004  0.2386565E+03  0.7818608E-02  0.1120691E+00
         -2   -1    0    0    0  501 -0.00000000000E+00  0.00000000000E+00  0.58610296454E+02  0.58610296509E+02  0.25500000000E-02 0. -1.
          2   -1    0    0  501    0  0.00000000000E+00 -0.00000000000E+00 -0.24294766554E+03  0.24294766556E+03  0.25500000000E-02 0.  1.
    5000001    1    1    2    0    0  0.23148055476E+02 -0.79721274643E+02 -0.13976535000E+03  0.17987403137E+03  0.77000000000E+02 0.  0.
   -5000001    1    1    2    0    0 -0.23148055476E+02  0.79721274643E+02 -0.44572019095E+02  0.12168393069E+03  0.77000000000E+02 0.  0.
<mgrwt>
<rscale>  0 0.23865653E+03</rscale>
<asrwt>0</asrwt>
<pdfrwt beam="1">  1        2 0.37376563E-01 0.23865653E+03</pdfrwt>
<pdfrwt beam="2">  1       -2 0.90169688E-02 0.23865653E+03</pdfrwt>
<totfact> 0.10579562E+04</totfact>
</mgrwt>
</event>
<event>
 4    1  0.6086918E-004  0.3278260E+03  0.7818608E-02  0.1072103E+00
         -2   -1    0    0    0  501 -0.00000000000E+00  0.00000000000E+00  0.10023796566E+03  0.10023796569E+03  0.25500000000E-02 0. -1.
          2   -1    0    0  501    0  0.00000000000E+00 -0.00000000000E+00 -0.26803680890E+03  0.26803680891E+03  0.25500000000E-02 0.  1.
    5000001    1    1    2    0    0  0.10775086430E+02 -0.14375587193E+03 -0.97957958199E+02  0.19054294733E+03  0.77000000000E+02 0.  0.
   -5000001    1    1    2    0    0 -0.10775086430E+02  0.14375587193E+03 -0.69840885040E+02  0.17773182727E+03  0.77000000000E+02 0.  0.
<mgrwt>
<rscale>  0 0.32782596E+03</rscale>
<asrwt>0</asrwt>
<pdfrwt beam="1">  1        2 0.41236432E-01 0.32782596E+03</pdfrwt>
<pdfrwt beam="2">  1       -2 0.15421226E-01 0.32782596E+03</pdfrwt>
<totfact> 0.40454629E+03</totfact>
</mgrwt>
</event>
<event>
 4    1  0.6086918E-004  0.2440767E+03  0.7818608E-02  0.1117106E+00
         -2   -1    0    0    0  501 -0.00000000000E+00  0.00000000000E+00  0.19588975137E+02  0.19588975303E+02  0.25500000000E-02 0. -1.
          2   -1    0    0  501    0  0.00000000000E+00 -0.00000000000E+00 -0.76029290977E+03  0.76029290977E+03  0.25500000000E-02 0.  1.
    5000001    1    1    2    0    0 -0.67961467602E+02 -0.20595238306E+02 -0.17026215983E+03  0.19990279635E+03  0.77000000000E+02 0.  0.
   -5000001    1    1    2    0    0  0.67961467602E+02  0.20595238306E+02 -0.57044177480E+03  0.57997908872E+03  0.77000000000E+02 0.  0.
<mgrwt>
<rscale>  0 0.24407670E+03</rscale>
<asrwt>0</asrwt>
<pdfrwt beam="1">  1        2 0.11696812E+00 0.24407670E+03</pdfrwt>
<pdfrwt beam="2">  1       -2 0.30136891E-02 0.24407670E+03</pdfrwt>
<totfact> 0.15752788E+04</totfact>
</mgrwt>
</event>
<event>
 4    1  0.6086918E-004  0.1950397E+03  0.7818608E-02  0.1153993E+00
         -2   -1    0    0    0  501 -0.00000000000E+00  0.00000000000E+00  0.65261876003E+02  0.65261876053E+02  0.25500000000E-02 0. -1.
          2   -1    0    0  501    0  0.00000000000E+00 -0.00000000000E+00 -0.14572241587E+03  0.14572241589E+03  0.25500000000E-02 0.  1.
    5000001    1    1    2    0    0  0.96775659532E+01 -0.58110712515E+02 -0.28853459060E+02  0.10115350855E+03  0.77000000000E+02 0.  0.
   -5000001    1    1    2    0    0 -0.96775659532E+01  0.58110712515E+02 -0.51607080803E+02  0.10983078339E+03  0.77000000000E+02 0.  0.
<mgrwt>
<rscale>  0 0.19503967E+03</rscale>
<asrwt>0</asrwt>
<pdfrwt beam="1">  1        2 0.22418833E-01 0.19503967E+03</pdfrwt>
<pdfrwt beam="2">  1       -2 0.10040289E-01 0.19503967E+03</pdfrwt>
<totfact> 0.15459616E+04</totfact>
</mgrwt>
</event>
<event>
 4    1  0.6086918E-004  0.2090938E+03  0.7818608E-02  0.1142286E+00
          2   -1    0    0  501    0  0.00000000000E+00  0.00000000000E+00  0.19452350978E+04  0.19452350978E+04  0.25500000000E-02 0.  1.
         -2   -1    0    0    0  501 -0.00000000000E+00 -0.00000000000E+00 -0.56188863514E+01  0.56188869301E+01  0.25500000000E-02 0. -1.
    5000001    1    1    2    0    0 -0.15140776407E+02  0.65269233226E+02  0.75874705557E+03  0.76558174629E+03  0.77000000000E+02 0.  0.
   -5000001    1    1    2    0    0  0.15140776407E+02 -0.65269233226E+02  0.11808691559E+04  0.11852722385E+04  0.77000000000E+02 0.  0.
<mgrwt>
<rscale>  0 0.20909381E+03</rscale>
<asrwt>0</asrwt>
<pdfrwt beam="1">  1        2 0.29926705E+00 0.20909381E+03</pdfrwt>
<pdfrwt beam="2">  1       -2 0.86444377E-03 0.20909381E+03</pdfrwt>
<totfact> 0.20704561E+04</totfact>
</mgrwt>
</event>
<event>
 4    1  0.6086918E-004  0.1700203E+03  0.7818608E-02  0.1177827E+00
         -2   -1    0    0    0  501 -0.00000000000E+00  0.00000000000E+00  0.52282028437E+02  0.52282028500E+02  0.25500000000E-02 0. -1.
          2   -1    0    0  501    0  0.00000000000E+00 -0.00000000000E+00 -0.13822575895E+03  0.13822575897E+03  0.25500000000E-02 0.  1.
    5000001    1    1    2    0    0 -0.26043025961E+02 -0.96672002100E+01 -0.17272824141E+02  0.83660291745E+02  0.77000000000E+02 0.  0.
   -5000001    1    1    2    0    0  0.26043025961E+02  0.96672002100E+01 -0.68670906368E+02  0.10684749572E+03  0.77000000000E+02 0.  0.
<mgrwt>
<rscale>  0 0.17002027E+03</rscale>
<asrwt>0</asrwt>
<pdfrwt beam="1">  1        2 0.21265501E-01 0.17002027E+03</pdfrwt>
<pdfrwt beam="2">  1       -2 0.80433891E-02 0.17002027E+03</pdfrwt>
<totfact> 0.22960495E+04</totfact>
</mgrwt>
</event>
<event>
 4    1  0.6086918E-004  0.4363663E+03  0.7818608E-02  0.1031868E+00
          2   -1    0    0  501    0  0.00000000000E+00  0.00000000000E+00  0.48865763902E+03  0.48865763903E+03  0.25500000000E-02 0.  1.
         -2   -1    0    0    0  501 -0.00000000000E+00 -0.00000000000E+00 -0.97417648852E+02  0.97417648885E+02  0.25500000000E-02 0. -1.
    5000001    1    1    2    0    0 -0.19380449987E+03 -0.55190418356E+02  0.23952687317E+03  0.32234808735E+03  0.77000000000E+02 0.  0.
   -5000001    1    1    2    0    0  0.19380449987E+03  0.55190418356E+02  0.15171311700E+03  0.26372720056E+03  0.77000000000E+02 0.  0.
<mgrwt>
<rscale>  0 0.43636626E+03</rscale>
<asrwt>0</asrwt>
<pdfrwt beam="1">  1        2 0.75178098E-01 0.43636626E+03</pdfrwt>
<pdfrwt beam="2">  1       -2 0.14987331E-01 0.43636626E+03</pdfrwt>
<totfact> 0.22037433E+03</totfact>
</mgrwt>
</event>
<event>
 4    1  0.6086918E-004  0.1770245E+03  0.7818608E-02  0.1170714E+00
          2   -1    0    0  501    0  0.00000000000E+00  0.00000000000E+00  0.93495425898E+02  0.93495425933E+02  0.25500000000E-02 0.  1.
         -2   -1    0    0    0  501 -0.00000000000E+00 -0.00000000000E+00 -0.83794661285E+02  0.83794661324E+02  0.25500000000E-02 0. -1.
    5000001    1    1    2    0    0  0.16281813380E+01  0.38667711050E+02  0.25069151246E+02  0.89751352059E+02  0.77000000000E+02 0.  0.
   -5000001    1    1    2    0    0 -0.16281813380E+01 -0.38667711050E+02 -0.15368386632E+02  0.87538735198E+02  0.77000000000E+02 0.  0.
<mgrwt>
<rscale>  0 0.17702449E+03</rscale>
<asrwt>0</asrwt>
<pdfrwt beam="1">  1        2 0.14383912E-01 0.17702449E+03</pdfrwt>
<pdfrwt beam="2">  1       -2 0.12891486E-01 0.17702449E+03</pdfrwt>
<totfact> 0.17164721E+04</totfact>
</mgrwt>
</event>
<event>
 4    1  0.6086918E-004  0.2884285E+03  0.7818608E-02  0.1091172E+00
         -2   -1    0    0    0  501 -0.00000000000E+00  0.00000000000E+00  0.19159611654E+02  0.19159611823E+02  0.25500000000E-02 0. -1.
          2   -1    0    0  501    0  0.00000000000E+00 -0.00000000000E+00 -0.10854996511E+04  0.10854996511E+04  0.25500000000E-02 0.  1.
    5000001    1    1    2    0    0 -0.60973317298E+02  0.96224560738E+02 -0.69975367554E+03  0.71313471234E+03  0.77000000000E+02 0.  0.
   -5000001    1    1    2    0    0  0.60973317298E+02 -0.96224560738E+02 -0.36658636393E+03  0.39152455061E+03  0.77000000000E+02 0.  0.
<mgrwt>
<rscale>  0 0.28842851E+03</rscale>
<asrwt>0</asrwt>
<pdfrwt beam="1">  1        2 0.16699990E+00 0.28842851E+03</pdfrwt>
<pdfrwt beam="2">  1       -2 0.29476334E-02 0.28842851E+03</pdfrwt>
<totfact> 0.10131288E+04</totfact>
</mgrwt>
</event>
<event>
 4    1  0.6086918E-004  0.1984671E+03  0.7818608E-02  0.1151039E+00
         -2   -1    0    0    0  501 -0.00000000000E+00  0.00000000000E+00  0.50818544154E+01  0.50818550552E+01  0.25500000000E-02 0. -1.
          2   -1    0    0  501    0  0.00000000000E+00 -0.00000000000E+00 -0.19377376726E+04  0.19377376726E+04  0.25500000000E-02 0.  1.
    5000001    1    1    2    0    0 -0.57345339004E+02 -0.23529671202E+02 -0.10517618095E+04  0.10563967234E+04  0.77000000000E+02 0.  0.
   -5000001    1    1    2    0    0  0.57345339004E+02  0.23529671202E+02 -0.88089400865E+03  0.88642280420E+03  0.77000000000E+02 0.  0.
<mgrwt>
<rscale>  0 0.19846714E+03</rscale>
<asrwt>0</asrwt>
<pdfrwt beam="1">  1        2 0.29811290E+00 0.19846714E+03</pdfrwt>
<pdfrwt beam="2">  1       -2 0.78182535E-03 0.19846714E+03</pdfrwt>
<totfact> 0.24088082E+04</totfact>
</mgrwt>
</event>
<event>
 4    1  0.6086918E-004  0.2223531E+03  0.7818608E-02  0.1132141E+00
         -2   -1    0    0    0  501 -0.00000000000E+00  0.00000000000E+00  0.10093288524E+02  0.10093288846E+02  0.25500000000E-02 0. -1.
          2   -1    0    0  501    0  0.00000000000E+00 -0.00000000000E+00 -0.12245978729E+04  0.12245978729E+04  0.25500000000E-02 0.  1.
    5000001    1    1    2    0    0 -0.38783596897E+02  0.43348927907E+02 -0.30069105818E+03  0.31579646832E+03  0.77000000000E+02 0.  0.
   -5000001    1    1    2    0    0  0.38783596897E+02 -0.43348927907E+02 -0.91381352623E+03  0.91889469346E+03  0.77000000000E+02 0.  0.
<mgrwt>
<rscale>  0 0.22235305E+03</rscale>
<asrwt>0</asrwt>
<pdfrwt beam="1">  1        2 0.18839955E+00 0.22235305E+03</pdfrwt>
<pdfrwt beam="2">  1       -2 0.15528146E-02 0.22235305E+03</pdfrwt>
<totfact> 0.21438565E+04</totfact>
</mgrwt>
</event>
<event>
 4    1  0.6086918E-004  0.7231859E+03  0.7818608E-02  0.9678383E-01
          2   -1    0    0  501    0  0.00000000000E+00  0.00000000000E+00  0.83017018647E+03  0.83017018647E+03  0.25500000000E-02 0.  1.
         -2   -1    0    0    0  501 -0.00000000000E+00 -0.00000000000E+00 -0.15749717241E+03  0.15749717243E+03  0.25500000000E-02 0. -1.
    5000001    1    1    2    0    0 -0.56926052278E+01  0.34525097135E+03  0.23422854846E+03  0.42429076338E+03  0.77000000000E+02 0.  0.
   -5000001    1    1    2    0    0  0.56926052278E+01 -0.34525097135E+03  0.43844446559E+03  0.56337659552E+03  0.77000000000E+02 0.  0.
<mgrwt>
<rscale>  0 0.72318589E+03</rscale>
<asrwt>0</asrwt>
<pdfrwt beam="1">  1        2 0.12771849E+00 0.72318589E+03</pdfrwt>
<pdfrwt beam="2">  1       -2 0.24230334E-01 0.72318589E+03</pdfrwt>
<totfact> 0.49998408E+02</totfact>
</mgrwt>
</event>
<event>
 4    1  0.6086918E-004  0.3047241E+03  0.7818608E-02  0.1082903E+00
         -2   -1    0    0    0  501 -0.00000000000E+00  0.00000000000E+00  0.44345727804E+02  0.44345727877E+02  0.25500000000E-02 0. -1.
          2   -1    0    0  501    0  0.00000000000E+00 -0.00000000000E+00 -0.52348195303E+03  0.52348195304E+03  0.25500000000E-02 0.  1.
    5000001    1    1    2    0    0  0.57292384726E+02  0.94822953462E+02 -0.10765486552E+03  0.17260469264E+03  0.77000000000E+02 0.  0.
   -5000001    1    1    2    0    0 -0.57292384726E+02 -0.94822953462E+02 -0.37148135971E+03  0.39522298828E+03  0.77000000000E+02 0.  0.
<mgrwt>
<rscale>  0 0.30472406E+03</rscale>
<asrwt>0</asrwt>
<pdfrwt beam="1">  1        2 0.80535681E-01 0.30472406E+03</pdfrwt>
<pdfrwt beam="2">  1       -2 0.68224200E-02 0.30472406E+03</pdfrwt>
<totfact> 0.71618587E+03</totfact>
</mgrwt>
</event>
<event>
 4    1  0.6086918E-004  0.3462155E+03  0.7818608E-02  0.1064179E+00
          2   -1    0    0  501    0  0.00000000000E+00  0.00000000000E+00  0.69058491123E+03  0.69058491124E+03  0.25500000000E-02 0.  1.
         -2   -1    0    0    0  501 -0.00000000000E+00 -0.00000000000E+00 -0.43392615358E+02  0.43392615433E+02  0.25500000000E-02 0. -1.
    5000001    1    1    2    0    0  0.14765350000E+03 -0.35601823744E+02  0.38956329730E+03  0.42515598140E+03  0.77000000000E+02 0.  0.
   -5000001    1    1    2    0    0 -0.14765350000E+03  0.35601823744E+02  0.25762899858E+03  0.30882154528E+03  0.77000000000E+02 0.  0.
<mgrwt>
<rscale>  0 0.34621546E+03</rscale>
<asrwt>0</asrwt>
<pdfrwt beam="1">  1        2 0.10624384E+00 0.34621546E+03</pdfrwt>
<pdfrwt beam="2">  1       -2 0.66757868E-02 0.34621546E+03</pdfrwt>
<totfact> 0.53709877E+03</totfact>
</mgrwt>
</event>
<event>
 4    1  0.6086918E-004  0.1833333E+03  0.7818608E-02  0.1164615E+00
          2   -1    0    0  501    0  0.00000000000E+00  0.00000000000E+00  0.34623001386E+03  0.34623001387E+03  0.25500000000E-02 0.  1.
         -2   -1    0    0    0  501 -0.00000000000E+00 -0.00000000000E+00 -0.24269345823E+02  0.24269345957E+02  0.25500000000E-02 0. -1.
    5000001    1    1    2    0    0  0.28964437657E+02 -0.21120048588E+02  0.91302125343E+02  0.12469993261E+03  0.77000000000E+02 0.  0.
   -5000001    1    1    2    0    0 -0.28964437657E+02  0.21120048588E+02  0.23065854270E+03  0.24579942722E+03  0.77000000000E+02 0.  0.
<mgrwt>
<rscale>  0 0.18333331E+03</rscale>
<asrwt>0</asrwt>
<pdfrwt beam="1">  1        2 0.53266152E-01 0.18333331E+03</pdfrwt>
<pdfrwt beam="2">  1       -2 0.37337458E-02 0.18333331E+03</pdfrwt>
<totfact> 0.27324257E+04</totfact>
</mgrwt>
</event>
<event>
 4    1  0.6086918E-004  0.2982201E+03  0.7818608E-02  0.1086134E+00
          2   -1    0    0  501    0  0.00000000000E+00  0.00000000000E+00  0.25559843771E+03  0.25559843772E+03  0.25500000000E-02 0.  1.
         -2   -1    0    0    0  501 -0.00000000000E+00 -0.00000000000E+00 -0.86987276450E+02  0.86987276488E+02  0.25500000000E-02 0. -1.
    5000001    1    1    2    0    0 -0.57469698301E+02 -0.11262221010E+03  0.10480017743E+03  0.18137972770E+03  0.77000000000E+02 0.  0.
   -5000001    1    1    2    0    0  0.57469698301E+02  0.11262221010E+03  0.63810983834E+02  0.16120598652E+03  0.77000000000E+02 0.  0.
<mgrwt>
<rscale>  0 0.29822013E+03</rscale>
<asrwt>0</asrwt>
<pdfrwt beam="1">  1        2 0.39322836E-01 0.29822013E+03</pdfrwt>
<pdfrwt beam="2">  1       -2 0.13382658E-01 0.29822013E+03</pdfrwt>
<totfact> 0.53673713E+03</totfact>
</mgrwt>
</event>
<event>
 4    1  0.6086918E-004  0.2843973E+03  0.7818608E-02  0.1093311E+00
          2   -1    0    0  501    0  0.00000000000E+00  0.00000000000E+00  0.77157651636E+03  0.77157651637E+03  0.25500000000E-02 0.  1.
         -2   -1    0    0    0  501 -0.00000000000E+00 -0.00000000000E+00 -0.26206667661E+02  0.26206667785E+02  0.25500000000E-02 0. -1.
    5000001    1    1    2    0    0 -0.32573033529E+02  0.91251008458E+02  0.56912108705E+03  0.58242214997E+03  0.77000000000E+02 0.  0.
   -5000001    1    1    2    0    0  0.32573033529E+02 -0.91251008458E+02  0.17624876166E+03  0.21536103418E+03  0.77000000000E+02 0.  0.
<mgrwt>
<rscale>  0 0.28439725E+03</rscale>
<asrwt>0</asrwt>
<pdfrwt beam="1">  1        2 0.11870407E+00 0.28439725E+03</pdfrwt>
<pdfrwt beam="2">  1       -2 0.40317953E-02 0.28439725E+03</pdfrwt>
<totfact> 0.10069220E+04</totfact>
</mgrwt>
</event>
<event>
 4    1  0.6086918E-004  0.2341167E+03  0.7818608E-02  0.1123775E+00
         -2   -1    0    0    0  501 -0.00000000000E+00  0.00000000000E+00  0.19883139861E+03  0.19883139863E+03  0.25500000000E-02 0. -1.
          2   -1    0    0  501    0  0.00000000000E+00 -0.00000000000E+00 -0.68915938644E+02  0.68915938691E+02  0.25500000000E-02 0.  1.
    5000001    1    1    2    0    0  0.59826386198E+01  0.84046909641E+02  0.35267364799E+02  0.11946740980E+03  0.77000000000E+02 0.  0.
   -5000001    1    1    2    0    0 -0.59826386198E+01 -0.84046909641E+02  0.94648095168E+02  0.14827992752E+03  0.77000000000E+02 0.  0.
<mgrwt>
<rscale>  0 0.23411666E+03</rscale>
<asrwt>0</asrwt>
<pdfrwt beam="1">  1        2 0.10602452E-01 0.23411666E+03</pdfrwt>
<pdfrwt beam="2">  1       -2 0.30589446E-01 0.23411666E+03</pdfrwt>
<totfact> 0.57823529E+03</totfact>
</mgrwt>
</event>
<event>
 4    1  0.6086918E-004  0.2968814E+03  0.7818608E-02  0.1086810E+00
          2   -1    0    0  501    0  0.00000000000E+00  0.00000000000E+00  0.25554426011E+03  0.25554426012E+03  0.25500000000E-02 0.  1.
         -2   -1    0    0    0  501 -0.00000000000E+00 -0.00000000000E+00 -0.86226308879E+02  0.86226308917E+02  0.25500000000E-02 0. -1.
    5000001    1    1    2    0    0 -0.10077623563E+03 -0.56745044882E+02  0.24511666177E+02  0.14108746069E+03  0.77000000000E+02 0.  0.
   -5000001    1    1    2    0    0  0.10077623563E+03  0.56745044882E+02  0.14480628506E+03  0.20068310835E+03  0.77000000000E+02 0.  0.
<mgrwt>
<rscale>  0 0.29688138E+03</rscale>
<asrwt>0</asrwt>
<pdfrwt beam="1">  1        2 0.39314502E-01 0.29688138E+03</pdfrwt>
<pdfrwt beam="2">  1       -2 0.13265586E-01 0.29688138E+03</pdfrwt>
<totfact> 0.54455487E+03</totfact>
</mgrwt>
</event>
<event>
 4    1  0.6086918E-004  0.1771448E+03  0.7818608E-02  0.1170595E+00
          2   -1    0    0  501    0  0.00000000000E+00  0.00000000000E+00  0.63906115316E+02  0.63906115367E+02  0.25500000000E-02 0.  1.
         -2   -1    0    0    0  501 -0.00000000000E+00 -0.00000000000E+00 -0.12275923425E+03  0.12275923427E+03  0.25500000000E-02 0. -1.
    5000001    1    1    2    0    0 -0.21902160001E+02 -0.15932703865E+02  0.68092402849E+01  0.81908005826E+02  0.77000000000E+02 0.  0.
   -5000001    1    1    2    0    0  0.21902160001E+02  0.15932703865E+02 -0.65662359217E+02  0.10475734381E+03  0.77000000000E+02 0.  0.
<mgrwt>
<rscale>  0 0.17714475E+03</rscale>
<asrwt>0</asrwt>
<pdfrwt beam="1">  1        2 0.98317100E-02 0.17714475E+03</pdfrwt>
<pdfrwt beam="2">  1       -2 0.18886036E-01 0.17714475E+03</pdfrwt>
<totfact> 0.14488291E+04</totfact>
</mgrwt>
</event>
<event>
 4    1  0.6086918E-004  0.3720969E+03  0.7818608E-02  0.1053894E+00
          2   -1    0    0  501    0  0.00000000000E+00  0.00000000000E+00  0.52045798906E+03  0.52045798907E+03  0.25500000000E-02 0.  1.
         -2   -1    0    0    0  501 -0.00000000000E+00 -0.00000000000E+00 -0.66506875793E+02  0.66506875842E+02  0.25500000000E-02 0. -1.
    5000001    1    1    2    0    0 -0.92419476242E+02  0.72302215173E+02  0.41963181853E+03  0.44248031937E+03  0.77000000000E+02 0.  0.
   -5000001    1    1    2    0    0  0.92419476242E+02 -0.72302215173E+02  0.34319294737E+02  0.14448454554E+03  0.77000000000E+02 0.  0.
<mgrwt>
<rscale>  0 0.37209695E+03</rscale>
<asrwt>0</asrwt>
<pdfrwt beam="1">  1        2 0.80070459E-01 0.37209695E+03</pdfrwt>
<pdfrwt beam="2">  1       -2 0.10231827E-01 0.37209695E+03</pdfrwt>
<totfact> 0.38234363E+03</totfact>
</mgrwt>
</event>
<event>
 4    1  0.6086918E-004  0.3296716E+03  0.7818608E-02  0.1071282E+00
          2   -1    0    0  501    0  0.00000000000E+00  0.00000000000E+00  0.14998408552E+04  0.14998408552E+04  0.25500000000E-02 0. -1.
         -2   -1    0    0    0  501 -0.00000000000E+00 -0.00000000000E+00 -0.18115812161E+02  0.18115812340E+02  0.25500000000E-02 0.  1.
    5000001    1    1    2    0    0  0.10928333355E+03  0.93080568948E+02  0.85689067745E+03  0.87223705058E+03  0.77000000000E+02 0.  0.
   -5000001    1    1    2    0    0 -0.10928333355E+03 -0.93080568948E+02  0.62483436563E+03  0.64571961700E+03  0.77000000000E+02 0.  0.
<mgrwt>
<rscale>  0 0.32967157E+03</rscale>
<asrwt>0</asrwt>
<pdfrwt beam="1">  1        2 0.23074479E+00 0.32967157E+03</pdfrwt>
<pdfrwt beam="2">  1       -2 0.27870475E-02 0.32967157E+03</pdfrwt>
<totfact> 0.64685575E+03</totfact>
</mgrwt>
</event>
<event>
 4    1  0.6086918E-004  0.5081965E+03  0.7818608E-02  0.1011661E+00
         -2   -1    0    0    0  501 -0.00000000000E+00  0.00000000000E+00  0.22911672277E+03  0.22911672278E+03  0.25500000000E-02 0. -1.
          2   -1    0    0  501    0  0.00000000000E+00 -0.00000000000E+00 -0.28180358080E+03  0.28180358081E+03  0.25500000000E-02 0.  1.
    5000001    1    1    2    0    0 -0.23375560815E+03  0.50647493471E+01  0.36998841465E+02  0.24892820310E+03  0.77000000000E+02 0.  0.
   -5000001    1    1    2    0    0  0.23375560815E+03 -0.50647493471E+01 -0.89685699499E+02  0.26199210050E+03  0.77000000000E+02 0.  0.
<mgrwt>
<rscale>  0 0.50819647E+03</rscale>
<asrwt>0</asrwt>
<pdfrwt beam="1">  1        2 0.43354397E-01 0.50819647E+03</pdfrwt>
<pdfrwt beam="2">  1       -2 0.35248727E-01 0.50819647E+03</pdfrwt>
<totfact> 0.89224629E+02</totfact>
</mgrwt>
</event>
<event>
 4    1  0.6086918E-004  0.3412848E+03  0.7818608E-02  0.1066250E+00
         -2   -1    0    0    0  501 -0.00000000000E+00  0.00000000000E+00  0.21859630949E+02  0.21859631098E+02  0.25500000000E-02 0. -1.
          2   -1    0    0  501    0  0.00000000000E+00 -0.00000000000E+00 -0.13320820726E+04  0.13320820726E+04  0.25500000000E-02 0.  1.
    5000001    1    1    2    0    0  0.72970646367E+02 -0.10368690263E+03 -0.32049724770E+03  0.35316168364E+03  0.77000000000E+02 0.  0.
   -5000001    1    1    2    0    0 -0.72970646367E+02  0.10368690263E+03 -0.98972519395E+03  0.10007800201E+04  0.77000000000E+02 0.  0.
<mgrwt>
<rscale>  0 0.34128476E+03</rscale>
<asrwt>0</asrwt>
<pdfrwt beam="1">  1        2 0.20493564E+00 0.34128476E+03</pdfrwt>
<pdfrwt beam="2">  1       -2 0.33630212E-02 0.34128476E+03</pdfrwt>
<totfact> 0.60313610E+03</totfact>
</mgrwt>
</event>
<event>
 4    1  0.6086918E-004  0.1757146E+03  0.7818608E-02  0.1172016E+00
         -2   -1    0    0    0  501 -0.00000000000E+00  0.00000000000E+00  0.59386133549E+01  0.59386139024E+01  0.25500000000E-02 0. -1.
          2   -1    0    0  501    0  0.00000000000E+00 -0.00000000000E+00 -0.12997820389E+04  0.12997820389E+04  0.25500000000E-02 0.  1.
    5000001    1    1    2    0    0 -0.12213279430E+02 -0.23951903966E+02 -0.88965756851E+03  0.89338818389E+03  0.77000000000E+02 0.  0.
   -5000001    1    1    2    0    0  0.12213279430E+02  0.23951903966E+02 -0.40418585701E+03  0.41233246889E+03  0.77000000000E+02 0.  0.
<mgrwt>
<rscale>  0 0.17571458E+03</rscale>
<asrwt>0</asrwt>
<pdfrwt beam="1">  1        2 0.19996624E+00 0.17571458E+03</pdfrwt>
<pdfrwt beam="2">  1       -2 0.91363390E-03 0.17571458E+03</pdfrwt>
<totfact> 0.41353089E+04</totfact>
</mgrwt>
</event>
<event>
 4    1  0.6086918E-004  0.6329625E+03  0.7818608E-02  0.9839285E-01
          2   -1    0    0  501    0  0.00000000000E+00  0.00000000000E+00  0.32492863648E+03  0.32492863649E+03  0.25500000000E-02 0.  1.
         -2   -1    0    0    0  501 -0.00000000000E+00 -0.00000000000E+00 -0.30825346743E+03  0.30825346744E+03  0.25500000000E-02 0. -1.
    5000001    1    1    2    0    0 -0.40843341805E+02  0.24026600851E+03  0.19504490267E+03  0.32150808306E+03  0.77000000000E+02 0.  0.
   -5000001    1    1    2    0    0  0.40843341805E+02 -0.24026600851E+03 -0.17836973362E+03  0.31167402087E+03  0.77000000000E+02 0.  0.
<mgrwt>
<rscale>  0 0.63296249E+03</rscale>
<asrwt>0</asrwt>
<pdfrwt beam="1">  1        2 0.49989021E-01 0.63296249E+03</pdfrwt>
<pdfrwt beam="2">  1       -2 0.47423611E-01 0.63296249E+03</pdfrwt>
<totfact> 0.42700964E+02</totfact>
</mgrwt>
</event>
<event>
 4    1  0.6086918E-004  0.3852138E+03  0.7818608E-02  0.1049023E+00
          2   -1    0    0  501    0  0.00000000000E+00  0.00000000000E+00  0.14933205170E+04  0.14933205170E+04  0.25500000000E-02 0.  1.
         -2   -1    0    0    0  501 -0.00000000000E+00 -0.00000000000E+00 -0.24842236286E+02  0.24842236417E+02  0.25500000000E-02 0. -1.
    5000001    1    1    2    0    0  0.16445915457E+03 -0.34544713399E+02  0.52097292046E+03  0.55279465862E+03  0.77000000000E+02 0.  0.
   -5000001    1    1    2    0    0 -0.16445915457E+03  0.34544713399E+02  0.94750536026E+03  0.96536809481E+03  0.77000000000E+02 0.  0.
<mgrwt>
<rscale>  0 0.38521382E+03</rscale>
<asrwt>0</asrwt>
<pdfrwt beam="1">  1        2 0.22974172E+00 0.38521382E+03</pdfrwt>
<pdfrwt beam="2">  1       -2 0.38218809E-02 0.38521382E+03</pdfrwt>
<totfact> 0.40577682E+03</totfact>
</mgrwt>
</event>
<event>
 4    1  0.6086918E-004  0.2445696E+03  0.7818608E-02  0.1116786E+00
         -2   -1    0    0    0  501 -0.00000000000E+00  0.00000000000E+00  0.36606730420E+02  0.36606730509E+02  0.25500000000E-02 0. -1.
          2   -1    0    0  501    0  0.00000000000E+00 -0.00000000000E+00 -0.40849245400E+03  0.40849245401E+03  0.25500000000E-02 0.  1.
    5000001    1    1    2    0    0 -0.87198540695E+02 -0.32890479168E+02 -0.15242434258E+03  0.19454446621E+03  0.77000000000E+02 0.  0.
   -5000001    1    1    2    0    0  0.87198540695E+02  0.32890479168E+02 -0.21946138100E+03  0.25055471831E+03  0.77000000000E+02 0.  0.
<mgrwt>
<rscale>  0 0.24456961E+03</rscale>
<asrwt>0</asrwt>
<pdfrwt beam="1">  1        2 0.62844990E-01 0.24456961E+03</pdfrwt>
<pdfrwt beam="2">  1       -2 0.56318050E-02 0.24456961E+03</pdfrwt>
<totfact> 0.12547073E+04</totfact>
</mgrwt>
</event>
<event>
 4    1  0.6086918E-004  0.3981294E+03  0.7818608E-02  0.1044429E+00
         -2   -1    0    0    0  501 -0.00000000000E+00  0.00000000000E+00  0.34846213209E+02  0.34846213302E+02  0.25500000000E-02 0. -1.
          2   -1    0    0  501    0  0.00000000000E+00 -0.00000000000E+00 -0.11371897250E+04  0.11371897250E+04  0.25500000000E-02 0.  1.
    5000001    1    1    2    0    0  0.13520533147E+03  0.74012918963E+02 -0.84466352441E+03  0.86205792340E+03  0.77000000000E+02 0.  0.
   -5000001    1    1    2    0    0 -0.13520533147E+03 -0.74012918963E+02 -0.25767998742E+03  0.30997801495E+03  0.77000000000E+02 0.  0.
<mgrwt>
<rscale>  0 0.39812940E+03</rscale>
<asrwt>0</asrwt>
<pdfrwt beam="1">  1        2 0.17495224E+00 0.39812940E+03</pdfrwt>
<pdfrwt beam="2">  1       -2 0.53609568E-02 0.39812940E+03</pdfrwt>
<totfact> 0.38370790E+03</totfact>
</mgrwt>
</event>
<event>
 4    1  0.6086918E-004  0.2430382E+03  0.7818608E-02  0.1117785E+00
         -2   -1    0    0    0  501 -0.00000000000E+00  0.00000000000E+00  0.76816172794E+02  0.76816172836E+02  0.25500000000E-02 0. -1.
          2   -1    0    0  501    0  0.00000000000E+00 -0.00000000000E+00 -0.19223680537E+03  0.19223680538E+03  0.25500000000E-02 0.  1.
    5000001    1    1    2    0    0  0.48177291054E+02 -0.13796543868E+02 -0.14576347698E+03  0.17230028212E+03  0.77000000000E+02 0.  0.
   -5000001    1    1    2    0    0 -0.48177291054E+02  0.13796543868E+02  0.30342844409E+02  0.96752696101E+02  0.77000000000E+02 0.  0.
<mgrwt>
<rscale>  0 0.24303823E+03</rscale>
<asrwt>0</asrwt>
<pdfrwt beam="1">  1        2 0.29574893E-01 0.24303823E+03</pdfrwt>
<pdfrwt beam="2">  1       -2 0.11817873E-01 0.24303823E+03</pdfrwt>
<totfact> 0.88823349E+03</totfact>
</mgrwt>
</event>
<event>
 4    1  0.6086918E-004  0.1873518E+03  0.7818608E-02  0.1160872E+00
         -2   -1    0    0    0  501 -0.00000000000E+00  0.00000000000E+00  0.14030484421E+02  0.14030484652E+02  0.25500000000E-02 0. -1.
          2   -1    0    0  501    0  0.00000000000E+00 -0.00000000000E+00 -0.62543633425E+03  0.62543633425E+03  0.25500000000E-02 0.  1.
    5000001    1    1    2    0    0  0.38655473030E+02 -0.36490124448E+02 -0.29028678437E+03  0.30499375724E+03  0.77000000000E+02 0.  0.
   -5000001    1    1    2    0    0 -0.38655473030E+02  0.36490124448E+02 -0.32111906546E+03  0.33447306166E+03  0.77000000000E+02 0.  0.
<mgrwt>
<rscale>  0 0.18735181E+03</rscale>
<asrwt>0</asrwt>
<pdfrwt beam="1">  1        2 0.96220953E-01 0.18735181E+03</pdfrwt>
<pdfrwt beam="2">  1       -2 0.21585366E-02 0.18735181E+03</pdfrwt>
<totfact> 0.32025378E+04</totfact>
</mgrwt>
</event>
<event>
 4    1  0.6086918E-004  0.2558368E+03  0.7818608E-02  0.1109671E+00
          2   -1    0    0  501    0  0.00000000000E+00  0.00000000000E+00  0.77343637341E+03  0.77343637342E+03  0.25500000000E-02 0.  1.
         -2   -1    0    0    0  501 -0.00000000000E+00 -0.00000000000E+00 -0.21156380630E+02  0.21156380784E+02  0.25500000000E-02 0. -1.
    5000001    1    1    2    0    0  0.16222947022E+02 -0.98787370312E+02  0.31309904473E+03  0.33761241143E+03  0.77000000000E+02 0.  0.
   -5000001    1    1    2    0    0 -0.16222947022E+02  0.98787370312E+02  0.43918094805E+03  0.45698034277E+03  0.77000000000E+02 0.  0.
<mgrwt>
<rscale>  0 0.25583678E+03</rscale>
<asrwt>0</asrwt>
<pdfrwt beam="1">  1        2 0.11899021E+00 0.25583678E+03</pdfrwt>
<pdfrwt beam="2">  1       -2 0.32548279E-02 0.25583678E+03</pdfrwt>
<totfact> 0.13779559E+04</totfact>
</mgrwt>
</event>
<event>
 4    1  0.6086918E-004  0.4570082E+03  0.7818608E-02  0.1025653E+00
          2   -1    0    0  501    0  0.00000000000E+00  0.00000000000E+00  0.20953863532E+03  0.20953863533E+03  0.25500000000E-02 0.  1.
         -2   -1    0    0    0  501 -0.00000000000E+00 -0.00000000000E+00 -0.24918615657E+03  0.24918615658E+03  0.25500000000E-02 0. -1.
    5000001    1    1    2    0    0 -0.20322393415E+02  0.16307049250E+03  0.11955073840E+03  0.21731627700E+03  0.77000000000E+02 0.  0.
   -5000001    1    1    2    0    0  0.20322393415E+02 -0.16307049250E+03 -0.15919825965E+03  0.24140851492E+03  0.77000000000E+02 0.  0.
<mgrwt>
<rscale>  0 0.45700822E+03</rscale>
<asrwt>0</asrwt>
<pdfrwt beam="1">  1        2 0.32236713E-01 0.45700822E+03</pdfrwt>
<pdfrwt beam="2">  1       -2 0.38336332E-01 0.45700822E+03</pdfrwt>
<totfact> 0.10543117E+03</totfact>
</mgrwt>
</event>
<event>
 4    1  0.6086918E-004  0.2167738E+03  0.7818608E-02  0.1136311E+00
          2   -1    0    0  501    0  0.00000000000E+00  0.00000000000E+00  0.23186196645E+03  0.23186196646E+03  0.25500000000E-02 0.  1.
         -2   -1    0    0    0  501 -0.00000000000E+00 -0.00000000000E+00 -0.50666851004E+02  0.50666851068E+02  0.25500000000E-02 0. -1.
    5000001    1    1    2    0    0 -0.69400202493E+02  0.14826082006E+02  0.12705635612E+03  0.16464664723E+03  0.77000000000E+02 0.  0.
   -5000001    1    1    2    0    0  0.69400202493E+02 -0.14826082006E+02  0.54138759327E+02  0.11788217030E+03  0.77000000000E+02 0.  0.
<mgrwt>
<rscale>  0 0.21677376E+03</rscale>
<asrwt>0</asrwt>
<pdfrwt beam="1">  1        2 0.35671072E-01 0.21677376E+03</pdfrwt>
<pdfrwt beam="2">  1       -2 0.77949002E-02 0.21677376E+03</pdfrwt>
<totfact> 0.13893723E+04</totfact>
</mgrwt>
</event>
<event>
 4    1  0.6086918E-004  0.2528688E+03  0.7818608E-02  0.1111505E+00
          2   -1    0    0  501    0  0.00000000000E+00  0.00000000000E+00  0.39536676021E+03  0.39536676022E+03  0.25500000000E-02 0.  1.
         -2   -1    0    0    0  501 -0.00000000000E+00 -0.00000000000E+00 -0.40432490252E+02  0.40432490333E+02  0.25500000000E-02 0. -1.
    5000001    1    1    2    0    0  0.92498421191E+02  0.14273679501E+02  0.23953339815E+03  0.26844914728E+03  0.77000000000E+02 0.  0.
   -5000001    1    1    2    0    0 -0.92498421191E+02 -0.14273679501E+02  0.11540087181E+03  0.16735010327E+03  0.77000000000E+02 0.  0.
<mgrwt>
<rscale>  0 0.25286884E+03</rscale>
<asrwt>0</asrwt>
<pdfrwt beam="1">  1        2 0.60825654E-01 0.25286884E+03</pdfrwt>
<pdfrwt beam="2">  1       -2 0.62203832E-02 0.25286884E+03</pdfrwt>
<totfact> 0.11183003E+04</totfact>
</mgrwt>
</event>
<event>
 4    1  0.6086918E-004  0.3181058E+03  0.7818608E-02  0.1076524E+00
          2   -1    0    0  501    0  0.00000000000E+00  0.00000000000E+00  0.33085044859E+03  0.33085044860E+03  0.25500000000E-02 0.  1.
         -2   -1    0    0    0  501 -0.00000000000E+00 -0.00000000000E+00 -0.76463001948E+02  0.76463001990E+02  0.25500000000E-02 0. -1.
    5000001    1    1    2    0    0  0.29959238836E+02  0.77756630906E+02 -0.15534010360E+02  0.11451617842E+03  0.77000000000E+02 0.  0.
   -5000001    1    1    2    0    0 -0.29959238836E+02 -0.77756630906E+02  0.26992145700E+03  0.29279727217E+03  0.77000000000E+02 0.  0.
<mgrwt>
<rscale>  0 0.31810576E+03</rscale>
<asrwt>0</asrwt>
<pdfrwt beam="1">  1        2 0.50900070E-01 0.31810576E+03</pdfrwt>
<pdfrwt beam="2">  1       -2 0.11763539E-01 0.31810576E+03</pdfrwt>
<totfact> 0.50185043E+03</totfact>
</mgrwt>
</event>
<event>
 4    1  0.6086918E-004  0.2180394E+03  0.7818608E-02  0.1135353E+00
          2   -1    0    0  501    0  0.00000000000E+00  0.00000000000E+00  0.38046801169E+03  0.38046801170E+03  0.25500000000E-02 0.  1.
         -2   -1    0    0    0  501 -0.00000000000E+00 -0.00000000000E+00 -0.31238625035E+02  0.31238625139E+02  0.25500000000E-02 0. -1.
    5000001    1    1    2    0    0  0.59534199441E+02  0.35216315161E+02  0.23925111901E+03  0.26068104592E+03  0.77000000000E+02 0.  0.
   -5000001    1    1    2    0    0 -0.59534199441E+02 -0.35216315161E+02  0.10997826764E+03  0.15102559091E+03  0.77000000000E+02 0.  0.
<mgrwt>
<rscale>  0 0.21803942E+03</rscale>
<asrwt>0</asrwt>
<pdfrwt beam="1">  1        2 0.58533537E-01 0.21803942E+03</pdfrwt>
<pdfrwt beam="2">  1       -2 0.48059426E-02 0.21803942E+03</pdfrwt>
<totfact> 0.17125565E+04</totfact>
</mgrwt>
</event>
<event>
 4    1  0.6086918E-004  0.2204111E+03  0.7818608E-02  0.1133577E+00
          2   -1    0    0  501    0  0.00000000000E+00  0.00000000000E+00  0.23270495027E+04  0.23270495027E+04  0.25500000000E-02 0.  1.
         -2   -1    0    0    0  501 -0.00000000000E+00 -0.00000000000E+00 -0.52191664575E+01  0.52191670804E+01  0.25500000000E-02 0. -1.
    5000001    1    1    2    0    0  0.42230143545E+02 -0.65311136424E+02  0.12977926241E+04  0.13023991803E+04  0.77000000000E+02 0.  0.
   -5000001    1    1    2    0    0 -0.42230143545E+02  0.65311136424E+02  0.10240377121E+04  0.10298694895E+04  0.77000000000E+02 0.  0.
<mgrwt>
<rscale>  0 0.22041107E+03</rscale>
<asrwt>0</asrwt>
<pdfrwt beam="1">  1        2 0.35800745E+00 0.22041107E+03</pdfrwt>
<pdfrwt beam="2">  1       -2 0.80294911E-03 0.22041107E+03</pdfrwt>
<totfact> 0.14529572E+04</totfact>
</mgrwt>
</event>
<event>
 4    1  0.6086918E-004  0.2448392E+03  0.7818608E-02  0.1116610E+00
          2   -1    0    0  501    0  0.00000000000E+00  0.00000000000E+00  0.19408504403E+04  0.19408504403E+04  0.25500000000E-02 0.  1.
         -2   -1    0    0    0  501 -0.00000000000E+00 -0.00000000000E+00 -0.77216444471E+01  0.77216448681E+01  0.25500000000E-02 0. -1.
    5000001    1    1    2    0    0  0.74405577895E+02 -0.41388664417E+01  0.49544358843E+03  0.50689907235E+03  0.77000000000E+02 0.  0.
   -5000001    1    1    2    0    0 -0.74405577895E+02  0.41388664417E+01  0.14376852074E+04  0.14416730128E+04  0.77000000000E+02 0.  0.
<mgrwt>
<rscale>  0 0.24483919E+03</rscale>
<asrwt>0</asrwt>
<pdfrwt beam="1">  1        2 0.29859285E+00 0.24483919E+03</pdfrwt>
<pdfrwt beam="2">  1       -2 0.11879435E-02 0.24483919E+03</pdfrwt>
<totfact> 0.13203698E+04</totfact>
</mgrwt>
</event>
<event>
 4    1  0.6086918E-004  0.4268864E+03  0.7818608E-02  0.1034848E+00
         -2   -1    0    0    0  501 -0.00000000000E+00  0.00000000000E+00  0.75755463670E+03  0.75755463670E+03  0.25500000000E-02 0. -1.
          2   -1    0    0  501    0  0.00000000000E+00 -0.00000000000E+00 -0.60138231108E+02  0.60138231162E+02  0.25500000000E-02 0.  1.
    5000001    1    1    2    0    0  0.83290082187E+02 -0.13500616434E+03  0.11833151314E+03  0.21235642021E+03  0.77000000000E+02 0.  0.
   -5000001    1    1    2    0    0 -0.83290082187E+02  0.13500616434E+03  0.57908489245E+03  0.60533644766E+03  0.77000000000E+02 0.  0.
<mgrwt>
<rscale>  0 0.42688638E+03</rscale>
<asrwt>0</asrwt>
<pdfrwt beam="1">  1        2 0.92520353E-02 0.42688638E+03</pdfrwt>
<pdfrwt beam="2">  1       -2 0.11654687E+00 0.42688638E+03</pdfrwt>
<totfact> 0.42322133E+02</totfact>
</mgrwt>
</event>
<event>
 4    1  0.6086918E-004  0.6671381E+03  0.7818608E-02  0.9775142E-01
          2   -1    0    0  501    0  0.00000000000E+00  0.00000000000E+00  0.58007884752E+03  0.58007884753E+03  0.25500000000E-02 0.  1.
         -2   -1    0    0    0  501 -0.00000000000E+00 -0.00000000000E+00 -0.19181581203E+03  0.19181581205E+03  0.25500000000E-02 0. -1.
    5000001    1    1    2    0    0  0.12883723278E+03 -0.28302348227E+03  0.86596924311E+02  0.33185742626E+03  0.77000000000E+02 0.  0.
   -5000001    1    1    2    0    0 -0.12883723278E+03  0.28302348227E+03  0.30166611118E+03  0.44003723331E+03  0.77000000000E+02 0.  0.
<mgrwt>
<rscale>  0 0.66713805E+03</rscale>
<asrwt>0</asrwt>
<pdfrwt beam="1">  1        2 0.89242900E-01 0.66713805E+03</pdfrwt>
<pdfrwt beam="2">  1       -2 0.29510125E-01 0.66713805E+03</pdfrwt>
<totfact> 0.54951315E+02</totfact>
</mgrwt>
</event>
<event>
 4    1  0.6086918E-004  0.2769436E+03  0.7818608E-02  0.1097370E+00
         -2   -1    0    0    0  501 -0.00000000000E+00  0.00000000000E+00  0.33562531387E+02  0.33562531483E+02  0.25500000000E-02 0. -1.
          2   -1    0    0  501    0  0.00000000000E+00 -0.00000000000E+00 -0.57130490617E+03  0.57130490617E+03  0.25500000000E-02 0.  1.
    5000001    1    1    2    0    0  0.44201900564E+02 -0.10492237363E+03 -0.23213402610E+03  0.26977345788E+03  0.77000000000E+02 0.  0.
   -5000001    1    1    2    0    0 -0.44201900564E+02  0.10492237363E+03 -0.30560834868E+03  0.33509397978E+03  0.77000000000E+02 0.  0.
<mgrwt>
<rscale>  0 0.27694360E+03</rscale>
<asrwt>0</asrwt>
<pdfrwt beam="1">  1        2 0.87893055E-01 0.27694360E+03</pdfrwt>
<pdfrwt beam="2">  1       -2 0.51634668E-02 0.27694360E+03</pdfrwt>
<totfact> 0.99131444E+03</totfact>
</mgrwt>
</event>
<event>
 4    1  0.6086918E-004  0.1905646E+03  0.7818608E-02  0.1157953E+00
         -2   -1    0    0    0  501 -0.00000000000E+00  0.00000000000E+00  0.10198805857E+02  0.10198806176E+02  0.25500000000E-02 0. -1.
          2   -1    0    0  501    0  0.00000000000E+00 -0.00000000000E+00 -0.89017433974E+03  0.89017433975E+03  0.25500000000E-02 0.  1.
    5000001    1    1    2    0    0 -0.45512794269E+02  0.32244451832E+02 -0.41063472145E+03  0.42149850958E+03  0.77000000000E+02 0.  0.
   -5000001    1    1    2    0    0  0.45512794269E+02 -0.32244451832E+02 -0.46934081244E+03  0.47887463634E+03  0.77000000000E+02 0.  0.
<mgrwt>
<rscale>  0 0.19056459E+03</rscale>
<asrwt>0</asrwt>
<pdfrwt beam="1">  1        2 0.13694984E+00 0.19056459E+03</pdfrwt>
<pdfrwt beam="2">  1       -2 0.15690478E-02 0.19056459E+03</pdfrwt>
<totfact> 0.33067862E+04</totfact>
</mgrwt>
</event>
<event>
 4    1  0.6086918E-004  0.3015417E+03  0.7818608E-02  0.1084472E+00
          2   -1    0    0  501    0  0.00000000000E+00  0.00000000000E+00  0.32225030131E+04  0.32225030131E+04  0.25500000000E-02 0.  1.
         -2   -1    0    0    0  501 -0.00000000000E+00 -0.00000000000E+00 -0.70540955562E+01  0.70540960171E+01  0.25500000000E-02 0. -1.
    5000001    1    1    2    0    0  0.10286321632E+03 -0.71301155158E+02  0.12464018158E+04  0.12550343352E+04  0.77000000000E+02 0.  0.
   -5000001    1    1    2    0    0 -0.10286321632E+03  0.71301155158E+02  0.19690471018E+04  0.19745227740E+04  0.77000000000E+02 0.  0.
<mgrwt>
<rscale>  0 0.30154167E+03</rscale>
<asrwt>0</asrwt>
<pdfrwt beam="1">  1        2 0.49577070E+00 0.30154167E+03</pdfrwt>
<pdfrwt beam="2">  1       -2 0.10852433E-02 0.30154167E+03</pdfrwt>
<totfact> 0.28824621E+03</totfact>
</mgrwt>
</event>
<event>
 4    1  0.6086918E-004  0.2023880E+03  0.7818608E-02  0.1147740E+00
         -2   -1    0    0    0  501 -0.00000000000E+00  0.00000000000E+00  0.12986481286E+03  0.12986481288E+03  0.25500000000E-02 0. -1.
          2   -1    0    0  501    0  0.00000000000E+00 -0.00000000000E+00 -0.78852983132E+02  0.78852983173E+02  0.25500000000E-02 0.  1.
    5000001    1    1    2    0    0 -0.12247822644E+01  0.28835159790E+02  0.86327226311E+02  0.11922397634E+03  0.77000000000E+02 0.  0.
   -5000001    1    1    2    0    0  0.12247822644E+01 -0.28835159790E+02 -0.35315396584E+02  0.89493819717E+02  0.77000000000E+02 0.  0.
<mgrwt>
<rscale>  0 0.20238802E+03</rscale>
<asrwt>0</asrwt>
<pdfrwt beam="1">  1        2 0.12131228E-01 0.20238802E+03</pdfrwt>
<pdfrwt beam="2">  1       -2 0.19979202E-01 0.20238802E+03</pdfrwt>
<totfact> 0.10285283E+04</totfact>
</mgrwt>
</event>
<event>
 4    1  0.6086918E-004  0.3545596E+03  0.7818608E-02  0.1060759E+00
          2   -1    0    0  501    0  0.00000000000E+00  0.00000000000E+00  0.12426875276E+04  0.12426875276E+04  0.25500000000E-02 0.  1.
         -2   -1    0    0    0  501 -0.00000000000E+00 -0.00000000000E+00 -0.25290452109E+02  0.25290452238E+02  0.25500000000E-02 0. -1.
    5000001    1    1    2    0    0 -0.14756324360E+03  0.60111579131E+02  0.57105200266E+03  0.59784421261E+03  0.77000000000E+02 0.  0.
   -5000001    1    1    2    0    0  0.14756324360E+03 -0.60111579131E+02  0.64634507279E+03  0.67013376719E+03  0.77000000000E+02 0.  0.
<mgrwt>
<rscale>  0 0.35455961E+03</rscale>
<asrwt>0</asrwt>
<pdfrwt beam="1">  1        2 0.19118269E+00 0.35455961E+03</pdfrwt>
<pdfrwt beam="2">  1       -2 0.38908389E-02 0.35455961E+03</pdfrwt>
<totfact> 0.54353113E+03</totfact>
</mgrwt>
</event>
<event>
 4    1  0.6086918E-004  0.2396987E+03  0.7818608E-02  0.1119994E+00
          2   -1    0    0  501    0  0.00000000000E+00  0.00000000000E+00  0.12767294374E+04  0.12767294374E+04  0.25500000000E-02 0.  1.
         -2   -1    0    0    0  501 -0.00000000000E+00 -0.00000000000E+00 -0.11250521676E+02  0.11250521965E+02  0.25500000000E-02 0. -1.
    5000001    1    1    2    0    0 -0.40472723693E+02 -0.70615249729E+02  0.40411603616E+03  0.41936061515E+03  0.77000000000E+02 0.  0.
   -5000001    1    1    2    0    0  0.40472723693E+02  0.70615249729E+02  0.86136287957E+03  0.86861934422E+03  0.77000000000E+02 0.  0.
<mgrwt>
<rscale>  0 0.23969875E+03</rscale>
<asrwt>0</asrwt>
<pdfrwt beam="1">  1        2 0.19641985E+00 0.23969875E+03</pdfrwt>
<pdfrwt beam="2">  1       -2 0.17308501E-02 0.23969875E+03</pdfrwt>
<totfact> 0.17171612E+04</totfact>
</mgrwt>
</event>
<event>
 4    1  0.6086918E-004  0.2029113E+03  0.7818608E-02  0.1147306E+00
         -2   -1    0    0    0  501 -0.00000000000E+00  0.00000000000E+00  0.23134789530E+03  0.23134789531E+03  0.25500000000E-02 0. -1.
          2   -1    0    0  501    0  0.00000000000E+00 -0.00000000000E+00 -0.44492522866E+02  0.44492522939E+02  0.25500000000E-02 0.  1.
    5000001    1    1    2    0    0 -0.53048288236E+02  0.20606264520E+02  0.47821182710E+02  0.10702618623E+03  0.77000000000E+02 0.  0.
   -5000001    1    1    2    0    0  0.53048288236E+02 -0.20606264520E+02  0.13903418972E+03  0.16881423202E+03  0.77000000000E+02 0.  0.
<mgrwt>
<rscale>  0 0.20291133E+03</rscale>
<asrwt>0</asrwt>
<pdfrwt beam="1">  1        2 0.68450037E-02 0.20291133E+03</pdfrwt>
<pdfrwt beam="2">  1       -2 0.35591983E-01 0.20291133E+03</pdfrwt>
<totfact> 0.75286858E+03</totfact>
</mgrwt>
</event>
<event>
 4    1  0.6086918E-004  0.3078386E+03  0.7818608E-02  0.1081387E+00
         -2   -1    0    0    0  501 -0.00000000000E+00  0.00000000000E+00  0.93887109569E+02  0.93887109604E+02  0.25500000000E-02 0. -1.
          2   -1    0    0  501    0  0.00000000000E+00 -0.00000000000E+00 -0.25233653565E+03  0.25233653567E+03  0.25500000000E-02 0.  1.
    5000001    1    1    2    0    0 -0.11662359520E+03 -0.45640148097E+02 -0.13049466573E+03  0.19657554237E+03  0.77000000000E+02 0.  0.
   -5000001    1    1    2    0    0  0.11662359520E+03  0.45640148097E+02 -0.27954760354E+02  0.14964810290E+03  0.77000000000E+02 0.  0.
<mgrwt>
<rscale>  0 0.30783858E+03</rscale>
<asrwt>0</asrwt>
<pdfrwt beam="1">  1        2 0.38821005E-01 0.30783858E+03</pdfrwt>
<pdfrwt beam="2">  1       -2 0.14444171E-01 0.30783858E+03</pdfrwt>
<totfact> 0.48055826E+03</totfact>
</mgrwt>
</event>
<event>
 4    1  0.6086918E-004  0.3699150E+03  0.7818608E-02  0.1054725E+00
          2   -1    0    0  501    0  0.00000000000E+00  0.00000000000E+00  0.37612442544E+03  0.37612442545E+03  0.25500000000E-02 0.  1.
         -2   -1    0    0    0  501 -0.00000000000E+00 -0.00000000000E+00 -0.90952044500E+02  0.90952044536E+02  0.25500000000E-02 0. -1.
    5000001    1    1    2    0    0 -0.49667180131E+02 -0.13830226809E+03  0.39341623233E+02  0.17050252039E+03  0.77000000000E+02 0.  0.
   -5000001    1    1    2    0    0  0.49667180131E+02  0.13830226809E+03  0.24583075771E+03  0.29657394959E+03  0.77000000000E+02 0.  0.
<mgrwt>
<rscale>  0 0.36991505E+03</rscale>
<asrwt>0</asrwt>
<pdfrwt beam="1">  1        2 0.57865296E-01 0.36991505E+03</pdfrwt>
<pdfrwt beam="2">  1       -2 0.13992622E-01 0.36991505E+03</pdfrwt>
<totfact> 0.32976352E+03</totfact>
</mgrwt>
</event>
<event>
 4    1  0.6086918E-004  0.3027026E+03  0.7818608E-02  0.1083897E+00
         -2   -1    0    0    0  501 -0.00000000000E+00  0.00000000000E+00  0.27419110092E+02  0.27419110211E+02  0.25500000000E-02 0. -1.
          2   -1    0    0  501    0  0.00000000000E+00 -0.00000000000E+00 -0.83544719216E+03  0.83544719216E+03  0.25500000000E-02 0.  1.
    5000001    1    1    2    0    0  0.12471093523E+03 -0.15012258601E+02 -0.30526702413E+03  0.33896185817E+03  0.77000000000E+02 0.  0.
   -5000001    1    1    2    0    0 -0.12471093523E+03  0.15012258601E+02 -0.50276105794E+03  0.52390444420E+03  0.77000000000E+02 0.  0.
<mgrwt>
<rscale>  0 0.30270262E+03</rscale>
<asrwt>0</asrwt>
<pdfrwt beam="1">  1        2 0.12853032E+00 0.30270262E+03</pdfrwt>
<pdfrwt beam="2">  1       -2 0.42183253E-02 0.30270262E+03</pdfrwt>
<totfact> 0.85111437E+03</totfact>
</mgrwt>
</event>
<event>
 4    1  0.6086918E-004  0.2493724E+03  0.7818608E-02  0.1113702E+00
         -2   -1    0    0    0  501 -0.00000000000E+00  0.00000000000E+00  0.17234089815E+02  0.17234090003E+02  0.25500000000E-02 0. -1.
          2   -1    0    0  501    0  0.00000000000E+00 -0.00000000000E+00 -0.90208683085E+03  0.90208683086E+03  0.25500000000E-02 0.  1.
    5000001    1    1    2    0    0 -0.65051716212E+02  0.58295505121E+02 -0.27807313755E+03  0.30146933762E+03  0.77000000000E+02 0.  0.
   -5000001    1    1    2    0    0  0.65051716212E+02 -0.58295505121E+02 -0.60677960349E+03  0.61785158324E+03  0.77000000000E+02 0.  0.
<mgrwt>
<rscale>  0 0.24937238E+03</rscale>
<asrwt>0</asrwt>
<pdfrwt beam="1">  1        2 0.13878255E+00 0.24937238E+03</pdfrwt>
<pdfrwt beam="2">  1       -2 0.26513992E-02 0.24937238E+03</pdfrwt>
<totfact> 0.15296792E+04</totfact>
</mgrwt>
</event>
<event>
 4    1  0.6086918E-004  0.4018474E+03  0.7818608E-02  0.1043142E+00
          2   -1    0    0  501    0  0.00000000000E+00  0.00000000000E+00  0.85645996170E+03  0.85645996170E+03  0.25500000000E-02 0.  1.
         -2   -1    0    0    0  501 -0.00000000000E+00 -0.00000000000E+00 -0.47136284753E+02  0.47136284822E+02  0.25500000000E-02 0. -1.
    5000001    1    1    2    0    0 -0.13783993976E+03  0.12154774648E+03  0.46276281249E+03  0.50383739866E+03  0.77000000000E+02 0.  0.
   -5000001    1    1    2    0    0  0.13783993976E+03 -0.12154774648E+03  0.34656086446E+03  0.39975884786E+03  0.77000000000E+02 0.  0.
<mgrwt>
<rscale>  0 0.40184744E+03</rscale>
<asrwt>0</asrwt>
<pdfrwt beam="1">  1        2 0.13176308E+00 0.40184744E+03</pdfrwt>
<pdfrwt beam="2">  1       -2 0.72517359E-02 0.40184744E+03</pdfrwt>
<totfact> 0.35972617E+03</totfact>
</mgrwt>
</event>
<event>
 4    1  0.6086918E-004  0.2137406E+03  0.7818608E-02  0.1138638E+00
         -2   -1    0    0    0  501 -0.00000000000E+00  0.00000000000E+00  0.91966934712E+01  0.91966938247E+01  0.25500000000E-02 0. -1.
          2   -1    0    0  501    0  0.00000000000E+00 -0.00000000000E+00 -0.12418872782E+04  0.12418872782E+04  0.25500000000E-02 0.  1.
    5000001    1    1    2    0    0  0.13973219354E+02 -0.70621145548E+02 -0.51334417835E+03  0.52405519032E+03  0.77000000000E+02 0.  0.
   -5000001    1    1    2    0    0 -0.13973219354E+02  0.70621145548E+02 -0.71934640638E+03  0.72702878171E+03  0.77000000000E+02 0.  0.
<mgrwt>
<rscale>  0 0.21374056E+03</rscale>
<asrwt>0</asrwt>
<pdfrwt beam="1">  1        2 0.19105945E+00 0.21374056E+03</pdfrwt>
<pdfrwt beam="2">  1       -2 0.14148769E-02 0.21374056E+03</pdfrwt>
<totfact> 0.23957229E+04</totfact>
</mgrwt>
</event>
<event>
 4    1  0.6086918E-004  0.3187653E+03  0.7818608E-02  0.1076219E+00
         -2   -1    0    0    0  501 -0.00000000000E+00  0.00000000000E+00  0.63314700570E+02  0.63314700621E+02  0.25500000000E-02 0. -1.
          2   -1    0    0  501    0  0.00000000000E+00 -0.00000000000E+00 -0.40121536860E+03  0.40121536861E+03  0.25500000000E-02 0.  1.
    5000001    1    1    2    0    0  0.22121196645E+02 -0.13628245508E+03 -0.19851464873E+03  0.25377021233E+03  0.77000000000E+02 0.  0.
   -5000001    1    1    2    0    0 -0.22121196645E+02  0.13628245508E+03 -0.13938601930E+03  0.21075985690E+03  0.77000000000E+02 0.  0.
<mgrwt>
<rscale>  0 0.31876531E+03</rscale>
<asrwt>0</asrwt>
<pdfrwt beam="1">  1        2 0.61725440E-01 0.31876531E+03</pdfrwt>
<pdfrwt beam="2">  1       -2 0.97407234E-02 0.31876531E+03</pdfrwt>
<totfact> 0.55086318E+03</totfact>
</mgrwt>
</event>
<event>
 4    1  0.6086918E-004  0.3356959E+03  0.7818608E-02  0.1068644E+00
          2   -1    0    0  501    0  0.00000000000E+00  0.00000000000E+00  0.63911232791E+03  0.63911232791E+03  0.25500000000E-02 0.  1.
         -2   -1    0    0    0  501 -0.00000000000E+00 -0.00000000000E+00 -0.44081339358E+02  0.44081339432E+02  0.25500000000E-02 0. -1.
    5000001    1    1    2    0    0 -0.11989718143E+03  0.30615770166E+02  0.46695090978E+03  0.48916746789E+03  0.77000000000E+02 0.  0.
   -5000001    1    1    2    0    0  0.11989718143E+03 -0.30615770166E+02  0.12808007877E+03  0.19402619946E+03  0.77000000000E+02 0.  0.
<mgrwt>
<rscale>  0 0.33569586E+03</rscale>
<asrwt>0</asrwt>
<pdfrwt beam="1">  1        2 0.98324962E-01 0.33569586E+03</pdfrwt>
<pdfrwt beam="2">  1       -2 0.67817453E-02 0.33569586E+03</pdfrwt>
<totfact> 0.57502149E+03</totfact>
</mgrwt>
</event>
<event>
 4    1  0.6086918E-004  0.2422267E+03  0.7818608E-02  0.1118318E+00
          2   -1    0    0  501    0  0.00000000000E+00  0.00000000000E+00  0.12228387449E+03  0.12228387452E+03  0.25500000000E-02 0.  1.
         -2   -1    0    0    0  501 -0.00000000000E+00 -0.00000000000E+00 -0.11995406188E+03  0.11995406190E+03  0.25500000000E-02 0. -1.
    5000001    1    1    2    0    0 -0.79586888989E+02 -0.48987517548E+02  0.35309573540E+01  0.12114172458E+03  0.77000000000E+02 0.  0.
   -5000001    1    1    2    0    0  0.79586888989E+02  0.48987517548E+02 -0.12011447370E+01  0.12109621184E+03  0.77000000000E+02 0.  0.
<mgrwt>
<rscale>  0 0.24222673E+03</rscale>
<asrwt>0</asrwt>
<pdfrwt beam="1">  1        2 0.18812904E-01 0.24222673E+03</pdfrwt>
<pdfrwt beam="2">  1       -2 0.18454471E-01 0.24222673E+03</pdfrwt>
<totfact> 0.70815113E+03</totfact>
</mgrwt>
</event>
<event>
 4    1  0.6086918E-004  0.2672170E+03  0.7818608E-02  0.1102883E+00
         -2   -1    0    0    0  501 -0.00000000000E+00  0.00000000000E+00  0.18058735013E+02  0.18058735193E+02  0.25500000000E-02 0. -1.
          2   -1    0    0  501    0  0.00000000000E+00 -0.00000000000E+00 -0.98850964022E+03  0.98850964022E+03  0.25500000000E-02 0.  1.
    5000001    1    1    2    0    0 -0.21331876895E+01 -0.10909757877E+03 -0.50000841622E+03  0.51753671220E+03  0.77000000000E+02 0.  0.
   -5000001    1    1    2    0    0  0.21331876895E+01  0.10909757877E+03 -0.47044248899E+03  0.48903166322E+03  0.77000000000E+02 0.  0.
<mgrwt>
<rscale>  0 0.26721702E+03</rscale>
<asrwt>0</asrwt>
<pdfrwt beam="1">  1        2 0.15207836E+00 0.26721702E+03</pdfrwt>
<pdfrwt beam="2">  1       -2 0.27782677E-02 0.26721702E+03</pdfrwt>
<totfact> 0.12628550E+04</totfact>
</mgrwt>
</event>
<event>
 4    1  0.6086918E-004  0.2152225E+03  0.7818608E-02  0.1137496E+00
         -2   -1    0    0    0  501 -0.00000000000E+00  0.00000000000E+00  0.11354248680E+02  0.11354248967E+02  0.25500000000E-02 0.  1.
          2   -1    0    0  501    0  0.00000000000E+00 -0.00000000000E+00 -0.10198985714E+04  0.10198985714E+04  0.25500000000E-02 0. -1.
    5000001    1    1    2    0    0 -0.49374117515E+02  0.27346136815E+02 -0.26634944767E+03  0.28294282630E+03  0.77000000000E+02 0.  0.
   -5000001    1    1    2    0    0  0.49374117515E+02 -0.27346136815E+02 -0.74219487506E+03  0.74830999408E+03  0.77000000000E+02 0.  0.
<mgrwt>
<rscale>  0 0.21522251E+03</rscale>
<asrwt>0</asrwt>
<pdfrwt beam="1">  1        2 0.15690740E+00 0.21522251E+03</pdfrwt>
<pdfrwt beam="2">  1       -2 0.17468083E-02 0.21522251E+03</pdfrwt>
<totfact> 0.23682996E+04</totfact>
</mgrwt>
</event>
<event>
 4    1  0.6086918E-004  0.2338379E+03  0.7818608E-02  0.1123967E+00
         -2   -1    0    0    0  501 -0.00000000000E+00  0.00000000000E+00  0.15817971494E+03  0.15817971496E+03  0.25500000000E-02 0. -1.
          2   -1    0    0  501    0  0.00000000000E+00 -0.00000000000E+00 -0.86420926613E+02  0.86420926651E+02  0.25500000000E-02 0.  1.
    5000001    1    1    2    0    0 -0.68220542277E+02 -0.40735475957E+02  0.75402263738E+02  0.13389519322E+03  0.77000000000E+02 0.  0.
   -5000001    1    1    2    0    0  0.68220542277E+02  0.40735475957E+02 -0.36434754153E+01  0.11070544839E+03  0.77000000000E+02 0.  0.
<mgrwt>
<rscale>  0 0.23383787E+03</rscale>
<asrwt>0</asrwt>
<pdfrwt beam="1">  1        2 0.13295527E-01 0.23383787E+03</pdfrwt>
<pdfrwt beam="2">  1       -2 0.24335341E-01 0.23383787E+03</pdfrwt>
<totfact> 0.66052289E+03</totfact>
</mgrwt>
</event>
<event>
 4    1  0.6086918E-004  0.1688848E+03  0.7818608E-02  0.1179016E+00
          2   -1    0    0  501    0  0.00000000000E+00  0.00000000000E+00  0.18239468169E+03  0.18239468171E+03  0.25500000000E-02 0.  1.
         -2   -1    0    0    0  501 -0.00000000000E+00 -0.00000000000E+00 -0.39093893222E+02  0.39093893305E+02  0.25500000000E-02 0. -1.
    5000001    1    1    2    0    0 -0.28579159938E+02  0.21395085123E+01  0.97221590498E+02  0.12728858369E+03  0.77000000000E+02 0.  0.
   -5000001    1    1    2    0    0  0.28579159938E+02 -0.21395085123E+01  0.46079197972E+02  0.94199991323E+02  0.77000000000E+02 0.  0.
<mgrwt>
<rscale>  0 0.16888479E+03</rscale>
<asrwt>0</asrwt>
<pdfrwt beam="1">  1        2 0.28060720E-01 0.16888479E+03</pdfrwt>
<pdfrwt beam="2">  1       -2 0.60144452E-02 0.16888479E+03</pdfrwt>
<totfact> 0.26356657E+04</totfact>
</mgrwt>
</event>
<event>
 4    1  0.6086918E-004  0.2560288E+03  0.7818608E-02  0.1109553E+00
         -2   -1    0    0    0  501 -0.00000000000E+00  0.00000000000E+00  0.60150104688E+01  0.60150110093E+01  0.25500000000E-02 0. -1.
          2   -1    0    0  501    0  0.00000000000E+00 -0.00000000000E+00 -0.27244657362E+04  0.27244657362E+04  0.25500000000E-02 0.  1.
    5000001    1    1    2    0    0  0.64484129440E+02  0.79086081526E+02 -0.12869884426E+04  0.12933217166E+04  0.77000000000E+02 0.  0.
   -5000001    1    1    2    0    0 -0.64484129440E+02 -0.79086081526E+02 -0.14314622832E+04  0.14371590306E+04  0.77000000000E+02 0.  0.
<mgrwt>
<rscale>  0 0.25602883E+03</rscale>
<asrwt>0</asrwt>
<pdfrwt beam="1">  1        2 0.41914759E+00 0.25602883E+03</pdfrwt>
<pdfrwt beam="2">  1       -2 0.92538844E-03 0.25602883E+03</pdfrwt>
<totfact> 0.71800166E+03</totfact>
</mgrwt>
</event>
<event>
 4    1  0.6086918E-004  0.2731456E+03  0.7818608E-02  0.1099493E+00
          2   -1    0    0  501    0  0.00000000000E+00  0.00000000000E+00  0.17308309356E+03  0.17308309357E+03  0.25500000000E-02 0.  1.
         -2   -1    0    0    0  501 -0.00000000000E+00 -0.00000000000E+00 -0.10776404414E+03  0.10776404417E+03  0.25500000000E-02 0. -1.
    5000001    1    1    2    0    0  0.50719166809E+02 -0.38141097507E+02  0.12854093906E+03  0.16272353921E+03  0.77000000000E+02 0.  0.
   -5000001    1    1    2    0    0 -0.50719166809E+02  0.38141097507E+02 -0.63221889645E+02  0.11812359854E+03  0.77000000000E+02 0.  0.
<mgrwt>
<rscale>  0 0.27314563E+03</rscale>
<asrwt>0</asrwt>
<pdfrwt beam="1">  1        2 0.26628168E-01 0.27314563E+03</pdfrwt>
<pdfrwt beam="2">  1       -2 0.16579084E-01 0.27314563E+03</pdfrwt>
<totfact> 0.57541066E+03</totfact>
</mgrwt>
</event>
<event>
 4    1  0.6086918E-004  0.2869532E+03  0.7818608E-02  0.1091951E+00
          2   -1    0    0  501    0  0.00000000000E+00  0.00000000000E+00  0.18328120063E+03  0.18328120065E+03  0.25500000000E-02 0.  1.
         -2   -1    0    0    0  501 -0.00000000000E+00 -0.00000000000E+00 -0.11231670099E+03  0.11231670102E+03  0.25500000000E-02 0. -1.
    5000001    1    1    2    0    0  0.93424081556E+02 -0.33389780255E+02 -0.35988011943E+02  0.13064100981E+03  0.77000000000E+02 0.  0.
   -5000001    1    1    2    0    0 -0.93424081556E+02  0.33389780255E+02  0.10695251158E+03  0.16495689186E+03  0.77000000000E+02 0.  0.
<mgrwt>
<rscale>  0 0.28695324E+03</rscale>
<asrwt>0</asrwt>
<pdfrwt beam="1">  1        2 0.28197108E-01 0.28695324E+03</pdfrwt>
<pdfrwt beam="2">  1       -2 0.17279492E-01 0.28695324E+03</pdfrwt>
<totfact> 0.50472862E+03</totfact>
</mgrwt>
</event>
<event>
 4    1  0.6086918E-004  0.1804537E+03  0.7818608E-02  0.1167365E+00
         -2   -1    0    0    0  501 -0.00000000000E+00  0.00000000000E+00  0.38933089514E+02  0.38933089597E+02  0.25500000000E-02 0. -1.
          2   -1    0    0  501    0  0.00000000000E+00 -0.00000000000E+00 -0.20909942126E+03  0.20909942127E+03  0.25500000000E-02 0.  1.
    5000001    1    1    2    0    0 -0.30595178631E+02  0.30810750117E+01 -0.36171105435E+02  0.90459420997E+02  0.77000000000E+02 0.  0.
   -5000001    1    1    2    0    0  0.30595178631E+02 -0.30810750117E+01 -0.13399522631E+03  0.15757308988E+03  0.77000000000E+02 0.  0.
<mgrwt>
<rscale>  0 0.18045372E+03</rscale>
<asrwt>0</asrwt>
<pdfrwt beam="1">  1        2 0.32169141E-01 0.18045372E+03</pdfrwt>
<pdfrwt beam="2">  1       -2 0.59897062E-02 0.18045372E+03</pdfrwt>
<totfact> 0.22989618E+04</totfact>
</mgrwt>
</event>
<event>
 4    1  0.6086918E-004  0.1662995E+03  0.7818608E-02  0.1181763E+00
          2   -1    0    0  501    0  0.00000000000E+00  0.00000000000E+00  0.18584369969E+03  0.18584369970E+03  0.25500000000E-02 0.  1.
         -2   -1    0    0    0  501 -0.00000000000E+00 -0.00000000000E+00 -0.37202673312E+02  0.37202673400E+02  0.25500000000E-02 0. -1.
    5000001    1    1    2    0    0 -0.33781647744E+01 -0.76960255050E+01  0.11487460461E+03  0.13854896460E+03  0.77000000000E+02 0.  0.
   -5000001    1    1    2    0    0  0.33781647744E+01  0.76960255050E+01  0.33766421760E+02  0.84497408506E+02  0.77000000000E+02 0.  0.
<mgrwt>
<rscale>  0 0.16629952E+03</rscale>
<asrwt>0</asrwt>
<pdfrwt beam="1">  1        2 0.28591339E-01 0.16629952E+03</pdfrwt>
<pdfrwt beam="2">  1       -2 0.57234882E-02 0.16629952E+03</pdfrwt>
<totfact> 0.27804584E+04</totfact>
</mgrwt>
</event>
<event>
 4    1  0.6086918E-004  0.2870146E+03  0.7818608E-02  0.1091918E+00
          2   -1    0    0  501    0  0.00000000000E+00  0.00000000000E+00  0.38920427576E+02  0.38920427659E+02  0.25500000000E-02 0.  1.
         -2   -1    0    0    0  501 -0.00000000000E+00 -0.00000000000E+00 -0.52913971722E+03  0.52913971723E+03  0.25500000000E-02 0. -1.
    5000001    1    1    2    0    0  0.57601448526E+02 -0.10638460181E+03 -0.25590196380E+03  0.29334352806E+03  0.77000000000E+02 0.  0.
   -5000001    1    1    2    0    0 -0.57601448526E+02  0.10638460181E+03 -0.23431732584E+03  0.27471661683E+03  0.77000000000E+02 0.  0.
<mgrwt>
<rscale>  0 0.28701459E+03</rscale>
<asrwt>0</asrwt>
<pdfrwt beam="1">  1        2 0.59877585E-02 0.28701459E+03</pdfrwt>
<pdfrwt beam="2">  1       -2 0.81406105E-01 0.28701459E+03</pdfrwt>
<totfact> 0.16974279E+03</totfact>
</mgrwt>
</event>
<event>
 4    1  0.6086918E-004  0.1889028E+03  0.7818608E-02  0.1159455E+00
         -2   -1    0    0    0  501 -0.00000000000E+00  0.00000000000E+00  0.94213043182E+01  0.94213046633E+01  0.25500000000E-02 0. -1.
          2   -1    0    0  501    0  0.00000000000E+00 -0.00000000000E+00 -0.94690370571E+03  0.94690370572E+03  0.25500000000E-02 0.  1.
    5000001    1    1    2    0    0 -0.54605524683E+01  0.38199117013E+02 -0.66501297292E+03  0.67056710650E+03  0.77000000000E+02 0.  0.
   -5000001    1    1    2    0    0  0.54605524683E+01 -0.38199117013E+02 -0.27246942848E+03  0.28575790388E+03  0.77000000000E+02 0.  0.
<mgrwt>
<rscale>  0 0.18890281E+03</rscale>
<asrwt>0</asrwt>
<pdfrwt beam="1">  1        2 0.14567742E+00 0.18890281E+03</pdfrwt>
<pdfrwt beam="2">  1       -2 0.14494322E-02 0.18890281E+03</pdfrwt>
<totfact> 0.34141508E+04</totfact>
</mgrwt>
</event>
<event>
 4    1  0.6086918E-004  0.3719546E+03  0.7818608E-02  0.1053948E+00
          2   -1    0    0  501    0  0.00000000000E+00  0.00000000000E+00  0.11835023614E+04  0.11835023614E+04  0.25500000000E-02 0.  1.
         -2   -1    0    0    0  501 -0.00000000000E+00 -0.00000000000E+00 -0.29224745200E+02  0.29224745311E+02  0.25500000000E-02 0. -1.
    5000001    1    1    2    0    0  0.12138652132E+03 -0.88744507100E+02  0.32357392938E+03  0.36501967464E+03  0.77000000000E+02 0.  0.
   -5000001    1    1    2    0    0 -0.12138652132E+03  0.88744507100E+02  0.83070368682E+03  0.84770743207E+03  0.77000000000E+02 0.  0.
<mgrwt>
<rscale>  0 0.37195459E+03</rscale>
<asrwt>0</asrwt>
<pdfrwt beam="1">  1        2 0.18207733E+00 0.37195459E+03</pdfrwt>
<pdfrwt beam="2">  1       -2 0.44961137E-02 0.37195459E+03</pdfrwt>
<totfact> 0.47196670E+03</totfact>
</mgrwt>
</event>
<event>
 4    1  0.6086918E-004  0.4304567E+03  0.7818608E-02  0.1033716E+00
         -2   -1    0    0    0  501 -0.00000000000E+00  0.00000000000E+00  0.81327880482E+02  0.81327880522E+02  0.25500000000E-02 0. -1.
          2   -1    0    0  501    0  0.00000000000E+00 -0.00000000000E+00 -0.56958625963E+03  0.56958625964E+03  0.25500000000E-02 0.  1.
    5000001    1    1    2    0    0  0.14463195772E+03 -0.95974122490E+02 -0.39733302713E+03  0.44037707686E+03  0.77000000000E+02 0.  0.
   -5000001    1    1    2    0    0 -0.14463195772E+03  0.95974122490E+02 -0.90925352027E+02  0.21053706330E+03  0.77000000000E+02 0.  0.
<mgrwt>
<rscale>  0 0.43045670E+03</rscale>
<asrwt>0</asrwt>
<pdfrwt beam="1">  1        2 0.87628653E-01 0.43045670E+03</pdfrwt>
<pdfrwt beam="2">  1       -2 0.12511982E-01 0.43045670E+03</pdfrwt>
<totfact> 0.24907085E+03</totfact>
</mgrwt>
</event>
<event>
 4    1  0.6086918E-004  0.2835327E+03  0.7818608E-02  0.1093775E+00
          2   -1    0    0  501    0  0.00000000000E+00  0.00000000000E+00  0.12930344425E+04  0.12930344425E+04  0.25500000000E-02 0.  1.
         -2   -1    0    0    0  501 -0.00000000000E+00 -0.00000000000E+00 -0.15543052533E+02  0.15543052742E+02  0.25500000000E-02 0. -1.
    5000001    1    1    2    0    0  0.11545226794E+02  0.11258957117E+03  0.46860596010E+03  0.48819079225E+03  0.77000000000E+02 0.  0.
   -5000001    1    1    2    0    0 -0.11545226794E+02 -0.11258957117E+03  0.80888542984E+03  0.82038670296E+03  0.77000000000E+02 0.  0.
<mgrwt>
<rscale>  0 0.28353273E+03</rscale>
<asrwt>0</asrwt>
<pdfrwt beam="1">  1        2 0.19892844E+00 0.28353273E+03</pdfrwt>
<pdfrwt beam="2">  1       -2 0.23912381E-02 0.28353273E+03</pdfrwt>
<totfact> 0.10510926E+04</totfact>
</mgrwt>
</event>
<event>
 4    1  0.6086918E-004  0.4293586E+03  0.7818608E-02  0.1034063E+00
          2   -1    0    0  501    0  0.00000000000E+00  0.00000000000E+00  0.22374973999E+04  0.22374973999E+04  0.25500000000E-02 0. -1.
         -2   -1    0    0    0  501 -0.00000000000E+00 -0.00000000000E+00 -0.20597654069E+02  0.20597654227E+02  0.25500000000E-02 0.  1.
    5000001    1    1    2    0    0 -0.12671474528E+03  0.11022148335E+03  0.53346447100E+03  0.56455180797E+03  0.77000000000E+02 0.  0.
   -5000001    1    1    2    0    0  0.12671474528E+03 -0.11022148335E+03  0.16834352748E+04  0.16935432461E+04  0.77000000000E+02 0.  0.
<mgrwt>
<rscale>  0 0.42935858E+03</rscale>
<asrwt>0</asrwt>
<pdfrwt beam="1">  1        2 0.34423007E+00 0.42935858E+03</pdfrwt>
<pdfrwt beam="2">  1       -2 0.31688727E-02 0.42935858E+03</pdfrwt>
<totfact> 0.21463222E+03</totfact>
</mgrwt>
</event>
<event>
 4    1  0.6086918E-004  0.1878253E+03  0.7818608E-02  0.1160438E+00
          2   -1    0    0  501    0  0.00000000000E+00  0.00000000000E+00  0.10515393696E+02  0.10515394005E+02  0.25500000000E-02 0.  1.
         -2   -1    0    0    0  501 -0.00000000000E+00 -0.00000000000E+00 -0.83873051515E+03  0.83873051516E+03  0.25500000000E-02 0. -1.
    5000001    1    1    2    0    0  0.52858180689E+02 -0.36377560416E+00 -0.36969990533E+03  0.38131501360E+03  0.77000000000E+02 0.  0.
   -5000001    1    1    2    0    0 -0.52858180689E+02  0.36377560416E+00 -0.45851521613E+03  0.46793089556E+03  0.77000000000E+02 0.  0.
<mgrwt>
<rscale>  0 0.18782526E+03</rscale>
<asrwt>0</asrwt>
<pdfrwt beam="1">  1        2 0.16177536E-02 0.18782526E+03</pdfrwt>
<pdfrwt beam="2">  1       -2 0.12903541E+00 0.18782526E+03</pdfrwt>
<totfact> 0.33325008E+03</totfact>
</mgrwt>
</event>
<event>
 4    1  0.6086918E-004  0.2090637E+03  0.7818608E-02  0.1142310E+00
          2   -1    0    0  501    0  0.00000000000E+00  0.00000000000E+00  0.64508699430E+03  0.64508699431E+03  0.25500000000E-02 0.  1.
         -2   -1    0    0    0  501 -0.00000000000E+00 -0.00000000000E+00 -0.16938662968E+02  0.16938663160E+02  0.25500000000E-02 0. -1.
    5000001    1    1    2    0    0  0.43039406860E+02  0.54852408900E+02  0.35110250927E+03  0.36614634959E+03  0.77000000000E+02 0.  0.
   -5000001    1    1    2    0    0 -0.43039406860E+02 -0.54852408900E+02  0.27704582207E+03  0.29587930788E+03  0.77000000000E+02 0.  0.
<mgrwt>
<rscale>  0 0.20906373E+03</rscale>
<asrwt>0</asrwt>
<pdfrwt beam="1">  1        2 0.99244154E-01 0.20906373E+03</pdfrwt>
<pdfrwt beam="2">  1       -2 0.26059481E-02 0.20906373E+03</pdfrwt>
<totfact> 0.23610684E+04</totfact>
</mgrwt>
</event>
<event>
 4    1  0.6086918E-004  0.1948505E+03  0.7818608E-02  0.1154158E+00
         -2   -1    0    0    0  501 -0.00000000000E+00  0.00000000000E+00  0.58882234360E+03  0.58882234360E+03  0.25500000000E-02 0. -1.
          2   -1    0    0  501    0  0.00000000000E+00 -0.00000000000E+00 -0.16119771418E+02  0.16119771620E+02  0.25500000000E-02 0.  1.
    5000001    1    1    2    0    0 -0.42546260082E+02 -0.38777937820E+02  0.23738351683E+03  0.25611295705E+03  0.77000000000E+02 0.  0.
   -5000001    1    1    2    0    0  0.42546260082E+02  0.38777937820E+02  0.33531905535E+03  0.34882915817E+03  0.77000000000E+02 0.  0.
<mgrwt>
<rscale>  0 0.19485052E+03</rscale>
<asrwt>0</asrwt>
<pdfrwt beam="1">  1        2 0.24799648E-02 0.19485052E+03</pdfrwt>
<pdfrwt beam="2">  1       -2 0.90588053E-01 0.19485052E+03</pdfrwt>
<totfact> 0.42769692E+03</totfact>
</mgrwt>
</event>
<event>
 4    1  0.6086918E-004  0.2709699E+03  0.7818608E-02  0.1100726E+00
         -2   -1    0    0    0  501 -0.00000000000E+00  0.00000000000E+00  0.14618109006E+02  0.14618109229E+02  0.25500000000E-02 0. -1.
          2   -1    0    0  501    0  0.00000000000E+00 -0.00000000000E+00 -0.12557148950E+04  0.12557148950E+04  0.25500000000E-02 0.  1.
    5000001    1    1    2    0    0 -0.10353191006E+03  0.98319852862E+00 -0.42683560713E+03  0.44591194041E+03  0.77000000000E+02 0.  0.
   -5000001    1    1    2    0    0  0.10353191006E+03 -0.98319852862E+00 -0.81426117889E+03  0.82442106386E+03  0.77000000000E+02 0.  0.
<mgrwt>
<rscale>  0 0.27096994E+03</rscale>
<asrwt>0</asrwt>
<pdfrwt beam="1">  1        2 0.19318682E+00 0.27096994E+03</pdfrwt>
<pdfrwt beam="2">  1       -2 0.22489409E-02 0.27096994E+03</pdfrwt>
<totfact> 0.12058777E+04</totfact>
</mgrwt>
</event>
<event>
 4    1  0.6086918E-004  0.2304924E+03  0.7818608E-02  0.1126294E+00
          2   -1    0    0  501    0  0.00000000000E+00  0.00000000000E+00  0.49619790510E+02  0.49619790575E+02  0.25500000000E-02 0.  1.
         -2   -1    0    0    0  501 -0.00000000000E+00 -0.00000000000E+00 -0.26766916216E+03  0.26766916217E+03  0.25500000000E-02 0. -1.
    5000001    1    1    2    0    0 -0.27391920778E+02  0.77417589985E+02 -0.14299243307E+03  0.18198801191E+03  0.77000000000E+02 0.  0.
   -5000001    1    1    2    0    0  0.27391920778E+02 -0.77417589985E+02 -0.75056938580E+02  0.13530094084E+03  0.77000000000E+02 0.  0.
<mgrwt>
<rscale>  0 0.23049241E+03</rscale>
<asrwt>0</asrwt>
<pdfrwt beam="1">  1        2 0.76338141E-02 0.23049241E+03</pdfrwt>
<pdfrwt beam="2">  1       -2 0.41179870E-01 0.23049241E+03</pdfrwt>
<totfact> 0.50075898E+03</totfact>
</mgrwt>
</event>
<event>
 4    1  0.6086918E-004  0.1629224E+03  0.7818608E-02  0.1185436E+00
          2   -1    0    0  501    0  0.00000000000E+00  0.00000000000E+00  0.24222272302E+03  0.24222272303E+03  0.25500000000E-02 0.  1.
         -2   -1    0    0    0  501 -0.00000000000E+00 -0.00000000000E+00 -0.27395960036E+02  0.27395960154E+02  0.25500000000E-02 0. -1.
    5000001    1    1    2    0    0  0.18030513859E+02 -0.15231348057E+02  0.12767012531E+03  0.15094950908E+03  0.77000000000E+02 0.  0.
   -5000001    1    1    2    0    0 -0.18030513859E+02  0.15231348057E+02  0.87156637674E+02  0.11866917411E+03  0.77000000000E+02 0.  0.
<mgrwt>
<rscale>  0 0.16292236E+03</rscale>
<asrwt>0</asrwt>
<pdfrwt beam="1">  1        2 0.37265033E-01 0.16292236E+03</pdfrwt>
<pdfrwt beam="2">  1       -2 0.42147632E-02 0.16292236E+03</pdfrwt>
<totfact> 0.33035908E+04</totfact>
</mgrwt>
</event>
<event>
 4    1  0.6086918E-004  0.2292484E+03  0.7818608E-02  0.1127170E+00
         -2   -1    0    0    0  501 -0.00000000000E+00  0.00000000000E+00  0.92837114094E+01  0.92837117597E+01  0.25500000000E-02 0. -1.
          2   -1    0    0  501    0  0.00000000000E+00 -0.00000000000E+00 -0.14152428243E+04  0.14152428243E+04  0.25500000000E-02 0.  1.
    5000001    1    1    2    0    0 -0.46856207415E+02 -0.64367377514E+02 -0.51958603862E+03  0.53126011990E+03  0.77000000000E+02 0.  0.
   -5000001    1    1    2    0    0  0.46856207415E+02  0.64367377514E+02 -0.88637307429E+03  0.89326641618E+03  0.77000000000E+02 0.  0.
<mgrwt>
<rscale>  0 0.22924839E+03</rscale>
<asrwt>0</asrwt>
<pdfrwt beam="1">  1        2 0.21772949E+00 0.22924839E+03</pdfrwt>
<pdfrwt beam="2">  1       -2 0.14282644E-02 0.22924839E+03</pdfrwt>
<totfact> 0.19062164E+04</totfact>
</mgrwt>
</event>
<event>
 4    1  0.6086918E-004  0.1834474E+03  0.7818608E-02  0.1164508E+00
         -2   -1    0    0    0  501 -0.00000000000E+00  0.00000000000E+00  0.46326585229E+01  0.46326592247E+01  0.25500000000E-02 0. -1.
          2   -1    0    0  501    0  0.00000000000E+00 -0.00000000000E+00 -0.18160707228E+04  0.18160707228E+04  0.25500000000E-02 0.  1.
    5000001    1    1    2    0    0  0.93080956962E+01 -0.48704078156E+02 -0.95584563072E+03  0.96022320199E+03  0.77000000000E+02 0.  0.
   -5000001    1    1    2    0    0 -0.93080956962E+01  0.48704078156E+02 -0.85559243356E+03  0.86048018004E+03  0.77000000000E+02 0.  0.
<mgrwt>
<rscale>  0 0.18344739E+03</rscale>
<asrwt>0</asrwt>
<pdfrwt beam="1">  1        2 0.27939493E+00 0.18344739E+03</pdfrwt>
<pdfrwt beam="2">  1       -2 0.71271820E-03 0.18344739E+03</pdfrwt>
<totfact> 0.31681206E+04</totfact>
</mgrwt>
</event>
<event>
 4    1  0.6086918E-004  0.2312026E+03  0.7818608E-02  0.1125796E+00
          2   -1    0    0  501    0  0.00000000000E+00  0.00000000000E+00  0.53219409505E+02  0.53219409566E+02  0.25500000000E-02 0. -1.
         -2   -1    0    0    0  501 -0.00000000000E+00 -0.00000000000E+00 -0.25110511350E+03  0.25110511351E+03  0.25500000000E-02 0.  1.
    5000001    1    1    2    0    0 -0.25103233944E+02 -0.79812123138E+02 -0.71505114523E+02  0.13432099150E+03  0.77000000000E+02 0.  0.
   -5000001    1    1    2    0    0  0.25103233944E+02  0.79812123138E+02 -0.12638058947E+03  0.17000353158E+03  0.77000000000E+02 0.  0.
<mgrwt>
<rscale>  0 0.23120265E+03</rscale>
<asrwt>0</asrwt>
<pdfrwt beam="1">  1        2 0.81876016E-02 0.23120265E+03</pdfrwt>
<pdfrwt beam="2">  1       -2 0.38631555E-01 0.23120265E+03</pdfrwt>
<totfact> 0.51753651E+03</totfact>
</mgrwt>
</event>
<event>
 4    1  0.6086918E-004  0.1634754E+03  0.7818608E-02  0.1184828E+00
          2   -1    0    0  501    0  0.00000000000E+00  0.00000000000E+00  0.15190005844E+03  0.15190005846E+03  0.25500000000E-02 0.  1.
         -2   -1    0    0    0  501 -0.00000000000E+00 -0.00000000000E+00 -0.43983210230E+02  0.43983210304E+02  0.25500000000E-02 0. -1.
    5000001    1    1    2    0    0 -0.37991121017E+01 -0.27140038693E+02  0.55178786616E+02  0.98613961716E+02  0.77000000000E+02 0.  0.
   -5000001    1    1    2    0    0  0.37991121017E+01  0.27140038693E+02  0.52738061594E+02  0.97269307048E+02  0.77000000000E+02 0.  0.
<mgrwt>
<rscale>  0 0.16347541E+03</rscale>
<asrwt>0</asrwt>
<pdfrwt beam="1">  1        2 0.23369239E-01 0.16347541E+03</pdfrwt>
<pdfrwt beam="2">  1       -2 0.67666479E-02 0.16347541E+03</pdfrwt>
<totfact> 0.26866719E+04</totfact>
</mgrwt>
</event>
<event>
 4    1  0.6086918E-004  0.2577150E+03  0.7818608E-02  0.1108524E+00
          2   -1    0    0  501    0  0.00000000000E+00  0.00000000000E+00  0.17840971234E+04  0.17840971234E+04  0.25500000000E-02 0.  1.
         -2   -1    0    0    0  501 -0.00000000000E+00 -0.00000000000E+00 -0.93068092650E+01  0.93068096143E+01  0.25500000000E-02 0. -1.
    5000001    1    1    2    0    0 -0.47101057550E+02 -0.70450158465E+02  0.47608453382E+03  0.48966030857E+03  0.77000000000E+02 0.  0.
   -5000001    1    1    2    0    0  0.47101057550E+02  0.70450158465E+02  0.12987057803E+04  0.13037436244E+04  0.77000000000E+02 0.  0.
<mgrwt>
<rscale>  0 0.25771497E+03</rscale>
<asrwt>0</asrwt>
<pdfrwt beam="1">  1        2 0.27447644E+00 0.25771497E+03</pdfrwt>
<pdfrwt beam="2">  1       -2 0.14318170E-02 0.25771497E+03</pdfrwt>
<totfact> 0.12165825E+04</totfact>
</mgrwt>
</event>
<event>
 4    1  0.6086918E-004  0.2437823E+03  0.7818608E-02  0.1117298E+00
          2   -1    0    0  501    0  0.00000000000E+00  0.00000000000E+00  0.68036264980E+03  0.68036264980E+03  0.25500000000E-02 0.  1.
         -2   -1    0    0    0  501 -0.00000000000E+00 -0.00000000000E+00 -0.21837554765E+02  0.21837554914E+02  0.25500000000E-02 0. -1.
    5000001    1    1    2    0    0  0.72371279505E+02  0.46777757462E+02  0.21760340631E+03  0.24638588256E+03  0.77000000000E+02 0.  0.
   -5000001    1    1    2    0    0 -0.72371279505E+02 -0.46777757462E+02  0.44092168872E+03  0.45581432215E+03  0.77000000000E+02 0.  0.
<mgrwt>
<rscale>  0 0.24378233E+03</rscale>
<asrwt>0</asrwt>
<pdfrwt beam="1">  1        2 0.10467118E+00 0.24378233E+03</pdfrwt>
<pdfrwt beam="2">  1       -2 0.33596237E-02 0.24378233E+03</pdfrwt>
<totfact> 0.15345387E+04</totfact>
</mgrwt>
</event>
<event>
 4    1  0.6086918E-004  0.6531976E+03  0.7818608E-02  0.9800797E-01
          2   -1    0    0  501    0  0.00000000000E+00  0.00000000000E+00  0.72994022359E+03  0.72994022360E+03  0.25500000000E-02 0.  1.
         -2   -1    0    0    0  501 -0.00000000000E+00 -0.00000000000E+00 -0.14613085905E+03  0.14613085907E+03  0.25500000000E-02 0. -1.
    5000001    1    1    2    0    0 -0.61488634731E+02  0.31131820887E+03  0.30016289989E+03  0.44353877604E+03  0.77000000000E+02 0.  0.
   -5000001    1    1    2    0    0  0.61488634731E+02 -0.31131820887E+03  0.28364646465E+03  0.43253230663E+03  0.77000000000E+02 0.  0.
<mgrwt>
<rscale>  0 0.65319765E+03</rscale>
<asrwt>0</asrwt>
<pdfrwt beam="1">  1        2 0.11229850E+00 0.65319765E+03</pdfrwt>
<pdfrwt beam="2">  1       -2 0.22481670E-01 0.65319765E+03</pdfrwt>
<totfact> 0.67764281E+02</totfact>
</mgrwt>
</event>
<event>
 4    1  0.6086918E-004  0.3513178E+03  0.7818608E-02  0.1062075E+00
         -2   -1    0    0    0  501 -0.00000000000E+00  0.00000000000E+00  0.13013293557E+03  0.13013293559E+03  0.25500000000E-02 0. -1.
          2   -1    0    0  501    0  0.00000000000E+00 -0.00000000000E+00 -0.23711182041E+03  0.23711182042E+03  0.25500000000E-02 0.  1.
    5000001    1    1    2    0    0 -0.85892001257E+02 -0.62474908714E+02 -0.17560363584E+03  0.21919440462E+03  0.77000000000E+02 0.  0.
   -5000001    1    1    2    0    0  0.85892001257E+02  0.62474908714E+02  0.68624750993E+02  0.14805035139E+03  0.77000000000E+02 0.  0.
<mgrwt>
<rscale>  0 0.35131785E+03</rscale>
<asrwt>0</asrwt>
<pdfrwt beam="1">  1        2 0.36478742E-01 0.35131785E+03</pdfrwt>
<pdfrwt beam="2">  1       -2 0.20020452E-01 0.35131785E+03</pdfrwt>
<totfact> 0.29771693E+03</totfact>
</mgrwt>
</event>
<event>
 4    1  0.6086918E-004  0.4438110E+03  0.7818608E-02  0.1029584E+00
         -2   -1    0    0    0  501 -0.00000000000E+00  0.00000000000E+00  0.44476220635E+03  0.44476220636E+03  0.25500000000E-02 0. -1.
          2   -1    0    0  501    0  0.00000000000E+00 -0.00000000000E+00 -0.11071544930E+03  0.11071544933E+03  0.25500000000E-02 0.  1.
    5000001    1    1    2    0    0  0.54989508246E+02  0.19846767449E+03  0.20456712457E+03  0.30031645358E+03  0.77000000000E+02 0.  0.
   -5000001    1    1    2    0    0 -0.54989508246E+02 -0.19846767449E+03  0.12947963248E+03  0.25516120211E+03  0.77000000000E+02 0.  0.
<mgrwt>
<rscale>  0 0.44381098E+03</rscale>
<asrwt>0</asrwt>
<pdfrwt beam="1">  1        2 0.17033146E-01 0.44381098E+03</pdfrwt>
<pdfrwt beam="2">  1       -2 0.68424955E-01 0.44381098E+03</pdfrwt>
<totfact> 0.67546911E+02</totfact>
</mgrwt>
</event>
<event>
 4    1  0.6086918E-004  0.1735739E+03  0.7818608E-02  0.1174171E+00
         -2   -1    0    0    0  501 -0.00000000000E+00  0.00000000000E+00  0.21222479845E+01  0.21222495165E+01  0.25500000000E-02 0. -1.
          2   -1    0    0  501    0  0.00000000000E+00 -0.00000000000E+00 -0.35490527677E+04  0.35490527677E+04  0.25500000000E-02 0.  1.
    5000001    1    1    2    0    0 -0.33564320007E+02 -0.61404178700E+01 -0.22019878803E+04  0.22035979427E+04  0.77000000000E+02 0.  0.
   -5000001    1    1    2    0    0  0.33564320007E+02  0.61404178700E+01 -0.13449426394E+04  0.13475770745E+04  0.77000000000E+02 0.  0.
<mgrwt>
<rscale>  0 0.17357388E+03</rscale>
<asrwt>0</asrwt>
<pdfrwt beam="1">  1        2 0.54600337E+00 0.17357388E+03</pdfrwt>
<pdfrwt beam="2">  1       -2 0.32650265E-03 0.17357388E+03</pdfrwt>
<totfact> 0.10096714E+04</totfact>
</mgrwt>
</event>
<event>
 4    1  0.6086918E-004  0.5313906E+03  0.7818608E-02  0.1005895E+00
          2   -1    0    0  501    0  0.00000000000E+00  0.00000000000E+00  0.23978536481E+04  0.23978536481E+04  0.25500000000E-02 0.  1.
         -2   -1    0    0    0  501 -0.00000000000E+00 -0.00000000000E+00 -0.29440497641E+02  0.29440497751E+02  0.25500000000E-02 0. -1.
    5000001    1    1    2    0    0  0.21970830610E+02  0.25307195658E+03  0.11307666145E+04  0.11615034521E+04  0.77000000000E+02 0.  0.
   -5000001    1    1    2    0    0 -0.21970830610E+02 -0.25307195658E+03  0.12376465359E+04  0.12657906938E+04  0.77000000000E+02 0.  0.
<mgrwt>
<rscale>  0 0.53139065E+03</rscale>
<asrwt>0</asrwt>
<pdfrwt beam="1">  1        2 0.36890066E+00 0.53139065E+03</pdfrwt>
<pdfrwt beam="2">  1       -2 0.45293062E-02 0.53139065E+03</pdfrwt>
<totfact> 0.10091912E+03</totfact>
</mgrwt>
</event>
<event>
 4    1  0.6086918E-004  0.6354841E+03  0.7818608E-02  0.9834405E-01
         -2   -1    0    0    0  501 -0.00000000000E+00  0.00000000000E+00  0.19135417988E+03  0.19135417990E+03  0.25500000000E-02 0. -1.
          2   -1    0    0  501    0  0.00000000000E+00 -0.00000000000E+00 -0.52760807084E+03  0.52760807085E+03  0.25500000000E-02 0.  1.
    5000001    1    1    2    0    0  0.24721589817E+02  0.25234542050E+03  0.30238000017E+02  0.26670715193E+03  0.77000000000E+02 0.  0.
   -5000001    1    1    2    0    0 -0.24721589817E+02 -0.25234542050E+03 -0.36649189098E+03  0.45225509881E+03  0.77000000000E+02 0.  0.
<mgrwt>
<rscale>  0 0.63548410E+03</rscale>
<asrwt>0</asrwt>
<pdfrwt beam="1">  1        2 0.81170472E-01 0.63548410E+03</pdfrwt>
<pdfrwt beam="2">  1       -2 0.29439105E-01 0.63548410E+03</pdfrwt>
<totfact> 0.61771901E+02</totfact>
</mgrwt>
</event>
<event>
 4    1  0.6086918E-004  0.1901132E+03  0.7818608E-02  0.1158359E+00
         -2   -1    0    0    0  501 -0.00000000000E+00  0.00000000000E+00  0.45768879864E+01  0.45768886967E+01  0.25500000000E-02 0. -1.
          2   -1    0    0  501    0  0.00000000000E+00 -0.00000000000E+00 -0.19742144774E+04  0.19742144774E+04  0.25500000000E-02 0.  1.
    5000001    1    1    2    0    0  0.48631541197E+02  0.25920852512E+02 -0.10718040224E+04  0.10759785220E+04  0.77000000000E+02 0.  0.
   -5000001    1    1    2    0    0 -0.48631541197E+02 -0.25920852512E+02 -0.89783356702E+03  0.90281284410E+03  0.77000000000E+02 0.  0.
<mgrwt>
<rscale>  0 0.19011322E+03</rscale>
<asrwt>0</asrwt>
<pdfrwt beam="1">  1        2 0.30372463E+00 0.19011322E+03</pdfrwt>
<pdfrwt beam="2">  1       -2 0.70413824E-03 0.19011322E+03</pdfrwt>
<totfact> 0.26746442E+04</totfact>
</mgrwt>
</event>
<event>
 4    1  0.6086918E-004  0.5956059E+03  0.7818608E-02  0.9914564E-01
         -2   -1    0    0    0  501 -0.00000000000E+00  0.00000000000E+00  0.36431996729E+02  0.36431996819E+02  0.25500000000E-02 0. -1.
          2   -1    0    0  501    0  0.00000000000E+00 -0.00000000000E+00 -0.24343054754E+04  0.24343054754E+04  0.25500000000E-02 0.  1.
    5000001    1    1    2    0    0 -0.85119834592E+02 -0.26073961540E+03 -0.15588358141E+04  0.15846541037E+04  0.77000000000E+02 0.  0.
   -5000001    1    1    2    0    0  0.85119834592E+02  0.26073961540E+03 -0.83903766462E+03  0.88608336850E+03  0.77000000000E+02 0.  0.
<mgrwt>
<rscale>  0 0.59560594E+03</rscale>
<asrwt>0</asrwt>
<pdfrwt beam="1">  1        2 0.37450841E+00 0.59560594E+03</pdfrwt>
<pdfrwt beam="2">  1       -2 0.56049245E-02 0.59560594E+03</pdfrwt>
<totfact> 0.68843872E+02</totfact>
</mgrwt>
</event>
<event>
 4    1  0.6086918E-004  0.1964665E+03  0.7818608E-02  0.1152755E+00
          2   -1    0    0  501    0  0.00000000000E+00  0.00000000000E+00  0.39148482622E+03  0.39148482623E+03  0.25500000000E-02 0.  1.
         -2   -1    0    0    0  501 -0.00000000000E+00 -0.00000000000E+00 -0.24649160871E+02  0.24649161003E+02  0.25500000000E-02 0. -1.
    5000001    1    1    2    0    0  0.31681657902E+02 -0.49759566563E+02  0.15053412905E+03  0.17907893768E+03  0.77000000000E+02 0.  0.
   -5000001    1    1    2    0    0 -0.31681657902E+02  0.49759566563E+02  0.21630153629E+03  0.23705504955E+03  0.77000000000E+02 0.  0.
<mgrwt>
<rscale>  0 0.19646651E+03</rscale>
<asrwt>0</asrwt>
<pdfrwt beam="1">  1        2 0.60228432E-01 0.19646651E+03</pdfrwt>
<pdfrwt beam="2">  1       -2 0.37921788E-02 0.19646651E+03</pdfrwt>
<totfact> 0.23531658E+04</totfact>
</mgrwt>
</event>
<event>
 4    1  0.6086918E-004  0.1979798E+03  0.7818608E-02  0.1151455E+00
          2   -1    0    0  501    0  0.00000000000E+00  0.00000000000E+00  0.50355282787E+03  0.50355282788E+03  0.25500000000E-02 0.  1.
         -2   -1    0    0    0  501 -0.00000000000E+00 -0.00000000000E+00 -0.19459727433E+02  0.19459727600E+02  0.25500000000E-02 0. -1.
    5000001    1    1    2    0    0  0.13343783948E+02  0.43549569348E+02  0.13011066855E+03  0.15789999250E+03  0.77000000000E+02 0.  0.
   -5000001    1    1    2    0    0 -0.13343783948E+02 -0.43549569348E+02  0.35398243189E+03  0.36511256298E+03  0.77000000000E+02 0.  0.
<mgrwt>
<rscale>  0 0.19797981E+03</rscale>
<asrwt>0</asrwt>
<pdfrwt beam="1">  1        2 0.77469654E-01 0.19797981E+03</pdfrwt>
<pdfrwt beam="2">  1       -2 0.29938047E-02 0.19797981E+03</pdfrwt>
<totfact> 0.25414585E+04</totfact>
</mgrwt>
</event>
<event>
 4    1  0.6086918E-004  0.3803195E+03  0.7818608E-02  0.1050816E+00
         -2   -1    0    0    0  501 -0.00000000000E+00  0.00000000000E+00  0.88000667508E+02  0.88000667545E+02  0.25500000000E-02 0. -1.
          2   -1    0    0  501    0  0.00000000000E+00 -0.00000000000E+00 -0.41091431072E+03  0.41091431072E+03  0.25500000000E-02 0.  1.
    5000001    1    1    2    0    0  0.24727596166E+02  0.16953020582E+03 -0.20036735464E+03  0.27464162377E+03  0.77000000000E+02 0.  0.
   -5000001    1    1    2    0    0 -0.24727596166E+02 -0.16953020582E+03 -0.12254628857E+03  0.22427335450E+03  0.77000000000E+02 0.  0.
<mgrwt>
<rscale>  0 0.38031952E+03</rscale>
<asrwt>0</asrwt>
<pdfrwt beam="1">  1        2 0.63217585E-01 0.38031952E+03</pdfrwt>
<pdfrwt beam="2">  1       -2 0.13538564E-01 0.38031952E+03</pdfrwt>
<totfact> 0.31611925E+03</totfact>
</mgrwt>
</event>
<event>
 4    1  0.6086918E-004  0.1951950E+03  0.7818608E-02  0.1153858E+00
          2   -1    0    0  501    0  0.00000000000E+00  0.00000000000E+00  0.39124044151E+03  0.39124044152E+03  0.25500000000E-02 0.  1.
         -2   -1    0    0    0  501 -0.00000000000E+00 -0.00000000000E+00 -0.24346327325E+02  0.24346327458E+02  0.25500000000E-02 0. -1.
    5000001    1    1    2    0    0  0.48823677162E+02 -0.28491224394E+02  0.22606955099E+03  0.24542196969E+03  0.77000000000E+02 0.  0.
   -5000001    1    1    2    0    0 -0.48823677162E+02  0.28491224394E+02  0.14082456319E+03  0.17016479929E+03  0.77000000000E+02 0.  0.
<mgrwt>
<rscale>  0 0.19519496E+03</rscale>
<asrwt>0</asrwt>
<pdfrwt beam="1">  1        2 0.60190833E-01 0.19519496E+03</pdfrwt>
<pdfrwt beam="2">  1       -2 0.37455891E-02 0.19519496E+03</pdfrwt>
<totfact> 0.23974203E+04</totfact>
</mgrwt>
</event>
<event>
 4    1  0.6086918E-004  0.1976919E+03  0.7818608E-02  0.1151701E+00
         -2   -1    0    0    0  501 -0.00000000000E+00  0.00000000000E+00  0.10269118576E+02  0.10269118892E+02  0.25500000000E-02 0. -1.
          2   -1    0    0  501    0  0.00000000000E+00 -0.00000000000E+00 -0.95144725050E+03  0.95144725050E+03  0.25500000000E-02 0.  1.
    5000001    1    1    2    0    0 -0.59774229243E+02 -0.16309940966E+02 -0.46281748089E+03  0.47325256816E+03  0.77000000000E+02 0.  0.
   -5000001    1    1    2    0    0  0.59774229243E+02  0.16309940966E+02 -0.47836065103E+03  0.48846380123E+03  0.77000000000E+02 0.  0.
<mgrwt>
<rscale>  0 0.19769193E+03</rscale>
<asrwt>0</asrwt>
<pdfrwt beam="1">  1        2 0.14637643E+00 0.19769193E+03</pdfrwt>
<pdfrwt beam="2">  1       -2 0.15798652E-02 0.19769193E+03</pdfrwt>
<totfact> 0.30027398E+04</totfact>
</mgrwt>
</event>
<event>
 4    1  0.6086918E-004  0.3216023E+03  0.7818608E-02  0.1074914E+00
          2   -1    0    0  501    0  0.00000000000E+00  0.00000000000E+00  0.56658977134E+02  0.56658977192E+02  0.25500000000E-02 0.  1.
         -2   -1    0    0    0  501 -0.00000000000E+00 -0.00000000000E+00 -0.45636197954E+03  0.45636197955E+03  0.25500000000E-02 0. -1.
    5000001    1    1    2    0    0  0.40177571008E+02  0.10306097795E+03 -0.33975910495E+03  0.36551477643E+03  0.77000000000E+02 0.  0.
   -5000001    1    1    2    0    0 -0.40177571008E+02 -0.10306097795E+03 -0.59943897457E+02  0.14750618031E+03  0.77000000000E+02 0.  0.
<mgrwt>
<rscale>  0 0.32160226E+03</rscale>
<asrwt>0</asrwt>
<pdfrwt beam="1">  1        2 0.87167660E-02 0.32160226E+03</pdfrwt>
<pdfrwt beam="2">  1       -2 0.70209533E-01 0.32160226E+03</pdfrwt>
<totfact> 0.14493663E+03</totfact>
</mgrwt>
</event>
<event>
 4    1  0.6086918E-004  0.3764992E+03  0.7818608E-02  0.1052235E+00
         -2   -1    0    0    0  501 -0.00000000000E+00  0.00000000000E+00  0.31897759739E+02  0.31897759841E+02  0.25500000000E-02 0. -1.
          2   -1    0    0  501    0  0.00000000000E+00 -0.00000000000E+00 -0.11109846288E+04  0.11109846288E+04  0.25500000000E-02 0.  1.
    5000001    1    1    2    0    0  0.11361913581E+03 -0.12636594312E+03 -0.46327550033E+03  0.49943052451E+03  0.77000000000E+02 0.  0.
   -5000001    1    1    2    0    0 -0.11361913581E+03  0.12636594312E+03 -0.61581136875E+03  0.64345186416E+03  0.77000000000E+02 0.  0.
<mgrwt>
<rscale>  0 0.37649925E+03</rscale>
<asrwt>0</asrwt>
<pdfrwt beam="1">  1        2 0.17092068E+00 0.37649925E+03</pdfrwt>
<pdfrwt beam="2">  1       -2 0.49073485E-02 0.37649925E+03</pdfrwt>
<totfact> 0.45532410E+03</totfact>
</mgrwt>
</event>
<event>
 4    1  0.6086918E-004  0.2389342E+03  0.7818608E-02  0.1120505E+00
         -2   -1    0    0    0  501 -0.00000000000E+00  0.00000000000E+00  0.92034272834E+01  0.92034276367E+01  0.25500000000E-02 0. -1.
          2   -1    0    0  501    0  0.00000000000E+00 -0.00000000000E+00 -0.15507691166E+04  0.15507691166E+04  0.25500000000E-02 0.  1.
    5000001    1    1    2    0    0  0.51583337852E+02 -0.72827736738E+02 -0.64373430806E+03  0.65443684138E+03  0.77000000000E+02 0.  0.
   -5000001    1    1    2    0    0 -0.51583337852E+02  0.72827736738E+02 -0.89783138125E+03  0.90553570285E+03  0.77000000000E+02 0.  0.
<mgrwt>
<rscale>  0 0.23893423E+03</rscale>
<asrwt>0</asrwt>
<pdfrwt beam="1">  1        2 0.23857966E+00 0.23893423E+03</pdfrwt>
<pdfrwt beam="2">  1       -2 0.14159131E-02 0.23893423E+03</pdfrwt>
<totfact> 0.16369429E+04</totfact>
</mgrwt>
</event>
<event>
 4    1  0.6086918E-004  0.2544529E+03  0.7818608E-02  0.1110523E+00
         -2   -1    0    0    0  501 -0.00000000000E+00  0.00000000000E+00  0.35166279597E+03  0.35166279598E+03  0.25500000000E-02 0. -1.
          2   -1    0    0  501    0  0.00000000000E+00 -0.00000000000E+00 -0.46028679174E+02  0.46028679244E+02  0.25500000000E-02 0.  1.
    5000001    1    1    2    0    0  0.83617046284E+02  0.17836763676E+02  0.67962713929E+02  0.13363342042E+03  0.77000000000E+02 0.  0.
   -5000001    1    1    2    0    0 -0.83617046284E+02 -0.17836763676E+02  0.23767140287E+03  0.26405805481E+03  0.77000000000E+02 0.  0.
<mgrwt>
<rscale>  0 0.25445293E+03</rscale>
<asrwt>0</asrwt>
<pdfrwt beam="1">  1        2 0.70813354E-02 0.25445293E+03</pdfrwt>
<pdfrwt beam="2">  1       -2 0.54101968E-01 0.25445293E+03</pdfrwt>
<totfact> 0.32335304E+03</totfact>
</mgrwt>
</event>
<event>
 4    1  0.6086918E-004  0.2406325E+03  0.7818608E-02  0.1119372E+00
         -2   -1    0    0    0  501 -0.00000000000E+00  0.00000000000E+00  0.24079862354E+03  0.24079862355E+03  0.25500000000E-02 0. -1.
          2   -1    0    0  501    0  0.00000000000E+00 -0.00000000000E+00 -0.60116606640E+02  0.60116606694E+02  0.25500000000E-02 0.  1.
    5000001    1    1    2    0    0  0.14228370308E+02 -0.91338188186E+02  0.92057909959E+02  0.15148851418E+03  0.77000000000E+02 0.  0.
   -5000001    1    1    2    0    0 -0.14228370308E+02  0.91338188186E+02  0.88624106938E+02  0.14942671606E+03  0.77000000000E+02 0.  0.
<mgrwt>
<rscale>  0 0.24063247E+03</rscale>
<asrwt>0</asrwt>
<pdfrwt beam="1">  1        2 0.92487088E-02 0.24063247E+03</pdfrwt>
<pdfrwt beam="2">  1       -2 0.37045942E-01 0.24063247E+03</pdfrwt>
<totfact> 0.48140475E+03</totfact>
</mgrwt>
</event>
<event>
 4    1  0.6086918E-004  0.3747816E+03  0.7818608E-02  0.1052880E+00
         -2   -1    0    0    0  501 -0.00000000000E+00  0.00000000000E+00  0.97164599574E+02  0.97164599607E+02  0.25500000000E-02 0. -1.
          2   -1    0    0  501    0  0.00000000000E+00 -0.00000000000E+00 -0.36140034824E+03  0.36140034824E+03  0.25500000000E-02 0.  1.
    5000001    1    1    2    0    0  0.80305163111E+02  0.10747486283E+03 -0.26152873325E+03  0.30385200950E+03  0.77000000000E+02 0.  0.
   -5000001    1    1    2    0    0 -0.80305163111E+02 -0.10747486283E+03 -0.27070154167E+01  0.15471293836E+03  0.77000000000E+02 0.  0.
<mgrwt>
<rscale>  0 0.37478164E+03</rscale>
<asrwt>0</asrwt>
<pdfrwt beam="1">  1        2 0.55600053E-01 0.37478164E+03</pdfrwt>
<pdfrwt beam="2">  1       -2 0.14948400E-01 0.37478164E+03</pdfrwt>
<totfact> 0.30880722E+03</totfact>
</mgrwt>
</event>
<event>
 4    1  0.6086918E-004  0.1956852E+03  0.7818608E-02  0.1153431E+00
         -2   -1    0    0    0  501 -0.00000000000E+00  0.00000000000E+00  0.11035470391E+02  0.11035470686E+02  0.25500000000E-02 0. -1.
          2   -1    0    0  501    0  0.00000000000E+00 -0.00000000000E+00 -0.86749164636E+03  0.86749164637E+03  0.25500000000E-02 0.  1.
    5000001    1    1    2    0    0  0.17248169026E+02  0.57761029068E+02 -0.44266631811E+03  0.45333906185E+03  0.77000000000E+02 0.  0.
   -5000001    1    1    2    0    0 -0.17248169026E+02 -0.57761029068E+02 -0.41378985786E+03  0.42518805520E+03  0.77000000000E+02 0.  0.
<mgrwt>
<rscale>  0 0.19568524E+03</rscale>
<asrwt>0</asrwt>
<pdfrwt beam="1">  1        2 0.13346020E+00 0.19568524E+03</pdfrwt>
<pdfrwt beam="2">  1       -2 0.16977654E-02 0.19568524E+03</pdfrwt>
<totfact> 0.30557348E+04</totfact>
</mgrwt>
</event>
<event>
 4    1  0.6086918E-004  0.5192549E+03  0.7818608E-02  0.1008872E+00
         -2   -1    0    0    0  501 -0.00000000000E+00  0.00000000000E+00  0.71250342261E+03  0.71250342261E+03  0.25500000000E-02 0. -1.
          2   -1    0    0  501    0  0.00000000000E+00 -0.00000000000E+00 -0.94605041540E+02  0.94605041575E+02  0.25500000000E-02 0.  1.
    5000001    1    1    2    0    0  0.16272144076E+03 -0.14372009348E+03  0.49510715989E+03  0.54607127038E+03  0.77000000000E+02 0.  0.
   -5000001    1    1    2    0    0 -0.16272144076E+03  0.14372009348E+03  0.12279122117E+03  0.26103719381E+03  0.77000000000E+02 0.  0.
<mgrwt>
<rscale>  0 0.51925491E+03</rscale>
<asrwt>0</asrwt>
<pdfrwt beam="1">  1        2 0.14554622E-01 0.51925491E+03</pdfrwt>
<pdfrwt beam="2">  1       -2 0.10961591E+00 0.51925491E+03</pdfrwt>
<totfact> 0.27919655E+02</totfact>
</mgrwt>
</event>
<event>
 4    1  0.6086918E-004  0.3038309E+03  0.7818608E-02  0.1083341E+00
         -2   -1    0    0    0  501 -0.00000000000E+00  0.00000000000E+00  0.12611047943E+02  0.12611048201E+02  0.25500000000E-02 0. -1.
          2   -1    0    0  501    0  0.00000000000E+00 -0.00000000000E+00 -0.18300067458E+04  0.18300067458E+04  0.25500000000E-02 0.  1.
    5000001    1    1    2    0    0  0.65054492412E+02  0.88982065161E+02 -0.13375055989E+04  0.13442470465E+04  0.77000000000E+02 0.  0.
   -5000001    1    1    2    0    0 -0.65054492412E+02 -0.88982065161E+02 -0.47989009900E+03  0.49837074756E+03  0.77000000000E+02 0.  0.
<mgrwt>
<rscale>  0 0.30383089E+03</rscale>
<asrwt>0</asrwt>
<pdfrwt beam="1">  1        2 0.28153929E+00 0.30383089E+03</pdfrwt>
<pdfrwt beam="2">  1       -2 0.19401627E-02 0.30383089E+03</pdfrwt>
<totfact> 0.73864932E+03</totfact>
</mgrwt>
</event>
<event>
 4    1  0.6086918E-004  0.2193294E+03  0.7818608E-02  0.1134384E+00
          2   -1    0    0  501    0  0.00000000000E+00  0.00000000000E+00  0.38089448307E+03  0.38089448308E+03  0.25500000000E-02 0.  1.
         -2   -1    0    0    0  501 -0.00000000000E+00 -0.00000000000E+00 -0.31573965335E+02  0.31573965438E+02  0.25500000000E-02 0. -1.
    5000001    1    1    2    0    0  0.55149745723E+02 -0.50559622107E+02  0.21669381048E+03  0.24183253988E+03  0.77000000000E+02 0.  0.
   -5000001    1    1    2    0    0 -0.55149745723E+02  0.50559622107E+02  0.13262670725E+03  0.17063590864E+03  0.77000000000E+02 0.  0.
<mgrwt>
<rscale>  0 0.21932943E+03</rscale>
<asrwt>0</asrwt>
<pdfrwt beam="1">  1        2 0.58599152E-01 0.21932943E+03</pdfrwt>
<pdfrwt beam="2">  1       -2 0.48575331E-02 0.21932943E+03</pdfrwt>
<totfact> 0.16837401E+04</totfact>
</mgrwt>
</event>
<event>
 4    1  0.6086918E-004  0.1864816E+03  0.7818608E-02  0.1161673E+00
         -2   -1    0    0    0  501 -0.00000000000E+00  0.00000000000E+00  0.23812728167E+02  0.23812728304E+02  0.25500000000E-02 0. -1.
          2   -1    0    0  501    0  0.00000000000E+00 -0.00000000000E+00 -0.36509257747E+03  0.36509257748E+03  0.25500000000E-02 0.  1.
    5000001    1    1    2    0    0 -0.43092006235E+02 -0.26880349136E+02 -0.14224539141E+03  0.16953532242E+03  0.77000000000E+02 0.  0.
   -5000001    1    1    2    0    0  0.43092006235E+02  0.26880349136E+02 -0.19903445789E+03  0.21936998336E+03  0.77000000000E+02 0.  0.
<mgrwt>
<rscale>  0 0.18648164E+03</rscale>
<asrwt>0</asrwt>
<pdfrwt beam="1">  1        2 0.56168085E-01 0.18648164E+03</pdfrwt>
<pdfrwt beam="2">  1       -2 0.36634969E-02 0.18648164E+03</pdfrwt>
<totfact> 0.26593469E+04</totfact>
</mgrwt>
</event>
<event>
 4    1  0.6086918E-004  0.2894297E+03  0.7818608E-02  0.1090647E+00
         -2   -1    0    0    0  501 -0.00000000000E+00  0.00000000000E+00  0.31756187816E+03  0.31756187817E+03  0.25500000000E-02 0.  1.
          2   -1    0    0  501    0  0.00000000000E+00 -0.00000000000E+00 -0.65947442252E+02  0.65947442301E+02  0.25500000000E-02 0. -1.
    5000001    1    1    2    0    0 -0.78681600003E+02  0.86714016152E+02  0.77971594007E+02  0.16037045940E+03  0.77000000000E+02 0.  0.
   -5000001    1    1    2    0    0  0.78681600003E+02 -0.86714016152E+02  0.17364284190E+03  0.22313886107E+03  0.77000000000E+02 0.  0.
<mgrwt>
<rscale>  0 0.28942974E+03</rscale>
<asrwt>0</asrwt>
<pdfrwt beam="1">  1        2 0.10145760E-01 0.28942974E+03</pdfrwt>
<pdfrwt beam="2">  1       -2 0.48855673E-01 0.28942974E+03</pdfrwt>
<totfact> 0.25288906E+03</totfact>
</mgrwt>
</event>
<event>
 4    1  0.6086918E-004  0.2014527E+03  0.7818608E-02  0.1148519E+00
          2   -1    0    0  501    0  0.00000000000E+00  0.00000000000E+00  0.11497419329E+04  0.11497419329E+04  0.25500000000E-02 0.  1.
         -2   -1    0    0    0  501 -0.00000000000E+00 -0.00000000000E+00 -0.88244117245E+01  0.88244120930E+01  0.25500000000E-02 0. -1.
    5000001    1    1    2    0    0 -0.11788906088E+02  0.57778283565E+02  0.41406716115E+03  0.42527393795E+03  0.77000000000E+02 0.  0.
   -5000001    1    1    2    0    0  0.11788906088E+02 -0.57778283565E+02  0.72685036000E+03  0.73329240702E+03  0.77000000000E+02 0.  0.
<mgrwt>
<rscale>  0 0.20145269E+03</rscale>
<asrwt>0</asrwt>
<pdfrwt beam="1">  1        2 0.17688342E+00 0.20145269E+03</pdfrwt>
<pdfrwt beam="2">  1       -2 0.13576015E-02 0.20145269E+03</pdfrwt>
<totfact> 0.28571900E+04</totfact>
</mgrwt>
</event>
<event>
 4    1  0.6086918E-004  0.3656465E+03  0.7818608E-02  0.1056370E+00
         -2   -1    0    0    0  501 -0.00000000000E+00  0.00000000000E+00  0.20298376162E+02  0.20298376322E+02  0.25500000000E-02 0. -1.
          2   -1    0    0  501    0  0.00000000000E+00 -0.00000000000E+00 -0.16466506602E+04  0.16466506602E+04  0.25500000000E-02 0.  1.
    5000001    1    1    2    0    0 -0.84143181066E+02  0.13865792693E+03 -0.97039169846E+03  0.98686125877E+03  0.77000000000E+02 0.  0.
   -5000001    1    1    2    0    0  0.84143181066E+02 -0.13865792693E+03 -0.65596058557E+03  0.68008777774E+03  0.77000000000E+02 0.  0.
<mgrwt>
<rscale>  0 0.36564647E+03</rscale>
<asrwt>0</asrwt>
<pdfrwt beam="1">  1        2 0.25333077E+00 0.36564647E+03</pdfrwt>
<pdfrwt beam="2">  1       -2 0.31228284E-02 0.36564647E+03</pdfrwt>
<totfact> 0.45517917E+03</totfact>
</mgrwt>
</event>
<event>
 4    1  0.6086918E-004  0.4327040E+03  0.7818608E-02  0.1033009E+00
         -2   -1    0    0    0  501 -0.00000000000E+00  0.00000000000E+00  0.11613389219E+03  0.11613389221E+03  0.25500000000E-02 0. -1.
          2   -1    0    0  501    0  0.00000000000E+00 -0.00000000000E+00 -0.40305361478E+03  0.40305361478E+03  0.25500000000E-02 0.  1.
    5000001    1    1    2    0    0  0.19674265258E+02  0.19707276143E+03 -0.19226417352E+03  0.28656458684E+03  0.77000000000E+02 0.  0.
   -5000001    1    1    2    0    0 -0.19674265258E+02 -0.19707276143E+03 -0.94655549074E+02  0.23262292016E+03  0.77000000000E+02 0.  0.
<mgrwt>
<rscale>  0 0.43270399E+03</rscale>
<asrwt>0</asrwt>
<pdfrwt beam="1">  1        2 0.62008247E-01 0.43270399E+03</pdfrwt>
<pdfrwt beam="2">  1       -2 0.17866753E-01 0.43270399E+03</pdfrwt>
<totfact> 0.20322153E+03</totfact>
</mgrwt>
</event>
<event>
 4    1  0.6086918E-004  0.2855060E+03  0.7818608E-02  0.1092719E+00
          2   -1    0    0  501    0  0.00000000000E+00  0.00000000000E+00  0.12419352274E+04  0.12419352274E+04  0.25500000000E-02 0.  1.
         -2   -1    0    0    0  501 -0.00000000000E+00 -0.00000000000E+00 -0.16408599265E+02  0.16408599463E+02  0.25500000000E-02 0. -1.
    5000001    1    1    2    0    0  0.43693692269E+02 -0.73182133993E+02  0.98634625002E+03  0.99301192763E+03  0.77000000000E+02 0.  0.
   -5000001    1    1    2    0    0 -0.43693692269E+02  0.73182133993E+02  0.23918037814E+03  0.26533189927E+03  0.77000000000E+02 0.  0.
<mgrwt>
<rscale>  0 0.28550599E+03</rscale>
<asrwt>0</asrwt>
<pdfrwt beam="1">  1        2 0.19106701E+00 0.28550599E+03</pdfrwt>
<pdfrwt beam="2">  1       -2 0.25243993E-02 0.28550599E+03</pdfrwt>
<totfact> 0.10361510E+04</totfact>
</mgrwt>
</event>
<event>
 4    1  0.6086918E-004  0.3853403E+03  0.7818608E-02  0.1048977E+00
          2   -1    0    0  501    0  0.00000000000E+00  0.00000000000E+00  0.14636075933E+04  0.14636075933E+04  0.25500000000E-02 0.  1.
         -2   -1    0    0    0  501 -0.00000000000E+00 -0.00000000000E+00 -0.25363203604E+02  0.25363203732E+02  0.25500000000E-02 0. -1.
    5000001    1    1    2    0    0 -0.17173441797E+03  0.88832056906E+01  0.87470234388E+03  0.89476522733E+03  0.77000000000E+02 0.  0.
   -5000001    1    1    2    0    0  0.17173441797E+03 -0.88832056906E+01  0.56354204579E+03  0.59420556968E+03  0.77000000000E+02 0.  0.
<mgrwt>
<rscale>  0 0.38534025E+03</rscale>
<asrwt>0</asrwt>
<pdfrwt beam="1">  1        2 0.22517038E+00 0.38534025E+03</pdfrwt>
<pdfrwt beam="2">  1       -2 0.39020316E-02 0.38534025E+03</pdfrwt>
<totfact> 0.40812520E+03</totfact>
</mgrwt>
</event>
<event>
 4    1  0.6086918E-004  0.1777936E+03  0.7818608E-02  0.1169956E+00
         -2   -1    0    0    0  501 -0.00000000000E+00  0.00000000000E+00  0.41485985632E+02  0.41485985710E+02  0.25500000000E-02 0. -1.
          2   -1    0    0  501    0  0.00000000000E+00 -0.00000000000E+00 -0.19048931210E+03  0.19048931211E+03  0.25500000000E-02 0.  1.
    5000001    1    1    2    0    0  0.40518470300E+02  0.17969638528E+02 -0.78412098528E+02  0.11849941578E+03  0.77000000000E+02 0.  0.
   -5000001    1    1    2    0    0 -0.40518470300E+02 -0.17969638528E+02 -0.70591227938E+02  0.11347588205E+03  0.77000000000E+02 0.  0.
<mgrwt>
<rscale>  0 0.17779355E+03</rscale>
<asrwt>0</asrwt>
<pdfrwt beam="1">  1        2 0.29306048E-01 0.17779355E+03</pdfrwt>
<pdfrwt beam="2">  1       -2 0.63824594E-02 0.17779355E+03</pdfrwt>
<totfact> 0.23061822E+04</totfact>
</mgrwt>
</event>
<event>
 4    1  0.6086918E-004  0.2439671E+03  0.7818608E-02  0.1117178E+00
          2   -1    0    0  501    0  0.00000000000E+00  0.00000000000E+00  0.26593479140E+04  0.26593479140E+04  0.25500000000E-02 0.  1.
         -2   -1    0    0    0  501 -0.00000000000E+00 -0.00000000000E+00 -0.55953523040E+01  0.55953528850E+01  0.25500000000E-02 0. -1.
    5000001    1    1    2    0    0 -0.78050723444E+02 -0.52676921874E+02  0.12266334644E+04  0.12326497595E+04  0.77000000000E+02 0.  0.
   -5000001    1    1    2    0    0  0.78050723444E+02  0.52676921874E+02  0.14271190973E+04  0.14322935074E+04  0.77000000000E+02 0.  0.
<mgrwt>
<rscale>  0 0.24396712E+03</rscale>
<asrwt>0</asrwt>
<pdfrwt beam="1">  1        2 0.40913026E+00 0.24396712E+03</pdfrwt>
<pdfrwt beam="2">  1       -2 0.86082386E-03 0.24396712E+03</pdfrwt>
<totfact> 0.86718254E+03</totfact>
</mgrwt>
</event>
<event>
 4    1  0.6086918E-004  0.2392577E+03  0.7818608E-02  0.1120288E+00
         -2   -1    0    0    0  501 -0.00000000000E+00  0.00000000000E+00  0.18836434237E+03  0.18836434239E+03  0.25500000000E-02 0. -1.
          2   -1    0    0  501    0  0.00000000000E+00 -0.00000000000E+00 -0.75975404692E+02  0.75975404735E+02  0.25500000000E-02 0.  1.
    5000001    1    1    2    0    0 -0.60118945022E+01  0.90131345199E+02  0.72665556389E+02  0.13917286139E+03  0.77000000000E+02 0.  0.
   -5000001    1    1    2    0    0  0.60118945022E+01 -0.90131345199E+02  0.39723381294E+02  0.12516688573E+03  0.77000000000E+02 0.  0.
<mgrwt>
<rscale>  0 0.23925766E+03</rscale>
<asrwt>0</asrwt>
<pdfrwt beam="1">  1        2 0.11688524E-01 0.23925766E+03</pdfrwt>
<pdfrwt beam="2">  1       -2 0.28979130E-01 0.23925766E+03</pdfrwt>
<totfact> 0.56646276E+03</totfact>
</mgrwt>
</event>
<event>
 4    1  0.6086918E-004  0.4718498E+03  0.7818608E-02  0.1021399E+00
         -2   -1    0    0    0  501 -0.00000000000E+00  0.00000000000E+00  0.40684449124E+02  0.40684449204E+02  0.25500000000E-02 0. -1.
          2   -1    0    0  501    0  0.00000000000E+00 -0.00000000000E+00 -0.13681038611E+04  0.13681038611E+04  0.25500000000E-02 0.  1.
    5000001    1    1    2    0    0 -0.14705252322E+03 -0.14392951350E+03 -0.92039761776E+03  0.94625626773E+03  0.77000000000E+02 0.  0.
   -5000001    1    1    2    0    0  0.14705252322E+03  0.14392951350E+03 -0.40702179421E+03  0.46253204257E+03  0.77000000000E+02 0.  0.
<mgrwt>
<rscale>  0 0.47184977E+03</rscale>
<asrwt>0</asrwt>
<pdfrwt beam="1">  1        2 0.21047748E+00 0.47184977E+03</pdfrwt>
<pdfrwt beam="2">  1       -2 0.62591471E-02 0.47184977E+03</pdfrwt>
<totfact> 0.22249751E+03</totfact>
</mgrwt>
</event>
<event>
 4    1  0.6086918E-004  0.1962457E+03  0.7818608E-02  0.1152946E+00
          2   -1    0    0  501    0  0.00000000000E+00  0.00000000000E+00  0.19531017969E+03  0.19531017971E+03  0.25500000000E-02 0.  1.
         -2   -1    0    0    0  501 -0.00000000000E+00 -0.00000000000E+00 -0.49296439752E+02  0.49296439817E+02  0.25500000000E-02 0. -1.
    5000001    1    1    2    0    0  0.86541652339E+01 -0.48802689624E+02  0.11694242233E+03  0.14852988666E+03  0.77000000000E+02 0.  0.
   -5000001    1    1    2    0    0 -0.86541652339E+01  0.48802689624E+02  0.29071317605E+02  0.96076732864E+02  0.77000000000E+02 0.  0.
<mgrwt>
<rscale>  0 0.19624573E+03</rscale>
<asrwt>0</asrwt>
<pdfrwt beam="1">  1        2 0.30047720E-01 0.19624573E+03</pdfrwt>
<pdfrwt beam="2">  1       -2 0.75840675E-02 0.19624573E+03</pdfrwt>
<totfact> 0.17346581E+04</totfact>
</mgrwt>
</event>
<event>
 4    1  0.6086918E-004  0.3569709E+03  0.7818608E-02  0.1059790E+00
         -2   -1    0    0    0  501 -0.00000000000E+00  0.00000000000E+00  0.32834236273E+02  0.32834236373E+02  0.25500000000E-02 0. -1.
          2   -1    0    0  501    0  0.00000000000E+00 -0.00000000000E+00 -0.97023890911E+03  0.97023890911E+03  0.25500000000E-02 0.  1.
    5000001    1    1    2    0    0  0.12847391710E+03  0.96908584485E+02 -0.45299859011E+03  0.48686090803E+03  0.77000000000E+02 0.  0.
   -5000001    1    1    2    0    0 -0.12847391710E+03 -0.96908584485E+02 -0.48440608272E+03  0.51621223746E+03  0.77000000000E+02 0.  0.
<mgrwt>
<rscale>  0 0.35697089E+03</rscale>
<asrwt>0</asrwt>
<pdfrwt beam="1">  1        2 0.14926750E+00 0.35697089E+03</pdfrwt>
<pdfrwt beam="2">  1       -2 0.50514217E-02 0.35697089E+03</pdfrwt>
<totfact> 0.53042899E+03</totfact>
</mgrwt>
</event>
<event>
 4    1  0.6086918E-004  0.2916276E+03  0.7818608E-02  0.1089502E+00
         -2   -1    0    0    0  501 -0.00000000000E+00  0.00000000000E+00  0.22725566584E+03  0.22725566585E+03  0.25500000000E-02 0. -1.
          2   -1    0    0  501    0  0.00000000000E+00 -0.00000000000E+00 -0.93558336913E+02  0.93558336947E+02  0.25500000000E-02 0.  1.
    5000001    1    1    2    0    0 -0.11593585040E+03 -0.39320446542E+02  0.46402443082E+02  0.15188616016E+03  0.77000000000E+02 0.  0.
   -5000001    1    1    2    0    0  0.11593585040E+03  0.39320446542E+02  0.87294885844E+02  0.16892784264E+03  0.77000000000E+02 0.  0.
<mgrwt>
<rscale>  0 0.29162759E+03</rscale>
<asrwt>0</asrwt>
<pdfrwt beam="1">  1        2 0.14393591E-01 0.29162759E+03</pdfrwt>
<pdfrwt beam="2">  1       -2 0.34962410E-01 0.29162759E+03</pdfrwt>
<totfact> 0.31458577E+03</totfact>
</mgrwt>
</event>
<event>
 4    1  0.6086918E-004  0.3494898E+03  0.7818608E-02  0.1062825E+00
         -2   -1    0    0    0  501 -0.00000000000E+00  0.00000000000E+00  0.30497538389E+03  0.30497538390E+03  0.25500000000E-02 0. -1.
          2   -1    0    0  501    0  0.00000000000E+00 -0.00000000000E+00 -0.10012540452E+03  0.10012540455E+03  0.25500000000E-02 0.  1.
    5000001    1    1    2    0    0  0.12302322358E+03  0.97148265106E+02  0.95637972183E+02  0.19911835846E+03  0.77000000000E+02 0.  0.
   -5000001    1    1    2    0    0 -0.12302322358E+03 -0.97148265106E+02  0.10921200719E+03  0.20598242999E+03  0.77000000000E+02 0.  0.
<mgrwt>
<rscale>  0 0.34948982E+03</rscale>
<asrwt>0</asrwt>
<pdfrwt beam="1">  1        2 0.15403909E-01 0.34948982E+03</pdfrwt>
<pdfrwt beam="2">  1       -2 0.46919289E-01 0.34948982E+03</pdfrwt>
<totfact> 0.16548817E+03</totfact>
</mgrwt>
</event>
<event>
 4    1  0.6086918E-004  0.4456783E+03  0.7818608E-02  0.1029019E+00
         -2   -1    0    0    0  501 -0.00000000000E+00  0.00000000000E+00  0.61556292439E+02  0.61556292492E+02  0.25500000000E-02 0. -1.
          2   -1    0    0  501    0  0.00000000000E+00 -0.00000000000E+00 -0.80669705764E+03  0.80669705764E+03  0.25500000000E-02 0.  1.
    5000001    1    1    2    0    0  0.16367313803E+02  0.16351657081E+03 -0.12064118988E+03  0.21791937635E+03  0.77000000000E+02 0.  0.
   -5000001    1    1    2    0    0 -0.16367313803E+02 -0.16351657081E+03 -0.62449957532E+03  0.65033397379E+03  0.77000000000E+02 0.  0.
<mgrwt>
<rscale>  0 0.44567827E+03</rscale>
<asrwt>0</asrwt>
<pdfrwt beam="1">  1        2 0.12410723E+00 0.44567827E+03</pdfrwt>
<pdfrwt beam="2">  1       -2 0.94701994E-02 0.44567827E+03</pdfrwt>
<totfact> 0.25512819E+03</totfact>
</mgrwt>
</event>
<event>
 4    1  0.6086918E-004  0.2697851E+03  0.7818608E-02  0.1101403E+00
          2   -1    0    0  501    0  0.00000000000E+00  0.00000000000E+00  0.19205104174E+04  0.19205104174E+04  0.25500000000E-02 0.  1.
         -2   -1    0    0    0  501 -0.00000000000E+00 -0.00000000000E+00 -0.94745615706E+01  0.94745619138E+01  0.25500000000E-02 0. -1.
    5000001    1    1    2    0    0  0.34844140373E+02  0.87076625918E+02  0.13769568705E+04  0.13822936288E+04  0.77000000000E+02 0.  0.
   -5000001    1    1    2    0    0 -0.34844140373E+02 -0.87076625918E+02  0.53407898530E+03  0.54769135052E+03  0.77000000000E+02 0.  0.
<mgrwt>
<rscale>  0 0.26978506E+03</rscale>
<asrwt>0</asrwt>
<pdfrwt beam="1">  1        2 0.29546304E+00 0.26978506E+03</pdfrwt>
<pdfrwt beam="2">  1       -2 0.14576254E-02 0.26978506E+03</pdfrwt>
<totfact> 0.10061322E+04</totfact>
</mgrwt>
</event>
<event>
 4    1  0.6086918E-004  0.2529461E+03  0.7818608E-02  0.1111457E+00
         -2   -1    0    0    0  501 -0.00000000000E+00  0.00000000000E+00  0.11265403079E+03  0.11265403082E+03  0.25500000000E-02 0. -1.
          2   -1    0    0  501    0  0.00000000000E+00 -0.00000000000E+00 -0.14198721942E+03  0.14198721944E+03  0.25500000000E-02 0.  1.
    5000001    1    1    2    0    0  0.74758752515E+01 -0.89074837716E+02  0.31204294613E+02  0.12203656594E+03  0.77000000000E+02 0.  0.
   -5000001    1    1    2    0    0 -0.74758752515E+01  0.89074837716E+02 -0.60537483241E+02  0.13260468431E+03  0.77000000000E+02 0.  0.
<mgrwt>
<rscale>  0 0.25294610E+03</rscale>
<asrwt>0</asrwt>
<pdfrwt beam="1">  1        2 0.21844188E-01 0.25294610E+03</pdfrwt>
<pdfrwt beam="2">  1       -2 0.17331389E-01 0.25294610E+03</pdfrwt>
<totfact> 0.66497453E+03</totfact>
</mgrwt>
</event>
<event>
 4    1  0.6086918E-004  0.3124967E+03  0.7818608E-02  0.1079155E+00
          2   -1    0    0  501    0  0.00000000000E+00  0.00000000000E+00  0.49749710279E+03  0.49749710280E+03  0.25500000000E-02 0.  1.
         -2   -1    0    0    0  501 -0.00000000000E+00 -0.00000000000E+00 -0.49072742811E+02  0.49072742877E+02  0.25500000000E-02 0. -1.
    5000001    1    1    2    0    0 -0.35952416185E+02  0.92534455144E+02  0.38668815939E+03  0.40658570342E+03  0.77000000000E+02 0.  0.
   -5000001    1    1    2    0    0  0.35952416185E+02 -0.92534455144E+02  0.61736200596E+02  0.13998414225E+03  0.77000000000E+02 0.  0.
<mgrwt>
<rscale>  0 0.31249670E+03</rscale>
<asrwt>0</asrwt>
<pdfrwt beam="1">  1        2 0.76538014E-01 0.31249670E+03</pdfrwt>
<pdfrwt beam="2">  1       -2 0.75496529E-02 0.31249670E+03</pdfrwt>
<totfact> 0.64840091E+03</totfact>
</mgrwt>
</event>
<event>
 4    1  0.6086918E-004  0.2244964E+03  0.7818608E-02  0.1130575E+00
          2   -1    0    0  501    0  0.00000000000E+00  0.00000000000E+00  0.13916740286E+04  0.13916740286E+04  0.25500000000E-02 0.  1.
         -2   -1    0    0    0  501 -0.00000000000E+00 -0.00000000000E+00 -0.90536008751E+01  0.90536012342E+01  0.25500000000E-02 0. -1.
    5000001    1    1    2    0    0 -0.18027105715E+01 -0.77603022889E+02  0.53282616379E+03  0.54392848772E+03  0.77000000000E+02 0.  0.
   -5000001    1    1    2    0    0  0.18027105715E+01  0.77603022889E+02  0.84979426397E+03  0.85679914215E+03  0.77000000000E+02 0.  0.
<mgrwt>
<rscale>  0 0.22449643E+03</rscale>
<asrwt>0</asrwt>
<pdfrwt beam="1">  1        2 0.21410362E+00 0.22449643E+03</pdfrwt>
<pdfrwt beam="2">  1       -2 0.13928622E-02 0.22449643E+03</pdfrwt>
<totfact> 0.20339500E+04</totfact>
</mgrwt>
</event>
<event>
 4    1  0.6086918E-004  0.2988075E+03  0.7818608E-02  0.1085838E+00
          2   -1    0    0  501    0  0.00000000000E+00  0.00000000000E+00  0.24649800595E+03  0.24649800596E+03  0.25500000000E-02 0.  1.
         -2   -1    0    0    0  501 -0.00000000000E+00 -0.00000000000E+00 -0.90554401465E+02  0.90554401501E+02  0.25500000000E-02 0. -1.
    5000001    1    1    2    0    0  0.11707196618E+03 -0.44632646431E+02  0.48244113226E+02  0.15477213203E+03  0.77000000000E+02 0.  0.
   -5000001    1    1    2    0    0 -0.11707196618E+03  0.44632646431E+02  0.10769949126E+03  0.18228027543E+03  0.77000000000E+02 0.  0.
<mgrwt>
<rscale>  0 0.29880749E+03</rscale>
<asrwt>0</asrwt>
<pdfrwt beam="1">  1        2 0.37922770E-01 0.29880749E+03</pdfrwt>
<pdfrwt beam="2">  1       -2 0.13931446E-01 0.29880749E+03</pdfrwt>
<totfact> 0.52268371E+03</totfact>
</mgrwt>
</event>
<event>
 4    1  0.6086918E-004  0.2399896E+03  0.7818608E-02  0.1119800E+00
         -2   -1    0    0    0  501 -0.00000000000E+00  0.00000000000E+00  0.37489190889E+02  0.37489190976E+02  0.25500000000E-02 0. -1.
          2   -1    0    0  501    0  0.00000000000E+00 -0.00000000000E+00 -0.38407748581E+03  0.38407748581E+03  0.25500000000E-02 0.  1.
    5000001    1    1    2    0    0 -0.37062339515E+02 -0.83854897164E+02 -0.18740104460E+03  0.22238123191E+03  0.77000000000E+02 0.  0.
   -5000001    1    1    2    0    0  0.37062339515E+02  0.83854897164E+02 -0.15918725032E+03  0.19918544488E+03  0.77000000000E+02 0.  0.
<mgrwt>
<rscale>  0 0.23998962E+03</rscale>
<asrwt>0</asrwt>
<pdfrwt beam="1">  1        2 0.59088841E-01 0.23998962E+03</pdfrwt>
<pdfrwt beam="2">  1       -2 0.57675681E-02 0.23998962E+03</pdfrwt>
<totfact> 0.12921791E+04</totfact>
</mgrwt>
</event>
<event>
 4    1  0.6086918E-004  0.1858833E+03  0.7818608E-02  0.1162228E+00
          2   -1    0    0  501    0  0.00000000000E+00  0.00000000000E+00  0.14394811746E+04  0.14394811746E+04  0.25500000000E-02 0.  1.
         -2   -1    0    0    0  501 -0.00000000000E+00 -0.00000000000E+00 -0.60008760719E+01  0.60008766137E+01  0.25500000000E-02 0. -1.
    5000001    1    1    2    0    0 -0.45230022585E+01  0.34236498347E+02  0.10195717508E+04  0.10230582342E+04  0.77000000000E+02 0.  0.
   -5000001    1    1    2    0    0  0.45230022585E+01 -0.34236498347E+02  0.41390854771E+03  0.42242381708E+03  0.77000000000E+02 0.  0.
<mgrwt>
<rscale>  0 0.18588328E+03</rscale>
<asrwt>0</asrwt>
<pdfrwt beam="1">  1        2 0.22145882E+00 0.18588328E+03</pdfrwt>
<pdfrwt beam="2">  1       -2 0.92321100E-03 0.18588328E+03</pdfrwt>
<totfact> 0.34396894E+04</totfact>
</mgrwt>
</event>
<event>
 4    1  0.6086918E-004  0.3313534E+03  0.7818608E-02  0.1070540E+00
         -2   -1    0    0    0  501 -0.00000000000E+00  0.00000000000E+00  0.11524537177E+02  0.11524537459E+02  0.25500000000E-02 0. -1.
          2   -1    0    0  501    0  0.00000000000E+00 -0.00000000000E+00 -0.23817670064E+04  0.23817670064E+04  0.25500000000E-02 0.  1.
    5000001    1    1    2    0    0 -0.35268636352E+02 -0.12298021181E+03 -0.66670121611E+03  0.68321850148E+03  0.77000000000E+02 0.  0.
   -5000001    1    1    2    0    0  0.35268636352E+02  0.12298021181E+03 -0.17035412531E+04  0.17100730424E+04  0.77000000000E+02 0.  0.
<mgrwt>
<rscale>  0 0.33135336E+03</rscale>
<asrwt>0</asrwt>
<pdfrwt beam="1">  1        2 0.36642530E+00 0.33135336E+03</pdfrwt>
<pdfrwt beam="2">  1       -2 0.17730076E-02 0.33135336E+03</pdfrwt>
<totfact> 0.42850727E+03</totfact>
</mgrwt>
</event>
<event>
 4    1  0.6086918E-004  0.2409978E+03  0.7818608E-02  0.1119130E+00
          2   -1    0    0  501    0  0.00000000000E+00  0.00000000000E+00  0.56556444803E+03  0.56556444803E+03  0.25500000000E-02 0.  1.
         -2   -1    0    0    0  501 -0.00000000000E+00 -0.00000000000E+00 -0.25673435463E+02  0.25673435590E+02  0.25500000000E-02 0. -1.
    5000001    1    1    2    0    0  0.51953597632E+02 -0.76528055140E+02  0.25537723521E+03  0.28231587237E+03  0.77000000000E+02 0.  0.
   -5000001    1    1    2    0    0 -0.51953597632E+02  0.76528055140E+02  0.28451377735E+03  0.30892201125E+03  0.77000000000E+02 0.  0.
<mgrwt>
<rscale>  0 0.24099778E+03</rscale>
<asrwt>0</asrwt>
<pdfrwt beam="1">  1        2 0.87009915E-01 0.24099778E+03</pdfrwt>
<pdfrwt beam="2">  1       -2 0.39497593E-02 0.24099778E+03</pdfrwt>
<totfact> 0.14941691E+04</totfact>
</mgrwt>
</event>
<event>
 4    1  0.6086918E-004  0.2227702E+03  0.7818608E-02  0.1131834E+00
          2   -1    0    0  501    0  0.00000000000E+00  0.00000000000E+00  0.67408418544E+02  0.67408418593E+02  0.25500000000E-02 0.  1.
         -2   -1    0    0    0  501 -0.00000000000E+00 -0.00000000000E+00 -0.18405186814E+03  0.18405186816E+03  0.25500000000E-02 0. -1.
    5000001    1    1    2    0    0  0.48910532874E+02  0.63703920710E+02 -0.52432997792E+02  0.12299857315E+03  0.77000000000E+02 0.  0.
   -5000001    1    1    2    0    0 -0.48910532874E+02 -0.63703920710E+02 -0.64210451805E+02  0.12846171360E+03  0.77000000000E+02 0.  0.
<mgrwt>
<rscale>  0 0.22277024E+03</rscale>
<asrwt>0</asrwt>
<pdfrwt beam="1">  1        2 0.10370526E-01 0.22277024E+03</pdfrwt>
<pdfrwt beam="2">  1       -2 0.28315672E-01 0.22277024E+03</pdfrwt>
<totfact> 0.68141786E+03</totfact>
</mgrwt>
</event>
<event>
 4    1  0.6086918E-004  0.2672740E+03  0.7818608E-02  0.1102850E+00
          2   -1    0    0  501    0  0.00000000000E+00  0.00000000000E+00  0.25395300628E+04  0.25395300628E+04  0.25500000000E-02 0.  1.
         -2   -1    0    0    0  501 -0.00000000000E+00 -0.00000000000E+00 -0.70323448316E+01  0.70323452939E+01  0.25500000000E-02 0. -1.
    5000001    1    1    2    0    0 -0.78293303994E+02 -0.73714107855E+02  0.10839093507E+04  0.10919487587E+04  0.77000000000E+02 0.  0.
   -5000001    1    1    2    0    0  0.78293303994E+02  0.73714107855E+02  0.14485883673E+04  0.14546136494E+04  0.77000000000E+02 0.  0.
<mgrwt>
<rscale>  0 0.26727403E+03</rscale>
<asrwt>0</asrwt>
<pdfrwt beam="1">  1        2 0.39069809E+00 0.26727403E+03</pdfrwt>
<pdfrwt beam="2">  1       -2 0.10818960E-02 0.26727403E+03</pdfrwt>
<totfact> 0.72536458E+03</totfact>
</mgrwt>
</event>
<event>
 4    1  0.6086918E-004  0.2806530E+03  0.7818608E-02  0.1095333E+00
         -2   -1    0    0    0  501 -0.00000000000E+00  0.00000000000E+00  0.83910262122E+03  0.83910262123E+03  0.25500000000E-02 0. -1.
          2   -1    0    0  501    0  0.00000000000E+00 -0.00000000000E+00 -0.23467361057E+02  0.23467361196E+02  0.25500000000E-02 0.  1.
    5000001    1    1    2    0    0  0.10121029927E+03  0.58736201257E+02  0.38227695520E+03  0.40713405224E+03  0.77000000000E+02 0.  0.
   -5000001    1    1    2    0    0 -0.10121029927E+03 -0.58736201257E+02  0.43335830497E+03  0.45543593019E+03  0.77000000000E+02 0.  0.
<mgrwt>
<rscale>  0 0.28065298E+03</rscale>
<asrwt>0</asrwt>
<pdfrwt beam="1">  1        2 0.36103630E-02 0.28065298E+03</pdfrwt>
<pdfrwt beam="2">  1       -2 0.12909272E+00 0.28065298E+03</pdfrwt>
<totfact> 0.11303373E+03</totfact>
</mgrwt>
</event>
<event>
 4    1  0.6086918E-004  0.2271649E+03  0.7818608E-02  0.1128651E+00
         -2   -1    0    0    0  501 -0.00000000000E+00  0.00000000000E+00  0.49270707554E+02  0.49270707620E+02  0.25500000000E-02 0. -1.
          2   -1    0    0  501    0  0.00000000000E+00 -0.00000000000E+00 -0.26183850959E+03  0.26183850961E+03  0.25500000000E-02 0.  1.
    5000001    1    1    2    0    0 -0.42232575588E+02 -0.47787738889E+02 -0.18009524763E+03  0.20598678756E+03  0.77000000000E+02 0.  0.
   -5000001    1    1    2    0    0  0.42232575588E+02  0.47787738889E+02 -0.32472554405E+02  0.10512242966E+03  0.77000000000E+02 0.  0.
<mgrwt>
<rscale>  0 0.22716486E+03</rscale>
<asrwt>0</asrwt>
<pdfrwt beam="1">  1        2 0.40282847E-01 0.22716486E+03</pdfrwt>
<pdfrwt beam="2">  1       -2 0.75801090E-02 0.22716486E+03</pdfrwt>
<totfact> 0.12765196E+04</totfact>
</mgrwt>
</event>
<event>
 4    1  0.6086918E-004  0.2988269E+03  0.7818608E-02  0.1085829E+00
         -2   -1    0    0    0  501 -0.00000000000E+00  0.00000000000E+00  0.30299639422E+02  0.30299639530E+02  0.25500000000E-02 0. -1.
          2   -1    0    0  501    0  0.00000000000E+00 -0.00000000000E+00 -0.73678673739E+03  0.73678673740E+03  0.25500000000E-02 0.  1.
    5000001    1    1    2    0    0  0.33779972347E+02  0.19564810868E+02 -0.66628517619E+03  0.67185474945E+03  0.77000000000E+02 0.  0.
   -5000001    1    1    2    0    0 -0.33779972347E+02 -0.19564810868E+02 -0.40201921782E+02  0.95231627473E+02  0.77000000000E+02 0.  0.
<mgrwt>
<rscale>  0 0.29882686E+03</rscale>
<asrwt>0</asrwt>
<pdfrwt beam="1">  1        2 0.11335179E+00 0.29882686E+03</pdfrwt>
<pdfrwt beam="2">  1       -2 0.46614835E-02 0.29882686E+03</pdfrwt>
<totfact> 0.85772400E+03</totfact>
</mgrwt>
</event>
<event>
 4    1  0.6086918E-004  0.3865295E+03  0.7818608E-02  0.1048546E+00
          2   -1    0    0  501    0  0.00000000000E+00  0.00000000000E+00  0.26137660823E+04  0.26137660823E+04  0.25500000000E-02 0.  1.
         -2   -1    0    0    0  501 -0.00000000000E+00 -0.00000000000E+00 -0.14290207395E+02  0.14290207622E+02  0.25500000000E-02 0. -1.
    5000001    1    1    2    0    0 -0.13458551114E+03  0.57388181090E+02  0.61929697225E+03  0.64098705368E+03  0.77000000000E+02 0.  0.
   -5000001    1    1    2    0    0  0.13458551114E+03 -0.57388181090E+02  0.19801789027E+04  0.19870692363E+04  0.77000000000E+02 0.  0.
<mgrwt>
<rscale>  0 0.38652948E+03</rscale>
<asrwt>0</asrwt>
<pdfrwt beam="1">  1        2 0.40211741E+00 0.38652948E+03</pdfrwt>
<pdfrwt beam="2">  1       -2 0.21984959E-02 0.38652948E+03</pdfrwt>
<totfact> 0.23099111E+03</totfact>
</mgrwt>
</event>
<event>
 4    1  0.6086918E-004  0.4109767E+03  0.7818608E-02  0.1040044E+00
         -2   -1    0    0    0  501 -0.00000000000E+00  0.00000000000E+00  0.26969053677E+02  0.26969053797E+02  0.25500000000E-02 0. -1.
          2   -1    0    0  501    0  0.00000000000E+00 -0.00000000000E+00 -0.15657008055E+04  0.15657008055E+04  0.25500000000E-02 0.  1.
    5000001    1    1    2    0    0  0.48962814292E+02 -0.16274542919E+03 -0.43570397846E+03  0.47397298315E+03  0.77000000000E+02 0.  0.
   -5000001    1    1    2    0    0 -0.48962814292E+02  0.16274542919E+03 -0.11030277734E+04  0.11186968762E+04  0.77000000000E+02 0.  0.
<mgrwt>
<rscale>  0 0.41097673E+03</rscale>
<asrwt>0</asrwt>
<pdfrwt beam="1">  1        2 0.24087698E+00 0.41097673E+03</pdfrwt>
<pdfrwt beam="2">  1       -2 0.41490864E-02 0.41097673E+03</pdfrwt>
<totfact> 0.32713160E+03</totfact>
</mgrwt>
</event>
<event>
 4    1  0.6086918E-004  0.4402193E+03  0.7818608E-02  0.1030680E+00
          2   -1    0    0  501    0  0.00000000000E+00  0.00000000000E+00  0.17197211954E+04  0.17197211954E+04  0.25500000000E-02 0. -1.
         -2   -1    0    0    0  501 -0.00000000000E+00 -0.00000000000E+00 -0.28172161327E+02  0.28172161442E+02  0.25500000000E-02 0.  1.
    5000001    1    1    2    0    0 -0.82507422534E+02 -0.14877344995E+03  0.13084406523E+04  0.13216985113E+04  0.77000000000E+02 0.  0.
   -5000001    1    1    2    0    0  0.82507422534E+02  0.14877344995E+03  0.38310838179E+03  0.42619484556E+03  0.77000000000E+02 0.  0.
<mgrwt>
<rscale>  0 0.44021932E+03</rscale>
<asrwt>0</asrwt>
<pdfrwt beam="1">  1        2 0.26457251E+00 0.44021932E+03</pdfrwt>
<pdfrwt beam="2">  1       -2 0.43341783E-02 0.44021932E+03</pdfrwt>
<totfact> 0.25268849E+03</totfact>
</mgrwt>
</event>
<event>
 4    1  0.6086918E-004  0.6636903E+03  0.7818608E-02  0.9781424E-01
         -2   -1    0    0    0  501 -0.00000000000E+00  0.00000000000E+00  0.72744856784E+02  0.72744856828E+02  0.25500000000E-02 0. -1.
          2   -1    0    0  501    0  0.00000000000E+00 -0.00000000000E+00 -0.15138006051E+04  0.15138006051E+04  0.25500000000E-02 0.  1.
    5000001    1    1    2    0    0 -0.22050218576E+03  0.12146013331E+03 -0.12034923544E+04  0.12319483045E+04  0.77000000000E+02 0.  0.
   -5000001    1    1    2    0    0  0.22050218576E+03 -0.12146013331E+03 -0.23756339389E+03  0.35459715738E+03  0.77000000000E+02 0.  0.
<mgrwt>
<rscale>  0 0.66369031E+03</rscale>
<asrwt>0</asrwt>
<pdfrwt beam="1">  1        2 0.23289238E+00 0.66369031E+03</pdfrwt>
<pdfrwt beam="2">  1       -2 0.11191518E-01 0.66369031E+03</pdfrwt>
<totfact> 0.72387468E+02</totfact>
</mgrwt>
</event>
<event>
 4    1  0.6086918E-004  0.2712545E+03  0.7818608E-02  0.1100564E+00
         -2   -1    0    0    0  501 -0.00000000000E+00  0.00000000000E+00  0.83506341139E+01  0.83506345033E+01  0.25500000000E-02 0. -1.
          2   -1    0    0  501    0  0.00000000000E+00 -0.00000000000E+00 -0.22027976088E+04  0.22027976088E+04  0.25500000000E-02 0.  1.
    5000001    1    1    2    0    0  0.44595050441E+02  0.99663463728E+02 -0.90705735425E+03  0.91684435343E+03  0.77000000000E+02 0.  0.
   -5000001    1    1    2    0    0 -0.44595050441E+02 -0.99663463728E+02 -0.12873896204E+04  0.12943038899E+04  0.77000000000E+02 0.  0.
<mgrwt>
<rscale>  0 0.27125455E+03</rscale>
<asrwt>0</asrwt>
<pdfrwt beam="1">  1        2 0.33889148E+00 0.27125455E+03</pdfrwt>
<pdfrwt beam="2">  1       -2 0.12847147E-02 0.27125455E+03</pdfrwt>
<totfact> 0.85865209E+03</totfact>
</mgrwt>
</event>
<event>
 4    1  0.6086918E-004  0.2766552E+03  0.7818608E-02  0.1097530E+00
         -2   -1    0    0    0  501 -0.00000000000E+00  0.00000000000E+00  0.41804496819E+03  0.41804496820E+03  0.25500000000E-02 0. -1.
          2   -1    0    0  501    0  0.00000000000E+00 -0.00000000000E+00 -0.45771456255E+02  0.45771456326E+02  0.25500000000E-02 0.  1.
    5000001    1    1    2    0    0  0.78335882752E+02  0.37148179449E+02  0.31258894304E+03  0.33340267706E+03  0.77000000000E+02 0.  0.
   -5000001    1    1    2    0    0 -0.78335882752E+02 -0.37148179449E+02  0.59684568902E+02  0.13041374747E+03  0.77000000000E+02 0.  0.
<mgrwt>
<rscale>  0 0.27665521E+03</rscale>
<asrwt>0</asrwt>
<pdfrwt beam="1">  1        2 0.70417628E-02 0.27665521E+03</pdfrwt>
<pdfrwt beam="2">  1       -2 0.64314608E-01 0.27665521E+03</pdfrwt>
<totfact> 0.22857769E+03</totfact>
</mgrwt>
</event>
<event>
 4    1  0.6086918E-004  0.3884538E+03  0.7818608E-02  0.1047853E+00
          2   -1    0    0  501    0  0.00000000000E+00  0.00000000000E+00  0.92718762246E+02  0.92718762281E+02  0.25500000000E-02 0.  1.
         -2   -1    0    0    0  501 -0.00000000000E+00 -0.00000000000E+00 -0.40686579763E+03  0.40686579764E+03  0.25500000000E-02 0. -1.
    5000001    1    1    2    0    0  0.16260444275E+03  0.63787339398E+02 -0.11095229125E+03  0.22079048984E+03  0.77000000000E+02 0.  0.
   -5000001    1    1    2    0    0 -0.16260444275E+03 -0.63787339398E+02 -0.20319474414E+03  0.27879407009E+03  0.77000000000E+02 0.  0.
<mgrwt>
<rscale>  0 0.38845382E+03</rscale>
<asrwt>0</asrwt>
<pdfrwt beam="1">  1        2 0.14264425E-01 0.38845382E+03</pdfrwt>
<pdfrwt beam="2">  1       -2 0.62594737E-01 0.38845382E+03</pdfrwt>
<totfact> 0.10086426E+03</totfact>
</mgrwt>
</event>
<event>
 4    1  0.6086918E-004  0.2174046E+03  0.7818608E-02  0.1135833E+00
         -2   -1    0    0    0  501 -0.00000000000E+00  0.00000000000E+00  0.86975260352E+01  0.86975264091E+01  0.25500000000E-02 0. -1.
          2   -1    0    0  501    0  0.00000000000E+00 -0.00000000000E+00 -0.13585690297E+04  0.13585690297E+04  0.25500000000E-02 0.  1.
    5000001    1    1    2    0    0 -0.31182784832E+02  0.12389140354E+02 -0.11088947922E+04  0.11120712734E+04  0.77000000000E+02 0.  0.
   -5000001    1    1    2    0    0  0.31182784832E+02 -0.12389140354E+02 -0.24097671144E+03  0.25519528272E+03  0.77000000000E+02 0.  0.
<mgrwt>
<rscale>  0 0.21740460E+03</rscale>
<asrwt>0</asrwt>
<pdfrwt beam="1">  1        2 0.20901045E+00 0.21740460E+03</pdfrwt>
<pdfrwt beam="2">  1       -2 0.13380820E-02 0.21740460E+03</pdfrwt>
<totfact> 0.22434828E+04</totfact>
</mgrwt>
</event>
<event>
 4    1  0.6086918E-004  0.2648747E+03  0.7818608E-02  0.1104249E+00
          2   -1    0    0  501    0  0.00000000000E+00  0.00000000000E+00  0.53753562738E+02  0.53753562799E+02  0.25500000000E-02 0.  1.
         -2   -1    0    0    0  501 -0.00000000000E+00 -0.00000000000E+00 -0.32629740866E+03  0.32629740867E+03  0.25500000000E-02 0. -1.
    5000001    1    1    2    0    0 -0.15941442503E+02  0.10248579631E+03 -0.94361523775E+02  0.15997051354E+03  0.77000000000E+02 0.  0.
   -5000001    1    1    2    0    0  0.15941442503E+02 -0.10248579631E+03 -0.17818232215E+03  0.22008045793E+03  0.77000000000E+02 0.  0.
<mgrwt>
<rscale>  0 0.26487467E+03</rscale>
<asrwt>0</asrwt>
<pdfrwt beam="1">  1        2 0.82697791E-02 0.26487467E+03</pdfrwt>
<pdfrwt beam="2">  1       -2 0.50199600E-01 0.26487467E+03</pdfrwt>
<totfact> 0.30882972E+03</totfact>
</mgrwt>
</event>
<event>
 4    1  0.6086918E-004  0.2047518E+03  0.7818608E-02  0.1145791E+00
          2   -1    0    0  501    0  0.00000000000E+00  0.00000000000E+00  0.17808031712E+04  0.17808031712E+04  0.25500000000E-02 0.  1.
         -2   -1    0    0    0  501 -0.00000000000E+00 -0.00000000000E+00 -0.58854477951E+01  0.58854483476E+01  0.25500000000E-02 0. -1.
    5000001    1    1    2    0    0  0.63673506090E+02  0.20755294873E+02  0.95873953368E+03  0.96415537705E+03  0.77000000000E+02 0.  0.
   -5000001    1    1    2    0    0 -0.63673506090E+02 -0.20755294873E+02  0.81617818974E+03  0.82253324252E+03  0.77000000000E+02 0.  0.
<mgrwt>
<rscale>  0 0.20475180E+03</rscale>
<asrwt>0</asrwt>
<pdfrwt beam="1">  1        2 0.27396955E+00 0.20475180E+03</pdfrwt>
<pdfrwt beam="2">  1       -2 0.90545409E-03 0.20475180E+03</pdfrwt>
<totfact> 0.23556905E+04</totfact>
</mgrwt>
</event>
<event>
 4    1  0.6086918E-004  0.2667522E+03  0.7818608E-02  0.1103153E+00
         -2   -1    0    0    0  501 -0.00000000000E+00  0.00000000000E+00  0.70639880059E+02  0.70639880105E+02  0.25500000000E-02 0. -1.
          2   -1    0    0  501    0  0.00000000000E+00 -0.00000000000E+00 -0.25182912955E+03  0.25182912956E+03  0.25500000000E-02 0.  1.
    5000001    1    1    2    0    0 -0.10444514721E+03  0.90910872825E+01 -0.54963817922E+02  0.14121422706E+03  0.77000000000E+02 0.  0.
   -5000001    1    1    2    0    0  0.10444514721E+03 -0.90910872825E+01 -0.12622543157E+03  0.18125478261E+03  0.77000000000E+02 0.  0.
<mgrwt>
<rscale>  0 0.26675217E+03</rscale>
<asrwt>0</asrwt>
<pdfrwt beam="1">  1        2 0.38742943E-01 0.26675217E+03</pdfrwt>
<pdfrwt beam="2">  1       -2 0.10867674E-01 0.26675217E+03</pdfrwt>
<totfact> 0.76074076E+03</totfact>
</mgrwt>
</event>
<event>
 4    1  0.6086918E-004  0.1017053E+04  0.7818608E-02  0.9290037E-01
          2   -1    0    0  501    0  0.00000000000E+00  0.00000000000E+00  0.51120883364E+04  0.51120883364E+04  0.25500000000E-02 0.  1.
         -2   -1    0    0    0  501 -0.00000000000E+00 -0.00000000000E+00 -0.50585817158E+02  0.50585817223E+02  0.25500000000E-02 0. -1.
    5000001    1    1    2    0    0 -0.49057036144E+02 -0.46837732018E+03  0.16386506930E+04  0.17067187819E+04  0.77000000000E+02 0.  0.
   -5000001    1    1    2    0    0  0.49057036144E+02  0.46837732018E+03  0.34228518263E+04  0.34559553718E+04  0.77000000000E+02 0.  0.
<mgrwt>
<rscale>  0 0.10170529E+04</rscale>
<asrwt>0</asrwt>
<pdfrwt beam="1">  1        2 0.78647520E+00 0.10170529E+04</pdfrwt>
<pdfrwt beam="2">  1       -2 0.77824327E-02 0.10170529E+04</pdfrwt>
<totfact> 0.28112499E+00</totfact>
</mgrwt>
</event>
<event>
 4    1  0.6086918E-004  0.4516602E+03  0.7818608E-02  0.1027228E+00
         -2   -1    0    0    0  501 -0.00000000000E+00  0.00000000000E+00  0.16575199809E+03  0.16575199811E+03  0.25500000000E-02 0. -1.
          2   -1    0    0  501    0  0.00000000000E+00 -0.00000000000E+00 -0.30768392712E+03  0.30768392713E+03  0.25500000000E-02 0.  1.
    5000001    1    1    2    0    0 -0.12386409306E+03 -0.14327684204E+03  0.29573202035E+02  0.20657720419E+03  0.77000000000E+02 0.  0.
   -5000001    1    1    2    0    0  0.12386409306E+03  0.14327684204E+03 -0.17150513107E+03  0.26685872104E+03  0.77000000000E+02 0.  0.
<mgrwt>
<rscale>  0 0.45166016E+03</rscale>
<asrwt>0</asrwt>
<pdfrwt beam="1">  1        2 0.47335989E-01 0.45166016E+03</pdfrwt>
<pdfrwt beam="2">  1       -2 0.25500307E-01 0.45166016E+03</pdfrwt>
<totfact> 0.14696626E+03</totfact>
</mgrwt>
</event>
<event>
 4    1  0.6086918E-004  0.1029391E+04  0.7818608E-02  0.9276884E-01
          2   -1    0    0  501    0  0.00000000000E+00  0.00000000000E+00  0.17391653934E+04  0.17391653934E+04  0.25500000000E-02 0.  1.
         -2   -1    0    0    0  501 -0.00000000000E+00 -0.00000000000E+00 -0.15232115585E+03  0.15232115587E+03  0.25500000000E-02 0. -1.
    5000001    1    1    2    0    0 -0.22917878089E+03  0.27645797465E+03  0.14560134540E+04  0.15016178287E+04  0.77000000000E+02 0.  0.
   -5000001    1    1    2    0    0  0.22917878089E+03 -0.27645797465E+03  0.13083078361E+03  0.38986872059E+03  0.77000000000E+02 0.  0.
<mgrwt>
<rscale>  0 0.10293914E+04</rscale>
<asrwt>0</asrwt>
<pdfrwt beam="1">  1        2 0.26756392E+00 0.10293914E+04</pdfrwt>
<pdfrwt beam="2">  1       -2 0.23434023E-01 0.10293914E+04</pdfrwt>
<totfact> 0.15000413E+02</totfact>
</mgrwt>
</event>
<event>
 4    1  0.6086918E-004  0.3941831E+03  0.7818608E-02  0.1045813E+00
          2   -1    0    0  501    0  0.00000000000E+00  0.00000000000E+00  0.53603707298E+03  0.53603707299E+03  0.25500000000E-02 0.  1.
         -2   -1    0    0    0  501 -0.00000000000E+00 -0.00000000000E+00 -0.72467168073E+02  0.72467168118E+02  0.25500000000E-02 0. -1.
    5000001    1    1    2    0    0 -0.32002252996E+02 -0.10727863183E+03  0.45218016696E+03  0.47215331455E+03  0.77000000000E+02 0.  0.
   -5000001    1    1    2    0    0  0.32002252996E+02  0.10727863183E+03  0.11389737949E+02  0.13635092656E+03  0.77000000000E+02 0.  0.
<mgrwt>
<rscale>  0 0.39418315E+03</rscale>
<asrwt>0</asrwt>
<pdfrwt beam="1">  1        2 0.82467243E-01 0.39418315E+03</pdfrwt>
<pdfrwt beam="2">  1       -2 0.11148795E-01 0.39418315E+03</pdfrwt>
<totfact> 0.32217311E+03</totfact>
</mgrwt>
</event>
<event>
 4    1  0.6086918E-004  0.2100691E+03  0.7818608E-02  0.1141511E+00
         -2   -1    0    0    0  501 -0.00000000000E+00  0.00000000000E+00  0.16845794632E+02  0.16845794825E+02  0.25500000000E-02 0. -1.
          2   -1    0    0  501    0  0.00000000000E+00 -0.00000000000E+00 -0.65489660316E+03  0.65489660316E+03  0.25500000000E-02 0.  1.
    5000001    1    1    2    0    0  0.66992326694E+02  0.24748655736E+02 -0.32436277621E+03  0.34094087228E+03  0.77000000000E+02 0.  0.
   -5000001    1    1    2    0    0 -0.66992326694E+02 -0.24748655736E+02 -0.31368803231E+03  0.33080152571E+03  0.77000000000E+02 0.  0.
<mgrwt>
<rscale>  0 0.21006907E+03</rscale>
<asrwt>0</asrwt>
<pdfrwt beam="1">  1        2 0.10075330E+00 0.21006907E+03</pdfrwt>
<pdfrwt beam="2">  1       -2 0.25916612E-02 0.21006907E+03</pdfrwt>
<totfact> 0.23390953E+04</totfact>
</mgrwt>
</event>
<event>
 4    1  0.6086918E-004  0.2451853E+03  0.7818608E-02  0.1116386E+00
         -2   -1    0    0    0  501 -0.00000000000E+00  0.00000000000E+00  0.10095722290E+03  0.10095722294E+03  0.25500000000E-02 0. -1.
          2   -1    0    0  501    0  0.00000000000E+00 -0.00000000000E+00 -0.14886462746E+03  0.14886462748E+03  0.25500000000E-02 0.  1.
    5000001    1    1    2    0    0 -0.59220585480E+02  0.52139780655E+02 -0.78580268156E+02  0.13538645802E+03  0.77000000000E+02 0.  0.
   -5000001    1    1    2    0    0  0.59220585480E+02 -0.52139780655E+02  0.30672863602E+02  0.11443539240E+03  0.77000000000E+02 0.  0.
<mgrwt>
<rscale>  0 0.24518531E+03</rscale>
<asrwt>0</asrwt>
<pdfrwt beam="1">  1        2 0.22902250E-01 0.24518531E+03</pdfrwt>
<pdfrwt beam="2">  1       -2 0.15531880E-01 0.24518531E+03</pdfrwt>
<totfact> 0.75570842E+03</totfact>
</mgrwt>
</event>
<event>
 4    1  0.6086918E-004  0.3415989E+03  0.7818608E-02  0.1066117E+00
          2   -1    0    0  501    0  0.00000000000E+00  0.00000000000E+00  0.17779533005E+03  0.17779533006E+03  0.25500000000E-02 0.  1.
         -2   -1    0    0    0  501 -0.00000000000E+00 -0.00000000000E+00 -0.16407881379E+03  0.16407881381E+03  0.25500000000E-02 0. -1.
    5000001    1    1    2    0    0  0.80627868075E+02  0.12928994025E+03  0.16863963490E+01  0.17072956889E+03  0.77000000000E+02 0.  0.
   -5000001    1    1    2    0    0 -0.80627868075E+02 -0.12928994025E+03  0.12030119907E+02  0.17114457498E+03  0.77000000000E+02 0.  0.
<mgrwt>
<rscale>  0 0.34159887E+03</rscale>
<asrwt>0</asrwt>
<pdfrwt beam="1">  1        2 0.27353128E-01 0.34159887E+03</pdfrwt>
<pdfrwt beam="2">  1       -2 0.25242894E-01 0.34159887E+03</pdfrwt>
<totfact> 0.27255483E+03</totfact>
</mgrwt>
</event>
<event>
 4    1  0.6086918E-004  0.1858446E+03  0.7818608E-02  0.1162264E+00
          2   -1    0    0  501    0  0.00000000000E+00  0.00000000000E+00  0.14251483089E+03  0.14251483091E+03  0.25500000000E-02 0.  1.
         -2   -1    0    0    0  501 -0.00000000000E+00 -0.00000000000E+00 -0.60587065476E+02  0.60587065530E+02  0.25500000000E-02 0. -1.
    5000001    1    1    2    0    0 -0.15898968317E+02  0.41712980345E+02  0.70141478690E+02  0.11332068194E+03  0.77000000000E+02 0.  0.
   -5000001    1    1    2    0    0  0.15898968317E+02 -0.41712980345E+02  0.11786286726E+02  0.89781214503E+02  0.77000000000E+02 0.  0.
<mgrwt>
<rscale>  0 0.18584462E+03</rscale>
<asrwt>0</asrwt>
<pdfrwt beam="1">  1        2 0.21925358E-01 0.18584462E+03</pdfrwt>
<pdfrwt beam="2">  1       -2 0.93210872E-02 0.18584462E+03</pdfrwt>
<totfact> 0.17756050E+04</totfact>
</mgrwt>
</event>
<event>
 4    1  0.6086918E-004  0.2621207E+03  0.7818608E-02  0.1105876E+00
          2   -1    0    0  501    0  0.00000000000E+00  0.00000000000E+00  0.12840036007E+04  0.12840036007E+04  0.25500000000E-02 0.  1.
         -2   -1    0    0    0  501 -0.00000000000E+00 -0.00000000000E+00 -0.13377540972E+02  0.13377541215E+02  0.25500000000E-02 0. -1.
    5000001    1    1    2    0    0 -0.93284730088E+02  0.46210025014E+02  0.73558324083E+03  0.74689297189E+03  0.77000000000E+02 0.  0.
   -5000001    1    1    2    0    0  0.93284730088E+02 -0.46210025014E+02  0.53504281894E+03  0.55048817006E+03  0.77000000000E+02 0.  0.
<mgrwt>
<rscale>  0 0.26212067E+03</rscale>
<asrwt>0</asrwt>
<pdfrwt beam="1">  1        2 0.19753912E+00 0.26212067E+03</pdfrwt>
<pdfrwt beam="2">  1       -2 0.20580822E-02 0.26212067E+03</pdfrwt>
<totfact> 0.13239080E+04</totfact>
</mgrwt>
</event>
<event>
 4    1  0.6086918E-004  0.1682361E+03  0.7818608E-02  0.1179700E+00
         -2   -1    0    0    0  501 -0.00000000000E+00  0.00000000000E+00  0.11438110373E+02  0.11438110657E+02  0.25500000000E-02 0. -1.
          2   -1    0    0  501    0  0.00000000000E+00 -0.00000000000E+00 -0.61862046207E+03  0.61862046207E+03  0.25500000000E-02 0.  1.
    5000001    1    1    2    0    0 -0.30903686702E+02 -0.12721663198E+02 -0.32409381269E+03  0.33478751170E+03  0.77000000000E+02 0.  0.
   -5000001    1    1    2    0    0  0.30903686702E+02  0.12721663198E+02 -0.28308853900E+03  0.29527106103E+03  0.77000000000E+02 0.  0.
<mgrwt>
<rscale>  0 0.16823613E+03</rscale>
<asrwt>0</asrwt>
<pdfrwt beam="1">  1        2 0.95172353E-01 0.16823613E+03</pdfrwt>
<pdfrwt beam="2">  1       -2 0.17597098E-02 0.16823613E+03</pdfrwt>
<totfact> 0.43286040E+04</totfact>
</mgrwt>
</event>
<event>
 4    1  0.6086918E-004  0.2095983E+03  0.7818608E-02  0.1141885E+00
         -2   -1    0    0    0  501 -0.00000000000E+00  0.00000000000E+00  0.33302113675E+01  0.33302123438E+01  0.25500000000E-02 0. -1.
          2   -1    0    0  501    0  0.00000000000E+00 -0.00000000000E+00 -0.32979459199E+04  0.32979459199E+04  0.25500000000E-02 0.  1.
    5000001    1    1    2    0    0  0.64344903170E+02  0.29817652667E+02 -0.15693474778E+04  0.15728349771E+04  0.77000000000E+02 0.  0.
   -5000001    1    1    2    0    0 -0.64344903170E+02 -0.29817652667E+02 -0.17252682307E+04  0.17284411552E+04  0.77000000000E+02 0.  0.
<mgrwt>
<rscale>  0 0.20959827E+03</rscale>
<asrwt>0</asrwt>
<pdfrwt beam="1">  1        2 0.50737368E+00 0.20959827E+03</pdfrwt>
<pdfrwt beam="2">  1       -2 0.51234293E-03 0.20959827E+03</pdfrwt>
<totfact> 0.77030414E+03</totfact>
</mgrwt>
</event>
<event>
 4    1  0.6086918E-004  0.2568977E+03  0.7818608E-02  0.1109022E+00
          2   -1    0    0  501    0  0.00000000000E+00  0.00000000000E+00  0.75042825564E+02  0.75042825607E+02  0.25500000000E-02 0.  1.
         -2   -1    0    0    0  501 -0.00000000000E+00 -0.00000000000E+00 -0.21986259891E+03  0.21986259893E+03  0.25500000000E-02 0. -1.
    5000001    1    1    2    0    0  0.91654655673E+02  0.46139919567E+02 -0.65091537173E+02  0.14385887632E+03  0.77000000000E+02 0.  0.
   -5000001    1    1    2    0    0 -0.91654655673E+02 -0.46139919567E+02 -0.79728236176E+02  0.15104654822E+03  0.77000000000E+02 0.  0.
<mgrwt>
<rscale>  0 0.25689773E+03</rscale>
<asrwt>0</asrwt>
<pdfrwt beam="1">  1        2 0.11545050E-01 0.25689773E+03</pdfrwt>
<pdfrwt beam="2">  1       -2 0.33825015E-01 0.25689773E+03</pdfrwt>
<totfact> 0.43482105E+03</totfact>
</mgrwt>
</event>
<event>
 4    1  0.6086918E-004  0.4570252E+03  0.7818608E-02  0.1025648E+00
          2   -1    0    0  501    0  0.00000000000E+00  0.00000000000E+00  0.28063531079E+04  0.28063531079E+04  0.25500000000E-02 0.  1.
         -2   -1    0    0    0  501 -0.00000000000E+00 -0.00000000000E+00 -0.18607069304E+02  0.18607069479E+02  0.25500000000E-02 0. -1.
    5000001    1    1    2    0    0 -0.18866715524E+01 -0.21476784944E+03  0.13156331167E+04  0.13352708663E+04  0.77000000000E+02 0.  0.
   -5000001    1    1    2    0    0  0.18866715524E+01  0.21476784944E+03  0.14721129220E+04  0.14896893111E+04  0.77000000000E+02 0.  0.
<mgrwt>
<rscale>  0 0.45702519E+03</rscale>
<asrwt>0</asrwt>
<pdfrwt beam="1">  1        2 0.43174685E+00 0.45702519E+03</pdfrwt>
<pdfrwt beam="2">  1       -2 0.28626246E-02 0.45702519E+03</pdfrwt>
<totfact> 0.11986863E+03</totfact>
</mgrwt>
</event>
<event>
 4    1  0.6086918E-004  0.2731634E+03  0.7818608E-02  0.1099483E+00
         -2   -1    0    0    0  501 -0.00000000000E+00  0.00000000000E+00  0.25941462048E+03  0.25941462050E+03  0.25500000000E-02 0. -1.
          2   -1    0    0  501    0  0.00000000000E+00 -0.00000000000E+00 -0.71910223981E+02  0.71910224026E+02  0.25500000000E-02 0.  1.
    5000001    1    1    2    0    0 -0.49340875684E+02  0.77243199987E+02  0.13989305782E+02  0.12052275567E+03  0.77000000000E+02 0.  0.
   -5000001    1    1    2    0    0  0.49340875684E+02 -0.77243199987E+02  0.17351509072E+03  0.21080208885E+03  0.77000000000E+02 0.  0.
<mgrwt>
<rscale>  0 0.27316342E+03</rscale>
<asrwt>0</asrwt>
<pdfrwt beam="1">  1        2 0.11063111E-01 0.27316342E+03</pdfrwt>
<pdfrwt beam="2">  1       -2 0.39909943E-01 0.27316342E+03</pdfrwt>
<totfact> 0.33640864E+03</totfact>
</mgrwt>
</event>
<event>
 4    1  0.6086918E-004  0.1731939E+03  0.7818608E-02  0.1174557E+00
          2   -1    0    0  501    0  0.00000000000E+00  0.00000000000E+00  0.18044353405E+03  0.18044353407E+03  0.25500000000E-02 0.  1.
         -2   -1    0    0    0  501 -0.00000000000E+00 -0.00000000000E+00 -0.41558903070E+02  0.41558903148E+02  0.25500000000E-02 0. -1.
    5000001    1    1    2    0    0 -0.33308541561E+02 -0.19668656774E+02  0.80448042731E+02  0.11788639692E+03  0.77000000000E+02 0.  0.
   -5000001    1    1    2    0    0  0.33308541561E+02  0.19668656774E+02  0.58436588251E+02  0.10411604029E+03  0.77000000000E+02 0.  0.
<mgrwt>
<rscale>  0 0.17319394E+03</rscale>
<asrwt>0</asrwt>
<pdfrwt beam="1">  1        2 0.27760544E-01 0.17319394E+03</pdfrwt>
<pdfrwt beam="2">  1       -2 0.63936774E-02 0.17319394E+03</pdfrwt>
<totfact> 0.24348405E+04</totfact>
</mgrwt>
</event>
<event>
 4    1  0.6086918E-004  0.4750845E+03  0.7818608E-02  0.1020495E+00
          2   -1    0    0  501    0  0.00000000000E+00  0.00000000000E+00  0.10167655900E+04  0.10167655900E+04  0.25500000000E-02 0.  1.
         -2   -1    0    0    0  501 -0.00000000000E+00 -0.00000000000E+00 -0.55495893837E+02  0.55495893895E+02  0.25500000000E-02 0. -1.
    5000001    1    1    2    0    0  0.15005732825E+03 -0.15399791604E+03  0.62802787140E+03  0.66826683829E+03  0.77000000000E+02 0.  0.
   -5000001    1    1    2    0    0 -0.15005732825E+03  0.15399791604E+03  0.33324182474E+03  0.40399464558E+03  0.77000000000E+02 0.  0.
<mgrwt>
<rscale>  0 0.47508448E+03</rscale>
<asrwt>0</asrwt>
<pdfrwt beam="1">  1        2 0.15642548E+00 0.47508448E+03</pdfrwt>
<pdfrwt beam="2">  1       -2 0.85378296E-02 0.47508448E+03</pdfrwt>
<totfact> 0.21900470E+03</totfact>
</mgrwt>
</event>
<event>
 4    1  0.6086918E-004  0.2876743E+03  0.7818608E-02  0.1091570E+00
         -2   -1    0    0    0  501 -0.00000000000E+00  0.00000000000E+00  0.29919808181E+02  0.29919808290E+02  0.25500000000E-02 0. -1.
          2   -1    0    0  501    0  0.00000000000E+00 -0.00000000000E+00 -0.69148612599E+03  0.69148612599E+03  0.25500000000E-02 0.  1.
    5000001    1    1    2    0    0 -0.50722047179E+02 -0.10959495275E+03 -0.36408509262E+03  0.39124255189E+03  0.77000000000E+02 0.  0.
   -5000001    1    1    2    0    0  0.50722047179E+02  0.10959495275E+03 -0.29748122518E+03  0.33016338240E+03  0.77000000000E+02 0.  0.
<mgrwt>
<rscale>  0 0.28767435E+03</rscale>
<asrwt>0</asrwt>
<pdfrwt beam="1">  1        2 0.10638247E+00 0.28767435E+03</pdfrwt>
<pdfrwt beam="2">  1       -2 0.46030479E-02 0.28767435E+03</pdfrwt>
<totfact> 0.94385680E+03</totfact>
</mgrwt>
</event>
<event>
 4    1  0.6086918E-004  0.3790620E+03  0.7818608E-02  0.1051281E+00
         -2   -1    0    0    0  501 -0.00000000000E+00  0.00000000000E+00  0.34344189595E+03  0.34344189596E+03  0.25500000000E-02 0. -1.
          2   -1    0    0  501    0  0.00000000000E+00 -0.00000000000E+00 -0.10459413703E+03  0.10459413706E+03  0.25500000000E-02 0.  1.
    5000001    1    1    2    0    0  0.17226198661E+03 -0.11202425000E+02  0.13585789548E+03  0.23277898127E+03  0.77000000000E+02 0.  0.
   -5000001    1    1    2    0    0 -0.17226198661E+03  0.11202425000E+02  0.10298986344E+03  0.21525705175E+03  0.77000000000E+02 0.  0.
<mgrwt>
<rscale>  0 0.37906205E+03</rscale>
<asrwt>0</asrwt>
<pdfrwt beam="1">  1        2 0.16091406E-01 0.37906205E+03</pdfrwt>
<pdfrwt beam="2">  1       -2 0.52837215E-01 0.37906205E+03</pdfrwt>
<totfact> 0.12393481E+03</totfact>
</mgrwt>
</event>
<event>
 4    1  0.6086918E-004  0.2739555E+03  0.7818608E-02  0.1099037E+00
          2   -1    0    0  501    0  0.00000000000E+00  0.00000000000E+00  0.84305569745E+03  0.84305569745E+03  0.25500000000E-02 0.  1.
         -2   -1    0    0    0  501 -0.00000000000E+00 -0.00000000000E+00 -0.22255830872E+02  0.22255831018E+02  0.25500000000E-02 0. -1.
    5000001    1    1    2    0    0 -0.16375886561E+02  0.10550186060E+02  0.57903794697E+02  0.98292042032E+02  0.77000000000E+02 0.  0.
   -5000001    1    1    2    0    0  0.16375886561E+02 -0.10550186060E+02  0.76289607188E+03  0.76701948644E+03  0.77000000000E+02 0.  0.
<mgrwt>
<rscale>  0 0.27395551E+03</rscale>
<asrwt>0</asrwt>
<pdfrwt beam="1">  1        2 0.12970090E+00 0.27395551E+03</pdfrwt>
<pdfrwt beam="2">  1       -2 0.34239733E-02 0.27395551E+03</pdfrwt>
<totfact> 0.11475076E+04</totfact>
</mgrwt>
</event>
<event>
 4    1  0.6086918E-004  0.1802338E+03  0.7818608E-02  0.1167577E+00
          2   -1    0    0  501    0  0.00000000000E+00  0.00000000000E+00  0.14292043645E+04  0.14292043645E+04  0.25500000000E-02 0.  1.
         -2   -1    0    0    0  501 -0.00000000000E+00 -0.00000000000E+00 -0.56822232268E+01  0.56822237990E+01  0.25500000000E-02 0. -1.
    5000001    1    1    2    0    0 -0.74215470764E+01  0.46224578649E+02  0.71587955319E+03  0.72152915790E+03  0.77000000000E+02 0.  0.
   -5000001    1    1    2    0    0  0.74215470764E+01 -0.46224578649E+02  0.70764258812E+03  0.71335743044E+03  0.77000000000E+02 0.  0.
<mgrwt>
<rscale>  0 0.18023383E+03</rscale>
<asrwt>0</asrwt>
<pdfrwt beam="1">  1        2 0.21987767E+00 0.18023383E+03</pdfrwt>
<pdfrwt beam="2">  1       -2 0.87418793E-03 0.18023383E+03</pdfrwt>
<totfact> 0.37597707E+04</totfact>
</mgrwt>
</event>
<event>
 4    1  0.6086918E-004  0.2031704E+03  0.7818608E-02  0.1147091E+00
         -2   -1    0    0    0  501 -0.00000000000E+00  0.00000000000E+00  0.72747602800E+01  0.72747607269E+01  0.25500000000E-02 0. -1.
          2   -1    0    0  501    0  0.00000000000E+00 -0.00000000000E+00 -0.14185420225E+04  0.14185420225E+04  0.25500000000E-02 0.  1.
    5000001    1    1    2    0    0  0.30576293912E+02  0.37922499213E+02 -0.39041416003E+03  0.40090552759E+03  0.77000000000E+02 0.  0.
   -5000001    1    1    2    0    0 -0.30576293912E+02 -0.37922499213E+02 -0.10208531021E+04  0.10249112556E+04  0.77000000000E+02 0.  0.
<mgrwt>
<rscale>  0 0.20317041E+03</rscale>
<asrwt>0</asrwt>
<pdfrwt beam="1">  1        2 0.21823702E+00 0.20317041E+03</pdfrwt>
<pdfrwt beam="2">  1       -2 0.11191950E-02 0.20317041E+03</pdfrwt>
<totfact> 0.26881218E+04</totfact>
</mgrwt>
</event>
<event>
 4    1  0.6086918E-004  0.2346824E+03  0.7818608E-02  0.1123387E+00
         -2   -1    0    0    0  501 -0.00000000000E+00  0.00000000000E+00  0.23422579120E+02  0.23422579259E+02  0.25500000000E-02 0. -1.
          2   -1    0    0  501    0  0.00000000000E+00 -0.00000000000E+00 -0.58784977403E+03  0.58784977404E+03  0.25500000000E-02 0.  1.
    5000001    1    1    2    0    0 -0.43612397780E+02 -0.76913705999E+02 -0.29448561049E+03  0.31696771791E+03  0.77000000000E+02 0.  0.
   -5000001    1    1    2    0    0  0.43612397780E+02  0.76913705999E+02 -0.26994158443E+03  0.29430463539E+03  0.77000000000E+02 0.  0.
<mgrwt>
<rscale>  0 0.23468241E+03</rscale>
<asrwt>0</asrwt>
<pdfrwt beam="1">  1        2 0.90438415E-01 0.23468241E+03</pdfrwt>
<pdfrwt beam="2">  1       -2 0.36034742E-02 0.23468241E+03</pdfrwt>
<totfact> 0.16376380E+04</totfact>
</mgrwt>
</event>
<event>
 4    1  0.6086918E-004  0.1973042E+03  0.7818608E-02  0.1152034E+00
         -2   -1    0    0    0  501 -0.00000000000E+00  0.00000000000E+00  0.97146659955E+01  0.97146663301E+01  0.25500000000E-02 0. -1.
          2   -1    0    0  501    0  0.00000000000E+00 -0.00000000000E+00 -0.10018089652E+04  0.10018089652E+04  0.25500000000E-02 0.  1.
    5000001    1    1    2    0    0 -0.39124641329E+02  0.38676334227E+02 -0.35317406146E+03  0.36563303198E+03  0.77000000000E+02 0.  0.
   -5000001    1    1    2    0    0  0.39124641329E+02 -0.38676334227E+02 -0.63892023770E+03  0.64589059951E+03  0.77000000000E+02 0.  0.
<mgrwt>
<rscale>  0 0.19730423E+03</rscale>
<asrwt>0</asrwt>
<pdfrwt beam="1">  1        2 0.15412437E+00 0.19730423E+03</pdfrwt>
<pdfrwt beam="2">  1       -2 0.14945648E-02 0.19730423E+03</pdfrwt>
<totfact> 0.30312467E+04</totfact>
</mgrwt>
</event>
<event>
 4    1  0.6086918E-004  0.1751866E+03  0.7818608E-02  0.1172545E+00
         -2   -1    0    0    0  501 -0.00000000000E+00  0.00000000000E+00  0.61783797042E+02  0.61783797095E+02  0.25500000000E-02 0. -1.
          2   -1    0    0  501    0  0.00000000000E+00 -0.00000000000E+00 -0.12418438413E+03  0.12418438416E+03  0.25500000000E-02 0.  1.
    5000001    1    1    2    0    0  0.35205904252E+02 -0.17909979284E+02 -0.45574697614E+02  0.97807341824E+02  0.77000000000E+02 0.  0.
   -5000001    1    1    2    0    0 -0.35205904252E+02  0.17909979284E+02 -0.16825889477E+02  0.88160839429E+02  0.77000000000E+02 0.  0.
<mgrwt>
<rscale>  0 0.17518656E+03</rscale>
<asrwt>0</asrwt>
<pdfrwt beam="1">  1        2 0.19105290E-01 0.17518656E+03</pdfrwt>
<pdfrwt beam="2">  1       -2 0.95051996E-02 0.17518656E+03</pdfrwt>
<totfact> 0.20030271E+04</totfact>
</mgrwt>
</event>
<event>
 4    1  0.6086918E-004  0.2881478E+03  0.7818608E-02  0.1091320E+00
         -2   -1    0    0    0  501 -0.00000000000E+00  0.00000000000E+00  0.74302555395E+02  0.74302555439E+02  0.25500000000E-02 0. -1.
          2   -1    0    0  501    0  0.00000000000E+00 -0.00000000000E+00 -0.27936174814E+03  0.27936174816E+03  0.25500000000E-02 0.  1.
    5000001    1    1    2    0    0  0.92009224587E+02  0.74596929531E+02 -0.13719913566E+03  0.19693400451E+03  0.77000000000E+02 0.  0.
   -5000001    1    1    2    0    0 -0.92009224587E+02 -0.74596929531E+02 -0.67860057090E+02  0.15673029909E+03  0.77000000000E+02 0.  0.
<mgrwt>
<rscale>  0 0.28814782E+03</rscale>
<asrwt>0</asrwt>
<pdfrwt beam="1">  1        2 0.42978730E-01 0.28814782E+03</pdfrwt>
<pdfrwt beam="2">  1       -2 0.11431163E-01 0.28814782E+03</pdfrwt>
<totfact> 0.62903356E+03</totfact>
</mgrwt>
</event>
<event>
 4    1  0.6086918E-004  0.5409479E+03  0.7818608E-02  0.1003611E+00
         -2   -1    0    0    0  501 -0.00000000000E+00  0.00000000000E+00  0.52731458370E+02  0.52731458432E+02  0.25500000000E-02 0. -1.
          2   -1    0    0  501    0  0.00000000000E+00 -0.00000000000E+00 -0.13873342429E+04  0.13873342429E+04  0.25500000000E-02 0.  1.
    5000001    1    1    2    0    0  0.50060202147E+02 -0.25425589493E+03 -0.69036735415E+03  0.74140958155E+03  0.77000000000E+02 0.  0.
   -5000001    1    1    2    0    0 -0.50060202147E+02  0.25425589493E+03 -0.64423543036E+03  0.69865611976E+03  0.77000000000E+02 0.  0.
<mgrwt>
<rscale>  0 0.54094790E+03</rscale>
<asrwt>0</asrwt>
<pdfrwt beam="1">  1        2 0.21343601E+00 0.54094790E+03</pdfrwt>
<pdfrwt beam="2">  1       -2 0.81125331E-02 0.54094790E+03</pdfrwt>
<totfact> 0.14392363E+03</totfact>
</mgrwt>
</event>
<event>
 4    1  0.6086918E-004  0.2863852E+03  0.7818608E-02  0.1092252E+00
         -2   -1    0    0    0  501 -0.00000000000E+00  0.00000000000E+00  0.24043132574E+02  0.24043132710E+02  0.25500000000E-02 0. -1.
          2   -1    0    0  501    0  0.00000000000E+00 -0.00000000000E+00 -0.85280592304E+03  0.85280592304E+03  0.25500000000E-02 0.  1.
    5000001    1    1    2    0    0  0.40950213202E+02 -0.96259824441E+02 -0.22985342337E+03  0.26401604117E+03  0.77000000000E+02 0.  0.
   -5000001    1    1    2    0    0 -0.40950213202E+02  0.96259824441E+02 -0.59890936710E+03  0.61283301458E+03  0.77000000000E+02 0.  0.
<mgrwt>
<rscale>  0 0.28638524E+03</rscale>
<asrwt>0</asrwt>
<pdfrwt beam="1">  1        2 0.13120089E+00 0.28638524E+03</pdfrwt>
<pdfrwt beam="2">  1       -2 0.36989441E-02 0.28638524E+03</pdfrwt>
<totfact> 0.10083389E+04</totfact>
</mgrwt>
</event>
<event>
 4    1  0.6086918E-004  0.5148395E+03  0.7818608E-02  0.1009977E+00
         -2   -1    0    0    0  501 -0.00000000000E+00  0.00000000000E+00  0.91854745795E+02  0.91854745830E+02  0.25500000000E-02 0. -1.
          2   -1    0    0  501    0  0.00000000000E+00 -0.00000000000E+00 -0.72140988320E+03  0.72140988321E+03  0.25500000000E-02 0.  1.
    5000001    1    1    2    0    0 -0.13239102868E+03 -0.20464699043E+03 -0.36290229355E+03  0.44388607754E+03  0.77000000000E+02 0.  0.
   -5000001    1    1    2    0    0  0.13239102868E+03  0.20464699043E+03 -0.26665284385E+03  0.36937855150E+03  0.77000000000E+02 0.  0.
<mgrwt>
<rscale>  0 0.51483948E+03</rscale>
<asrwt>0</asrwt>
<pdfrwt beam="1">  1        2 0.11098613E+00 0.51483948E+03</pdfrwt>
<pdfrwt beam="2">  1       -2 0.14131500E-01 0.51483948E+03</pdfrwt>
<totfact> 0.15307106E+03</totfact>
</mgrwt>
</event>
<event>
 4    1  0.6086918E-004  0.5416827E+03  0.7818608E-02  0.1003438E+00
         -2   -1    0    0    0  501 -0.00000000000E+00  0.00000000000E+00  0.12658197972E+03  0.12658197975E+03  0.25500000000E-02 0.  1.
          2   -1    0    0  501    0  0.00000000000E+00 -0.00000000000E+00 -0.57950610101E+03  0.57950610102E+03  0.25500000000E-02 0. -1.
    5000001    1    1    2    0    0  0.10488247878E+03  0.20413402980E+03 -0.38479943588E+03  0.45461042919E+03  0.77000000000E+02 0.  0.
   -5000001    1    1    2    0    0 -0.10488247878E+03 -0.20413402980E+03 -0.68124685415E+02  0.25147765157E+03  0.77000000000E+02 0.  0.
<mgrwt>
<rscale>  0 0.54168267E+03</rscale>
<asrwt>0</asrwt>
<pdfrwt beam="1">  1        2 0.89154783E-01 0.54168267E+03</pdfrwt>
<pdfrwt beam="2">  1       -2 0.19474151E-01 0.54168267E+03</pdfrwt>
<totfact> 0.11590318E+03</totfact>
</mgrwt>
</event>
<event>
 4    1  0.6086918E-004  0.2929791E+03  0.7818608E-02  0.1088804E+00
          2   -1    0    0  501    0  0.00000000000E+00  0.00000000000E+00  0.23225337542E+03  0.23225337544E+03  0.25500000000E-02 0.  1.
         -2   -1    0    0    0  501 -0.00000000000E+00 -0.00000000000E+00 -0.92395614779E+02  0.92395614814E+02  0.25500000000E-02 0. -1.
    5000001    1    1    2    0    0 -0.27545298481E+02 -0.11907359905E+03  0.42946620038E+02  0.15070062253E+03  0.77000000000E+02 0.  0.
   -5000001    1    1    2    0    0  0.27545298481E+02  0.11907359905E+03  0.96911140607E+02  0.17394836772E+03  0.77000000000E+02 0.  0.
<mgrwt>
<rscale>  0 0.29297914E+03</rscale>
<asrwt>0</asrwt>
<pdfrwt beam="1">  1        2 0.35731288E-01 0.29297914E+03</pdfrwt>
<pdfrwt beam="2">  1       -2 0.14214710E-01 0.29297914E+03</pdfrwt>
<totfact> 0.53910796E+03</totfact>
</mgrwt>
</event>
<event>
 4    1  0.6086918E-004  0.2616368E+03  0.7818608E-02  0.1106164E+00
          2   -1    0    0  501    0  0.00000000000E+00  0.00000000000E+00  0.24884189989E+04  0.24884189989E+04  0.25500000000E-02 0.  1.
         -2   -1    0    0    0  501 -0.00000000000E+00 -0.00000000000E+00 -0.68772407456E+01  0.68772412184E+01  0.25500000000E-02 0. -1.
    5000001    1    1    2    0    0 -0.65997678236E+02 -0.35255209006E+02  0.52797160798E+03  0.53877791541E+03  0.77000000000E+02 0.  0.
   -5000001    1    1    2    0    0  0.65997678236E+02  0.35255209006E+02  0.19535701502E+04  0.19565183248E+04  0.77000000000E+02 0.  0.
<mgrwt>
<rscale>  0 0.26163683E+03</rscale>
<asrwt>0</asrwt>
<pdfrwt beam="1">  1        2 0.38283346E+00 0.26163683E+03</pdfrwt>
<pdfrwt beam="2">  1       -2 0.10580377E-02 0.26163683E+03</pdfrwt>
<totfact> 0.79922641E+03</totfact>
</mgrwt>
</event>
<event>
 4    1  0.6086918E-004  0.2169725E+03  0.7818608E-02  0.1136161E+00
          2   -1    0    0  501    0  0.00000000000E+00  0.00000000000E+00  0.20125612637E+04  0.20125612637E+04  0.25500000000E-02 0.  1.
         -2   -1    0    0    0  501 -0.00000000000E+00 -0.00000000000E+00 -0.58479023944E+01  0.58479029504E+01  0.25500000000E-02 0. -1.
    5000001    1    1    2    0    0 -0.56287119757E+02 -0.51153137358E+02  0.10725839935E+04  0.10780307539E+04  0.77000000000E+02 0.  0.
   -5000001    1    1    2    0    0  0.56287119757E+02  0.51153137358E+02  0.93412936783E+03  0.94037841275E+03  0.77000000000E+02 0.  0.
<mgrwt>
<rscale>  0 0.21697246E+03</rscale>
<asrwt>0</asrwt>
<pdfrwt beam="1">  1        2 0.30962513E+00 0.21697246E+03</pdfrwt>
<pdfrwt beam="2">  1       -2 0.89967640E-03 0.21697246E+03</pdfrwt>
<totfact> 0.18052898E+04</totfact>
</mgrwt>
</event>
<event>
 4    1  0.6086918E-004  0.4213242E+03  0.7818608E-02  0.1036636E+00
         -2   -1    0    0    0  501 -0.00000000000E+00  0.00000000000E+00  0.24270343334E+03  0.24270343336E+03  0.25500000000E-02 0.  1.
          2   -1    0    0  501    0  0.00000000000E+00 -0.00000000000E+00 -0.18285078121E+03  0.18285078123E+03  0.25500000000E-02 0. -1.
    5000001    1    1    2    0    0 -0.83637460662E+02  0.46024016266E+02 -0.14307106447E+03  0.18844565367E+03  0.77000000000E+02 0.  0.
   -5000001    1    1    2    0    0  0.83637460662E+02 -0.46024016266E+02  0.20292371660E+03  0.23710856091E+03  0.77000000000E+02 0.  0.
<mgrwt>
<rscale>  0 0.42132416E+03</rscale>
<asrwt>0</asrwt>
<pdfrwt beam="1">  1        2 0.28130890E-01 0.42132416E+03</pdfrwt>
<pdfrwt beam="2">  1       -2 0.37338990E-01 0.42132416E+03</pdfrwt>
<totfact> 0.12900338E+03</totfact>
</mgrwt>
</event>
<event>
 4    1  0.6086918E-004  0.2524792E+03  0.7818608E-02  0.1111748E+00
         -2   -1    0    0    0  501 -0.00000000000E+00  0.00000000000E+00  0.31182634250E+03  0.31182634251E+03  0.25500000000E-02 0. -1.
          2   -1    0    0  501    0  0.00000000000E+00 -0.00000000000E+00 -0.51106772284E+02  0.51106772348E+02  0.25500000000E-02 0.  1.
    5000001    1    1    2    0    0  0.62804462880E+02 -0.91665241638E-01  0.18429968182E+02  0.10105974811E+03  0.77000000000E+02 0.  0.
   -5000001    1    1    2    0    0 -0.62804462880E+02  0.91665241638E-01  0.24228960203E+03  0.26187336675E+03  0.77000000000E+02 0.  0.
<mgrwt>
<rscale>  0 0.25247921E+03</rscale>
<asrwt>0</asrwt>
<pdfrwt beam="1">  1        2 0.78625803E-02 0.25247921E+03</pdfrwt>
<pdfrwt beam="2">  1       -2 0.47973284E-01 0.25247921E+03</pdfrwt>
<totfact> 0.35969874E+03</totfact>
</mgrwt>
</event>
<event>
 4    1  0.6086918E-004  0.4033619E+03  0.7818608E-02  0.1042622E+00
         -2   -1    0    0    0  501 -0.00000000000E+00  0.00000000000E+00  0.24774035263E+03  0.24774035265E+03  0.25500000000E-02 0. -1.
          2   -1    0    0  501    0  0.00000000000E+00 -0.00000000000E+00 -0.16418480605E+03  0.16418480607E+03  0.25500000000E-02 0.  1.
    5000001    1    1    2    0    0 -0.14859944876E+03 -0.10074146990E+03 -0.94423903941E+01  0.19557300086E+03  0.77000000000E+02 0.  0.
   -5000001    1    1    2    0    0  0.14859944876E+03  0.10074146990E+03  0.92997936973E+02  0.21635215786E+03  0.77000000000E+02 0.  0.
<mgrwt>
<rscale>  0 0.40336188E+03</rscale>
<asrwt>0</asrwt>
<pdfrwt beam="1">  1        2 0.25259201E-01 0.40336188E+03</pdfrwt>
<pdfrwt beam="2">  1       -2 0.38113900E-01 0.40336188E+03</pdfrwt>
<totfact> 0.13997242E+03</totfact>
</mgrwt>
</event>
<event>
 4    1  0.6086918E-004  0.1756198E+03  0.7818608E-02  0.1172111E+00
          2   -1    0    0  501    0  0.00000000000E+00  0.00000000000E+00  0.94874436220E+02  0.94874436254E+02  0.25500000000E-02 0.  1.
         -2   -1    0    0    0  501 -0.00000000000E+00 -0.00000000000E+00 -0.81271356814E+02  0.81271356854E+02  0.25500000000E-02 0. -1.
    5000001    1    1    2    0    0 -0.23767025802E+02  0.31100700737E+02  0.22642804702E+02  0.89296258077E+02  0.77000000000E+02 0.  0.
   -5000001    1    1    2    0    0  0.23767025802E+02 -0.31100700737E+02 -0.90397252967E+01  0.86849535032E+02  0.77000000000E+02 0.  0.
<mgrwt>
<rscale>  0 0.17561975E+03</rscale>
<asrwt>0</asrwt>
<pdfrwt beam="1">  1        2 0.14596067E-01 0.17561975E+03</pdfrwt>
<pdfrwt beam="2">  1       -2 0.12503286E-01 0.17561975E+03</pdfrwt>
<totfact> 0.17711235E+04</totfact>
</mgrwt>
</event>
<event>
 4    1  0.6086918E-004  0.2698759E+03  0.7818608E-02  0.1101351E+00
         -2   -1    0    0    0  501 -0.00000000000E+00  0.00000000000E+00  0.85371910654E+02  0.85371910692E+02  0.25500000000E-02 0. -1.
          2   -1    0    0  501    0  0.00000000000E+00 -0.00000000000E+00 -0.21328157599E+03  0.21328157600E+03  0.25500000000E-02 0.  1.
    5000001    1    1    2    0    0  0.70432022575E+02 -0.42525829102E+01 -0.15850880231E+03  0.18982306149E+03  0.77000000000E+02 0.  0.
   -5000001    1    1    2    0    0 -0.70432022575E+02  0.42525829102E+01  0.30599136977E+02  0.10883042520E+03  0.77000000000E+02 0.  0.
<mgrwt>
<rscale>  0 0.26987594E+03</rscale>
<asrwt>0</asrwt>
<pdfrwt beam="1">  1        2 0.32812550E-01 0.26987594E+03</pdfrwt>
<pdfrwt beam="2">  1       -2 0.13134140E-01 0.26987594E+03</pdfrwt>
<totfact> 0.67132233E+03</totfact>
</mgrwt>
</event>
<event>
 4    1  0.6086918E-004  0.4715954E+03  0.7818608E-02  0.1021471E+00
         -2   -1    0    0    0  501 -0.00000000000E+00  0.00000000000E+00  0.59904702648E+02  0.59904702703E+02  0.25500000000E-02 0. -1.
          2   -1    0    0  501    0  0.00000000000E+00 -0.00000000000E+00 -0.92815028913E+03  0.92815028913E+03  0.25500000000E-02 0.  1.
    5000001    1    1    2    0    0  0.20941430085E+03 -0.66952213651E+02 -0.51066308776E+03  0.56128668033E+03  0.77000000000E+02 0.  0.
   -5000001    1    1    2    0    0 -0.20941430085E+03  0.66952213651E+02 -0.35758249872E+03  0.42676831150E+03  0.77000000000E+02 0.  0.
<mgrwt>
<rscale>  0 0.47159545E+03</rscale>
<asrwt>0</asrwt>
<pdfrwt beam="1">  1        2 0.14279234E+00 0.47159545E+03</pdfrwt>
<pdfrwt beam="2">  1       -2 0.92161088E-02 0.47159545E+03</pdfrwt>
<totfact> 0.22068681E+03</totfact>
</mgrwt>
</event>
<event>
 4    1  0.6086918E-004  0.2786467E+03  0.7818608E-02  0.1096430E+00
          2   -1    0    0  501    0  0.00000000000E+00  0.00000000000E+00  0.55098458375E+03  0.55098458376E+03  0.25500000000E-02 0.  1.
         -2   -1    0    0    0  501 -0.00000000000E+00 -0.00000000000E+00 -0.35229650122E+02  0.35229650214E+02  0.25500000000E-02 0. -1.
    5000001    1    1    2    0    0 -0.55062451643E+02 -0.10096084015E+03  0.29160571626E+03  0.32278144088E+03  0.77000000000E+02 0.  0.
   -5000001    1    1    2    0    0  0.55062451643E+02  0.10096084015E+03  0.22414921737E+03  0.26343279309E+03  0.77000000000E+02 0.  0.
<mgrwt>
<rscale>  0 0.27864669E+03</rscale>
<asrwt>0</asrwt>
<pdfrwt beam="1">  1        2 0.84766855E-01 0.27864669E+03</pdfrwt>
<pdfrwt beam="2">  1       -2 0.54199464E-02 0.27864669E+03</pdfrwt>
<totfact> 0.95986705E+03</totfact>
</mgrwt>
</event>
<event>
 4    1  0.6086918E-004  0.1696943E+03  0.7818608E-02  0.1178167E+00
          2   -1    0    0  501    0  0.00000000000E+00  0.00000000000E+00  0.51372646546E+01  0.51372652874E+01  0.25500000000E-02 0.  1.
         -2   -1    0    0    0  501 -0.00000000000E+00 -0.00000000000E+00 -0.14013367688E+04  0.14013367688E+04  0.25500000000E-02 0. -1.
    5000001    1    1    2    0    0  0.67395155093E+01 -0.14846350962E+02 -0.96074845372E+03  0.96396702564E+03  0.77000000000E+02 0.  0.
   -5000001    1    1    2    0    0 -0.67395155093E+01  0.14846350962E+02 -0.43545105045E+03  0.44250700847E+03  0.77000000000E+02 0.  0.
<mgrwt>
<rscale>  0 0.16969429E+03</rscale>
<asrwt>0</asrwt>
<pdfrwt beam="1">  1        2 0.79034957E-03 0.16969429E+03</pdfrwt>
<pdfrwt beam="2">  1       -2 0.21558997E+00 0.16969429E+03</pdfrwt>
<totfact> 0.22542103E+03</totfact>
</mgrwt>
</event>
<event>
 4    1  0.6086918E-004  0.1900402E+03  0.7818608E-02  0.1158425E+00
         -2   -1    0    0    0  501 -0.00000000000E+00  0.00000000000E+00  0.14009909083E+02  0.14009909315E+02  0.25500000000E-02 0. -1.
          2   -1    0    0  501    0  0.00000000000E+00 -0.00000000000E+00 -0.64445924800E+03  0.64445924800E+03  0.25500000000E-02 0.  1.
    5000001    1    1    2    0    0 -0.17200708823E+02  0.48690086898E+02 -0.24310601579E+03  0.26018478791E+03  0.77000000000E+02 0.  0.
   -5000001    1    1    2    0    0  0.17200708823E+02 -0.48690086898E+02 -0.38734332313E+03  0.39828436941E+03  0.77000000000E+02 0.  0.
<mgrwt>
<rscale>  0 0.19004016E+03</rscale>
<asrwt>0</asrwt>
<pdfrwt beam="1">  1        2 0.99147554E-01 0.19004016E+03</pdfrwt>
<pdfrwt beam="2">  1       -2 0.21553711E-02 0.19004016E+03</pdfrwt>
<totfact> 0.31027146E+04</totfact>
</mgrwt>
</event>
<event>
 4    1  0.6086918E-004  0.1729173E+03  0.7818608E-02  0.1174839E+00
         -2   -1    0    0    0  501 -0.00000000000E+00  0.00000000000E+00  0.32577469425E+02  0.32577469525E+02  0.25500000000E-02 0. -1.
          2   -1    0    0  501    0  0.00000000000E+00 -0.00000000000E+00 -0.22945611098E+03  0.22945611100E+03  0.25500000000E-02 0.  1.
    5000001    1    1    2    0    0 -0.32087941358E+02  0.18206303710E+02 -0.11905023545E+03  0.14650277825E+03  0.77000000000E+02 0.  0.
   -5000001    1    1    2    0    0  0.32087941358E+02 -0.18206303710E+02 -0.77828406109E+02  0.11553080227E+03  0.77000000000E+02 0.  0.
<mgrwt>
<rscale>  0 0.17291731E+03</rscale>
<asrwt>0</asrwt>
<pdfrwt beam="1">  1        2 0.35300939E-01 0.17291731E+03</pdfrwt>
<pdfrwt beam="2">  1       -2 0.50119185E-02 0.17291731E+03</pdfrwt>
<totfact> 0.27144595E+04</totfact>
</mgrwt>
</event>
<event>
 4    1  0.6086918E-004  0.1997099E+03  0.7818608E-02  0.1149984E+00
         -2   -1    0    0    0  501 -0.00000000000E+00  0.00000000000E+00  0.39381503360E+02  0.39381503443E+02  0.25500000000E-02 0. -1.
          2   -1    0    0  501    0  0.00000000000E+00 -0.00000000000E+00 -0.25319011818E+03  0.25319011820E+03  0.25500000000E-02 0.  1.
    5000001    1    1    2    0    0  0.63491143072E+02 -0.31916415820E+01 -0.10568240289E+03  0.14539285438E+03  0.77000000000E+02 0.  0.
   -5000001    1    1    2    0    0 -0.63491143072E+02  0.31916415820E+01 -0.10812621193E+03  0.14717876726E+03  0.77000000000E+02 0.  0.
<mgrwt>
<rscale>  0 0.19970986E+03</rscale>
<asrwt>0</asrwt>
<pdfrwt beam="1">  1        2 0.38952325E-01 0.19970986E+03</pdfrwt>
<pdfrwt beam="2">  1       -2 0.60586930E-02 0.19970986E+03</pdfrwt>
<totfact> 0.18527412E+04</totfact>
</mgrwt>
</event>
<event>
 4    1  0.6086918E-004  0.2226012E+03  0.7818608E-02  0.1131959E+00
         -2   -1    0    0    0  501 -0.00000000000E+00  0.00000000000E+00  0.11637071074E+02  0.11637071354E+02  0.25500000000E-02 0. -1.
          2   -1    0    0  501    0  0.00000000000E+00 -0.00000000000E+00 -0.10645135486E+04  0.10645135486E+04  0.25500000000E-02 0.  1.
    5000001    1    1    2    0    0  0.64843094281E+02 -0.37055732450E+02 -0.66993754188E+03  0.67847112260E+03  0.77000000000E+02 0.  0.
   -5000001    1    1    2    0    0 -0.64843094281E+02  0.37055732450E+02 -0.38293893564E+03  0.39767949735E+03  0.77000000000E+02 0.  0.
<mgrwt>
<rscale>  0 0.22260117E+03</rscale>
<asrwt>0</asrwt>
<pdfrwt beam="1">  1        2 0.16377124E+00 0.22260117E+03</pdfrwt>
<pdfrwt beam="2">  1       -2 0.17903195E-02 0.22260117E+03</pdfrwt>
<totfact> 0.21528966E+04</totfact>
</mgrwt>
</event>
<event>
 4    1  0.6086918E-004  0.3084265E+03  0.7818608E-02  0.1081103E+00
         -2   -1    0    0    0  501 -0.00000000000E+00  0.00000000000E+00  0.16838800979E+02  0.16838801172E+02  0.25500000000E-02 0. -1.
          2   -1    0    0  501    0  0.00000000000E+00 -0.00000000000E+00 -0.14123169365E+04  0.14123169365E+04  0.25500000000E-02 0.  1.
    5000001    1    1    2    0    0  0.13159308926E+03  0.10901709497E+02 -0.79237727219E+03  0.80698595396E+03  0.77000000000E+02 0.  0.
   -5000001    1    1    2    0    0 -0.13159308926E+03 -0.10901709497E+02 -0.60310086331E+03  0.62216978369E+03  0.77000000000E+02 0.  0.
<mgrwt>
<rscale>  0 0.30842648E+03</rscale>
<asrwt>0</asrwt>
<pdfrwt beam="1">  1        2 0.21727944E+00 0.30842648E+03</pdfrwt>
<pdfrwt beam="2">  1       -2 0.25905859E-02 0.30842648E+03</pdfrwt>
<totfact> 0.80387877E+03</totfact>
</mgrwt>
</event>
<event>
 4    1  0.6086918E-004  0.2266052E+03  0.7818608E-02  0.1129052E+00
         -2   -1    0    0    0  501 -0.00000000000E+00  0.00000000000E+00  0.17506072248E+02  0.17506072433E+02  0.25500000000E-02 0. -1.
          2   -1    0    0  501    0  0.00000000000E+00 -0.00000000000E+00 -0.73331553811E+03  0.73331553812E+03  0.25500000000E-02 0.  1.
    5000001    1    1    2    0    0  0.72474389822E+02  0.40001069307E+02 -0.33314266791E+03  0.35180343931E+03  0.77000000000E+02 0.  0.
   -5000001    1    1    2    0    0 -0.72474389822E+02 -0.40001069307E+02 -0.38266679796E+03  0.39901817125E+03  0.77000000000E+02 0.  0.
<mgrwt>
<rscale>  0 0.22660516E+03</rscale>
<asrwt>0</asrwt>
<pdfrwt beam="1">  1        2 0.11281775E+00 0.22660516E+03</pdfrwt>
<pdfrwt beam="2">  1       -2 0.26932425E-02 0.22660516E+03</pdfrwt>
<totfact> 0.19381492E+04</totfact>
</mgrwt>
</event>
<event>
 4    1  0.6086918E-004  0.2028272E+03  0.7818608E-02  0.1147375E+00
          2   -1    0    0  501    0  0.00000000000E+00  0.00000000000E+00  0.37794791608E+03  0.37794791609E+03  0.25500000000E-02 0.  1.
         -2   -1    0    0    0  501 -0.00000000000E+00 -0.00000000000E+00 -0.27212005098E+02  0.27212005218E+02  0.25500000000E-02 0. -1.
    5000001    1    1    2    0    0 -0.35672338191E+02  0.27652385093E+02  0.27155321373E+03  0.28584491949E+03  0.77000000000E+02 0.  0.
   -5000001    1    1    2    0    0  0.35672338191E+02 -0.27652385093E+02  0.79182697249E+02  0.11931500181E+03  0.77000000000E+02 0.  0.
<mgrwt>
<rscale>  0 0.20282722E+03</rscale>
<asrwt>0</asrwt>
<pdfrwt beam="1">  1        2 0.58145827E-01 0.20282722E+03</pdfrwt>
<pdfrwt beam="2">  1       -2 0.41864628E-02 0.20282722E+03</pdfrwt>
<totfact> 0.21127157E+04</totfact>
</mgrwt>
</event>
<event>
 4    1  0.6086918E-004  0.5944448E+03  0.7818608E-02  0.9916999E-01
          2   -1    0    0  501    0  0.00000000000E+00  0.00000000000E+00  0.11913814266E+04  0.11913814266E+04  0.25500000000E-02 0.  1.
         -2   -1    0    0    0  501 -0.00000000000E+00 -0.00000000000E+00 -0.74150196158E+02  0.74150196202E+02  0.25500000000E-02 0. -1.
    5000001    1    1    2    0    0 -0.19551842447E+03 -0.20084941330E+03  0.69061316265E+03  0.74929532333E+03  0.77000000000E+02 0.  0.
   -5000001    1    1    2    0    0  0.19551842447E+03  0.20084941330E+03  0.42661806777E+03  0.51623629945E+03  0.77000000000E+02 0.  0.
<mgrwt>
<rscale>  0 0.59444484E+03</rscale>
<asrwt>0</asrwt>
<pdfrwt beam="1">  1        2 0.18328945E+00 0.59444484E+03</pdfrwt>
<pdfrwt beam="2">  1       -2 0.11407722E-01 0.59444484E+03</pdfrwt>
<totfact> 0.10728060E+03</totfact>
</mgrwt>
</event>
<event>
 4    1  0.6086918E-004  0.2360788E+03  0.7818608E-02  0.1122433E+00
         -2   -1    0    0    0  501 -0.00000000000E+00  0.00000000000E+00  0.59408199689E+02  0.59408199743E+02  0.25500000000E-02 0. -1.
          2   -1    0    0  501    0  0.00000000000E+00 -0.00000000000E+00 -0.23453487582E+03  0.23453487584E+03  0.25500000000E-02 0.  1.
    5000001    1    1    2    0    0 -0.71675725596E+02  0.43233061438E+02 -0.48233210336E+02  0.12353926429E+03  0.77000000000E+02 0.  0.
   -5000001    1    1    2    0    0  0.71675725596E+02 -0.43233061438E+02 -0.12689346580E+03  0.17040381129E+03  0.77000000000E+02 0.  0.
<mgrwt>
<rscale>  0 0.23607876E+03</rscale>
<asrwt>0</asrwt>
<pdfrwt beam="1">  1        2 0.36082288E-01 0.23607876E+03</pdfrwt>
<pdfrwt beam="2">  1       -2 0.91397232E-02 0.23607876E+03</pdfrwt>
<totfact> 0.10752737E+04</totfact>
</mgrwt>
</event>
<event>
 4    1  0.6086918E-004  0.2338472E+03  0.7818608E-02  0.1123961E+00
         -2   -1    0    0    0  501 -0.00000000000E+00  0.00000000000E+00  0.86322104780E+01  0.86322108547E+01  0.25500000000E-02 0. -1.
          2   -1    0    0  501    0  0.00000000000E+00 -0.00000000000E+00 -0.15837345912E+04  0.15837345913E+04  0.25500000000E-02 0.  1.
    5000001    1    1    2    0    0 -0.75429928309E+02 -0.19482250817E+02 -0.50903804869E+03  0.52068989543E+03  0.77000000000E+02 0.  0.
   -5000001    1    1    2    0    0  0.75429928309E+02  0.19482250817E+02 -0.10660643321E+04  0.10716769067E+04  0.77000000000E+02 0.  0.
<mgrwt>
<rscale>  0 0.23384722E+03</rscale>
<asrwt>0</asrwt>
<pdfrwt beam="1">  1        2 0.24365124E+00 0.23384722E+03</pdfrwt>
<pdfrwt beam="2">  1       -2 0.13280337E-02 0.23384722E+03</pdfrwt>
<totfact> 0.17249300E+04</totfact>
</mgrwt>
</event>
<event>
 4    1  0.6086918E-004  0.2201719E+03  0.7818608E-02  0.1133755E+00
          2   -1    0    0  501    0  0.00000000000E+00  0.00000000000E+00  0.13108387203E+04  0.13108387203E+04  0.25500000000E-02 0.  1.
         -2   -1    0    0    0  501 -0.00000000000E+00 -0.00000000000E+00 -0.92451638845E+01  0.92451642361E+01  0.25500000000E-02 0. -1.
    5000001    1    1    2    0    0  0.42070960379E+02 -0.65679944169E+02  0.71255484794E+03  0.72093497078E+03  0.77000000000E+02 0.  0.
   -5000001    1    1    2    0    0 -0.42070960379E+02  0.65679944169E+02  0.58903870847E+03  0.59914891375E+03  0.77000000000E+02 0.  0.
<mgrwt>
<rscale>  0 0.22017192E+03</rscale>
<asrwt>0</asrwt>
<pdfrwt beam="1">  1        2 0.20166730E+00 0.22017192E+03</pdfrwt>
<pdfrwt beam="2">  1       -2 0.14223343E-02 0.22017192E+03</pdfrwt>
<totfact> 0.21811773E+04</totfact>
</mgrwt>
</event>
<event>
 4    1  0.6086918E-004  0.2153001E+03  0.7818608E-02  0.1137436E+00
          2   -1    0    0  501    0  0.00000000000E+00  0.00000000000E+00  0.25467026065E+03  0.25467026066E+03  0.25500000000E-02 0.  1.
         -2   -1    0    0    0  501 -0.00000000000E+00 -0.00000000000E+00 -0.45504063835E+02  0.45504063907E+02  0.25500000000E-02 0. -1.
    5000001    1    1    2    0    0 -0.69576091373E+02  0.96264769584E+01  0.14215011434E+03  0.17626445063E+03  0.77000000000E+02 0.  0.
   -5000001    1    1    2    0    0  0.69576091373E+02 -0.96264769584E+01  0.67016082477E+02  0.12390987394E+03  0.77000000000E+02 0.  0.
<mgrwt>
<rscale>  0 0.21530009E+03</rscale>
<asrwt>0</asrwt>
<pdfrwt beam="1">  1        2 0.39180040E-01 0.21530009E+03</pdfrwt>
<pdfrwt beam="2">  1       -2 0.70006252E-02 0.21530009E+03</pdfrwt>
<totfact> 0.14824474E+04</totfact>
</mgrwt>
</event>
<event>
 4    1  0.6086918E-004  0.2587206E+03  0.7818608E-02  0.1107914E+00
         -2   -1    0    0    0  501 -0.00000000000E+00  0.00000000000E+00  0.41880025107E+02  0.41880025185E+02  0.25500000000E-02 0. -1.
          2   -1    0    0  501    0  0.00000000000E+00 -0.00000000000E+00 -0.39957201465E+03  0.39957201466E+03  0.25500000000E-02 0.  1.
    5000001    1    1    2    0    0 -0.10084432938E+03  0.67298295283E+01 -0.22029921391E+03  0.25431400478E+03  0.77000000000E+02 0.  0.
   -5000001    1    1    2    0    0  0.10084432938E+03 -0.67298295283E+01 -0.13739277563E+03  0.18713803507E+03  0.77000000000E+02 0.  0.
<mgrwt>
<rscale>  0 0.25872059E+03</rscale>
<asrwt>0</asrwt>
<pdfrwt beam="1">  1        2 0.61472615E-01 0.25872059E+03</pdfrwt>
<pdfrwt beam="2">  1       -2 0.64430811E-02 0.25872059E+03</pdfrwt>
<totfact> 0.10484319E+04</totfact>
</mgrwt>
</event>
<event>
 4    1  0.6086918E-004  0.2080982E+03  0.7818608E-02  0.1143081E+00
          2   -1    0    0  501    0  0.00000000000E+00  0.00000000000E+00  0.17443649158E+03  0.17443649160E+03  0.25500000000E-02 0.  1.
         -2   -1    0    0    0  501 -0.00000000000E+00 -0.00000000000E+00 -0.62063916667E+02  0.62063916720E+02  0.25500000000E-02 0. -1.
    5000001    1    1    2    0    0  0.10031173612E+02 -0.69251077533E+02  0.55122776780E+02  0.11774487973E+03  0.77000000000E+02 0.  0.
   -5000001    1    1    2    0    0 -0.10031173612E+02  0.69251077533E+02  0.57249798135E+02  0.11875552859E+03  0.77000000000E+02 0.  0.
<mgrwt>
<rscale>  0 0.20809817E+03</rscale>
<asrwt>0</asrwt>
<pdfrwt beam="1">  1        2 0.26836383E-01 0.20809817E+03</pdfrwt>
<pdfrwt beam="2">  1       -2 0.95482950E-02 0.20809817E+03</pdfrwt>
<totfact> 0.13758569E+04</totfact>
</mgrwt>
</event>
<event>
 4    1  0.6086918E-004  0.3778290E+03  0.7818608E-02  0.1051739E+00
          2   -1    0    0  501    0  0.00000000000E+00  0.00000000000E+00  0.85817740044E+02  0.85817740082E+02  0.25500000000E-02 0.  1.
         -2   -1    0    0    0  501 -0.00000000000E+00 -0.00000000000E+00 -0.41586607324E+03  0.41586607325E+03  0.25500000000E-02 0. -1.
    5000001    1    1    2    0    0  0.16460223415E+03  0.32257819111E+02 -0.11149488064E+03  0.21562599748E+03  0.77000000000E+02 0.  0.
   -5000001    1    1    2    0    0 -0.16460223415E+03 -0.32257819111E+02 -0.21855345256E+03  0.28605781585E+03  0.77000000000E+02 0.  0.
<mgrwt>
<rscale>  0 0.37782899E+03</rscale>
<asrwt>0</asrwt>
<pdfrwt beam="1">  1        2 0.13202729E-01 0.37782899E+03</pdfrwt>
<pdfrwt beam="2">  1       -2 0.63979395E-01 0.37782899E+03</pdfrwt>
<totfact> 0.10574180E+03</totfact>
</mgrwt>
</event>
<event>
 4    1  0.6086918E-004  0.4509816E+03  0.7818608E-02  0.1027430E+00
          2   -1    0    0  501    0  0.00000000000E+00  0.00000000000E+00  0.16887340820E+04  0.16887340820E+04  0.25500000000E-02 0.  1.
         -2   -1    0    0    0  501 -0.00000000000E+00 -0.00000000000E+00 -0.30109003859E+02  0.30109003967E+02  0.25500000000E-02 0. -1.
    5000001    1    1    2    0    0  0.81819841891E+02 -0.12944124035E+03  0.13877428087E+04  0.13982877473E+04  0.77000000000E+02 0.  0.
   -5000001    1    1    2    0    0 -0.81819841891E+02  0.12944124035E+03  0.27088226942E+03  0.32055533862E+03  0.77000000000E+02 0.  0.
<mgrwt>
<rscale>  0 0.45098160E+03</rscale>
<asrwt>0</asrwt>
<pdfrwt beam="1">  1        2 0.25980517E+00 0.45098160E+03</pdfrwt>
<pdfrwt beam="2">  1       -2 0.46321557E-02 0.45098160E+03</pdfrwt>
<totfact> 0.23703159E+03</totfact>
</mgrwt>
</event>
<event>
 4    1  0.6086918E-004  0.1838401E+03  0.7818608E-02  0.1164137E+00
          2   -1    0    0  501    0  0.00000000000E+00  0.00000000000E+00  0.11940758643E+04  0.11940758644E+04  0.25500000000E-02 0.  1.
         -2   -1    0    0    0  501 -0.00000000000E+00 -0.00000000000E+00 -0.70760152800E+01  0.70760157395E+01  0.25500000000E-02 0. -1.
    5000001    1    1    2    0    0 -0.40123197269E+02 -0.48822423888E+01  0.78804467100E+03  0.79282855066E+03  0.77000000000E+02 0.  0.
   -5000001    1    1    2    0    0  0.40123197269E+02  0.48822423888E+01  0.39895517807E+03  0.40832332943E+03  0.77000000000E+02 0.  0.
<mgrwt>
<rscale>  0 0.18384014E+03</rscale>
<asrwt>0</asrwt>
<pdfrwt beam="1">  1        2 0.18370418E+00 0.18384014E+03</pdfrwt>
<pdfrwt beam="2">  1       -2 0.10886166E-02 0.18384014E+03</pdfrwt>
<totfact> 0.36884605E+04</totfact>
</mgrwt>
</event>
<event>
 4    1  0.6086918E-004  0.6479268E+03  0.7818608E-02  0.9810677E-01
         -2   -1    0    0    0  501 -0.00000000000E+00  0.00000000000E+00  0.33736062997E+02  0.33736063093E+02  0.25500000000E-02 0. -1.
          2   -1    0    0  501    0  0.00000000000E+00 -0.00000000000E+00 -0.31109823118E+04  0.31109823118E+04  0.25500000000E-02 0.  1.
    5000001    1    1    2    0    0  0.26310251829E+03  0.82945855195E+02 -0.80382782280E+03  0.85332943154E+03  0.77000000000E+02 0.  0.
   -5000001    1    1    2    0    0 -0.26310251829E+03 -0.82945855195E+02 -0.22734184260E+04  0.22913889434E+04  0.77000000000E+02 0.  0.
<mgrwt>
<rscale>  0 0.64792683E+03</rscale>
<asrwt>0</asrwt>
<pdfrwt beam="1">  1        2 0.47861244E+00 0.64792683E+03</pdfrwt>
<pdfrwt beam="2">  1       -2 0.51901660E-02 0.64792683E+03</pdfrwt>
<totfact> 0.30928075E+02</totfact>
</mgrwt>
</event>
<event>
 4    1  0.6086918E-004  0.2050579E+03  0.7818608E-02  0.1145540E+00
         -2   -1    0    0    0  501 -0.00000000000E+00  0.00000000000E+00  0.33036127708E+02  0.33036127807E+02  0.25500000000E-02 0. -1.
          2   -1    0    0  501    0  0.00000000000E+00 -0.00000000000E+00 -0.31820276670E+03  0.31820276672E+03  0.25500000000E-02 0.  1.
    5000001    1    1    2    0    0 -0.24190705649E+02  0.63128072024E+02 -0.14872190672E+03  0.18060329248E+03  0.77000000000E+02 0.  0.
   -5000001    1    1    2    0    0  0.24190705649E+02 -0.63128072024E+02 -0.13644473228E+03  0.17063560204E+03  0.77000000000E+02 0.  0.
<mgrwt>
<rscale>  0 0.20505792E+03</rscale>
<asrwt>0</asrwt>
<pdfrwt beam="1">  1        2 0.48954270E-01 0.20505792E+03</pdfrwt>
<pdfrwt beam="2">  1       -2 0.50824814E-02 0.20505792E+03</pdfrwt>
<totfact> 0.18985872E+04</totfact>
</mgrwt>
</event>
<event>
 4    1  0.6086918E-004  0.3178032E+03  0.7818608E-02  0.1076665E+00
          2   -1    0    0  501    0  0.00000000000E+00  0.00000000000E+00  0.75062447654E+03  0.75062447655E+03  0.25500000000E-02 0.  1.
         -2   -1    0    0    0  501 -0.00000000000E+00 -0.00000000000E+00 -0.33638283142E+02  0.33638283239E+02  0.25500000000E-02 0. -1.
    5000001    1    1    2    0    0  0.11921775109E+03  0.58120141268E+02  0.25585388980E+03  0.29829689225E+03  0.77000000000E+02 0.  0.
   -5000001    1    1    2    0    0 -0.11921775109E+03 -0.58120141268E+02  0.46113230359E+03  0.48596586754E+03  0.77000000000E+02 0.  0.
<mgrwt>
<rscale>  0 0.31780320E+03</rscale>
<asrwt>0</asrwt>
<pdfrwt beam="1">  1        2 0.11548069E+00 0.31780320E+03</pdfrwt>
<pdfrwt beam="2">  1       -2 0.51751206E-02 0.31780320E+03</pdfrwt>
<totfact> 0.71592820E+03</totfact>
</mgrwt>
</event>
<event>
 4    1  0.6086918E-004  0.2229215E+03  0.7818608E-02  0.1131723E+00
          2   -1    0    0  501    0  0.00000000000E+00  0.00000000000E+00  0.46714697824E+03  0.46714697825E+03  0.25500000000E-02 0.  1.
         -2   -1    0    0    0  501 -0.00000000000E+00 -0.00000000000E+00 -0.26594420469E+02  0.26594420592E+02  0.25500000000E-02 0. -1.
    5000001    1    1    2    0    0  0.55519370342E+02 -0.35888915239E+02  0.32235466860E+03  0.33795258113E+03  0.77000000000E+02 0.  0.
   -5000001    1    1    2    0    0 -0.55519370342E+02  0.35888915239E+02  0.11819788917E+03  0.15578881771E+03  0.77000000000E+02 0.  0.
<mgrwt>
<rscale>  0 0.22292154E+03</rscale>
<asrwt>0</asrwt>
<pdfrwt beam="1">  1        2 0.71868761E-01 0.22292154E+03</pdfrwt>
<pdfrwt beam="2">  1       -2 0.40914496E-02 0.22292154E+03</pdfrwt>
<totfact> 0.17479398E+04</totfact>
</mgrwt>
</event>
<event>
 4    1  0.6086918E-004  0.3278749E+03  0.7818608E-02  0.1072081E+00
         -2   -1    0    0    0  501 -0.00000000000E+00  0.00000000000E+00  0.53921807540E+02  0.53921807600E+02  0.25500000000E-02 0. -1.
          2   -1    0    0  501    0  0.00000000000E+00 -0.00000000000E+00 -0.49841581606E+03  0.49841581607E+03  0.25500000000E-02 0.  1.
    5000001    1    1    2    0    0 -0.13059757706E+03  0.59556809110E+02 -0.19101411066E+03  0.25103412341E+03  0.77000000000E+02 0.  0.
   -5000001    1    1    2    0    0  0.13059757706E+03 -0.59556809110E+02 -0.25347989786E+03  0.30130350025E+03  0.77000000000E+02 0.  0.
<mgrwt>
<rscale>  0 0.32787486E+03</rscale>
<asrwt>0</asrwt>
<pdfrwt beam="1">  1        2 0.76679353E-01 0.32787486E+03</pdfrwt>
<pdfrwt beam="2">  1       -2 0.82956630E-02 0.32787486E+03</pdfrwt>
<totfact> 0.55893809E+03</totfact>
</mgrwt>
</event>
<event>
 4    1  0.6086918E-004  0.1909412E+03  0.7818608E-02  0.1157615E+00
         -2   -1    0    0    0  501 -0.00000000000E+00  0.00000000000E+00  0.63469872115E+01  0.63469877238E+01  0.25500000000E-02 0. -1.
          2   -1    0    0  501    0  0.00000000000E+00 -0.00000000000E+00 -0.14360569171E+04  0.14360569171E+04  0.25500000000E-02 0.  1.
    5000001    1    1    2    0    0 -0.46477250678E+02 -0.31387514800E+02 -0.66688483466E+03  0.67365398657E+03  0.77000000000E+02 0.  0.
   -5000001    1    1    2    0    0  0.46477250678E+02  0.31387514800E+02 -0.76282509527E+03  0.76874991830E+03  0.77000000000E+02 0.  0.
<mgrwt>
<rscale>  0 0.19094120E+03</rscale>
<asrwt>0</asrwt>
<pdfrwt beam="1">  1        2 0.22093157E+00 0.19094120E+03</pdfrwt>
<pdfrwt beam="2">  1       -2 0.97646075E-03 0.19094120E+03</pdfrwt>
<totfact> 0.31916991E+04</totfact>
</mgrwt>
</event>
<event>
 4    1  0.6086918E-004  0.2778866E+03  0.7818608E-02  0.1096849E+00
         -2   -1    0    0    0  501 -0.00000000000E+00  0.00000000000E+00  0.16147705868E+02  0.16147706069E+02  0.25500000000E-02 0. -1.
          2   -1    0    0  501    0  0.00000000000E+00 -0.00000000000E+00 -0.11955406825E+04  0.11955406825E+04  0.25500000000E-02 0.  1.
    5000001    1    1    2    0    0 -0.69395244510E+02 -0.92333488082E+02 -0.56387571954E+03  0.58071163246E+03  0.77000000000E+02 0.  0.
   -5000001    1    1    2    0    0  0.69395244510E+02  0.92333488082E+02 -0.61551725709E+03  0.63097675611E+03  0.77000000000E+02 0.  0.
<mgrwt>
<rscale>  0 0.27788659E+03</rscale>
<asrwt>0</asrwt>
<pdfrwt beam="1">  1        2 0.18392927E+00 0.27788659E+03</pdfrwt>
<pdfrwt beam="2">  1       -2 0.24842634E-02 0.27788659E+03</pdfrwt>
<totfact> 0.11263979E+04</totfact>
</mgrwt>
</event>
<event>
 4    1  0.6086918E-004  0.1954312E+03  0.7818608E-02  0.1153652E+00
         -2   -1    0    0    0  501 -0.00000000000E+00  0.00000000000E+00  0.32138889495E+03  0.32138889496E+03  0.25500000000E-02 0. -1.
          2   -1    0    0  501    0  0.00000000000E+00 -0.00000000000E+00 -0.29709595970E+02  0.29709596080E+02  0.25500000000E-02 0.  1.
    5000001    1    1    2    0    0  0.53862854707E+02  0.26543690907E+02  0.15245508625E+03  0.18104509927E+03  0.77000000000E+02 0.  0.
   -5000001    1    1    2    0    0 -0.53862854707E+02 -0.26543690907E+02  0.13922421273E+03  0.17005339177E+03  0.77000000000E+02 0.  0.
<mgrwt>
<rscale>  0 0.19543116E+03</rscale>
<asrwt>0</asrwt>
<pdfrwt beam="1">  1        2 0.45707072E-02 0.19543116E+03</pdfrwt>
<pdfrwt beam="2">  1       -2 0.49444444E-01 0.19543116E+03</pdfrwt>
<totfact> 0.67638020E+03</totfact>
</mgrwt>
</event>
<event>
 4    1  0.6086918E-004  0.2896440E+03  0.7818608E-02  0.1090535E+00
          2   -1    0    0  501    0  0.00000000000E+00  0.00000000000E+00  0.74076641914E+03  0.74076641914E+03  0.25500000000E-02 0.  1.
         -2   -1    0    0    0  501 -0.00000000000E+00 -0.00000000000E+00 -0.28313130415E+02  0.28313130530E+02  0.25500000000E-02 0. -1.
    5000001    1    1    2    0    0 -0.33553934224E+02  0.11796131525E+03  0.36131884502E+03  0.38925704382E+03  0.77000000000E+02 0.  0.
   -5000001    1    1    2    0    0  0.33553934224E+02 -0.11796131525E+03  0.35113444371E+03  0.37982250585E+03  0.77000000000E+02 0.  0.
<mgrwt>
<rscale>  0 0.28964403E+03</rscale>
<asrwt>0</asrwt>
<pdfrwt beam="1">  1        2 0.11396406E+00 0.28964403E+03</pdfrwt>
<pdfrwt beam="2">  1       -2 0.43558663E-02 0.28964403E+03</pdfrwt>
<totfact> 0.94332935E+03</totfact>
</mgrwt>
</event>
<event>
 4    1  0.6086918E-004  0.5665076E+03  0.7818608E-02  0.9977437E-01
          2   -1    0    0  501    0  0.00000000000E+00  0.00000000000E+00  0.87449879639E+03  0.87449879639E+03  0.25500000000E-02 0.  1.
         -2   -1    0    0    0  501 -0.00000000000E+00 -0.00000000000E+00 -0.91747071815E+02  0.91747071850E+02  0.25500000000E-02 0. -1.
    5000001    1    1    2    0    0  0.12973152866E+03 -0.23214373061E+03  0.49346711616E+03  0.56582663062E+03  0.77000000000E+02 0.  0.
   -5000001    1    1    2    0    0 -0.12973152866E+03  0.23214373061E+03  0.28928460841E+03  0.40041923762E+03  0.77000000000E+02 0.  0.
<mgrwt>
<rscale>  0 0.56650756E+03</rscale>
<asrwt>0</asrwt>
<pdfrwt beam="1">  1        2 0.13453827E+00 0.56650756E+03</pdfrwt>
<pdfrwt beam="2">  1       -2 0.14114934E-01 0.56650756E+03</pdfrwt>
<totfact> 0.11917447E+03</totfact>
</mgrwt>
</event>
<event>
 4    1  0.6086918E-004  0.2090910E+03  0.7818608E-02  0.1142288E+00
         -2   -1    0    0    0  501 -0.00000000000E+00  0.00000000000E+00  0.70760130917E+01  0.70760135511E+01  0.25500000000E-02 0. -1.
          2   -1    0    0  501    0  0.00000000000E+00 -0.00000000000E+00 -0.15446211160E+04  0.15446211160E+04  0.25500000000E-02 0.  1.
    5000001    1    1    2    0    0 -0.48607339951E+02  0.43489005528E+02 -0.97157426937E+03  0.97680065929E+03  0.77000000000E+02 0.  0.
   -5000001    1    1    2    0    0  0.48607339951E+02 -0.43489005528E+02 -0.56597083357E+03  0.57489647029E+03  0.77000000000E+02 0.  0.
<mgrwt>
<rscale>  0 0.20909098E+03</rscale>
<asrwt>0</asrwt>
<pdfrwt beam="1">  1        2 0.23763375E+00 0.20909098E+03</pdfrwt>
<pdfrwt beam="2">  1       -2 0.10886187E-02 0.20909098E+03</pdfrwt>
<totfact> 0.24016740E+04</totfact>
</mgrwt>
</event>
<event>
 4    1  0.6086918E-004  0.2102217E+03  0.7818608E-02  0.1141391E+00
          2   -1    0    0  501    0  0.00000000000E+00  0.00000000000E+00  0.70834536397E+03  0.70834536397E+03  0.25500000000E-02 0.  1.
         -2   -1    0    0    0  501 -0.00000000000E+00 -0.00000000000E+00 -0.15597316320E+02  0.15597316528E+02  0.25500000000E-02 0. -1.
    5000001    1    1    2    0    0  0.61441250773E+02 -0.34963073566E+02  0.30836147775E+03  0.32559675178E+03  0.77000000000E+02 0.  0.
   -5000001    1    1    2    0    0 -0.61441250773E+02  0.34963073566E+02  0.38438656990E+03  0.39834592873E+03  0.77000000000E+02 0.  0.
<mgrwt>
<rscale>  0 0.21022166E+03</rscale>
<asrwt>0</asrwt>
<pdfrwt beam="1">  1        2 0.10897621E+00 0.21022166E+03</pdfrwt>
<pdfrwt beam="2">  1       -2 0.23995871E-02 0.21022166E+03</pdfrwt>
<totfact> 0.23857601E+04</totfact>
</mgrwt>
</event>
<event>
 4    1  0.6086918E-004  0.2579307E+03  0.7818608E-02  0.1108393E+00
         -2   -1    0    0    0  501 -0.00000000000E+00  0.00000000000E+00  0.57880594189E+02  0.57880594245E+02  0.25500000000E-02 0. -1.
          2   -1    0    0  501    0  0.00000000000E+00 -0.00000000000E+00 -0.28735124647E+03  0.28735124648E+03  0.25500000000E-02 0.  1.
    5000001    1    1    2    0    0 -0.77475534050E+02 -0.43826741464E+02 -0.44165979865E+02  0.12570948819E+03  0.77000000000E+02 0.  0.
   -5000001    1    1    2    0    0  0.77475534050E+02  0.43826741464E+02 -0.18530467241E+03  0.21952235253E+03  0.77000000000E+02 0.  0.
<mgrwt>
<rscale>  0 0.25793070E+03</rscale>
<asrwt>0</asrwt>
<pdfrwt beam="1">  1        2 0.44207883E-01 0.25793070E+03</pdfrwt>
<pdfrwt beam="2">  1       -2 0.89047070E-02 0.25793070E+03</pdfrwt>
<totfact> 0.90405677E+03</totfact>
</mgrwt>
</event>
<event>
 4    1  0.6086918E-004  0.3125260E+03  0.7818608E-02  0.1079141E+00
          2   -1    0    0  501    0  0.00000000000E+00  0.00000000000E+00  0.82812004852E+02  0.82812004891E+02  0.25500000000E-02 0.  1.
         -2   -1    0    0    0  501 -0.00000000000E+00 -0.00000000000E+00 -0.29486211781E+03  0.29486211782E+03  0.25500000000E-02 0. -1.
    5000001    1    1    2    0    0 -0.77115309176E+02 -0.10129209070E+03 -0.48293390533E+02  0.15642285676E+03  0.77000000000E+02 0.  0.
   -5000001    1    1    2    0    0  0.77115309176E+02  0.10129209070E+03 -0.16375672243E+03  0.22125126596E+03  0.77000000000E+02 0.  0.
<mgrwt>
<rscale>  0 0.31252599E+03</rscale>
<asrwt>0</asrwt>
<pdfrwt beam="1">  1        2 0.12740309E-01 0.31252599E+03</pdfrwt>
<pdfrwt beam="2">  1       -2 0.45363402E-01 0.31252599E+03</pdfrwt>
<totfact> 0.22174124E+03</totfact>
</mgrwt>
</event>
<event>
 4    1  0.6086918E-004  0.4960359E+03  0.7818608E-02  0.1014819E+00
          2   -1    0    0  501    0  0.00000000000E+00  0.00000000000E+00  0.11110390476E+04  0.11110390476E+04  0.25500000000E-02 0.  1.
         -2   -1    0    0    0  501 -0.00000000000E+00 -0.00000000000E+00 -0.55365213029E+02  0.55365213088E+02  0.25500000000E-02 0. -1.
    5000001    1    1    2    0    0 -0.18321985906E+03  0.23024370851E+02  0.87250122044E+03  0.89514636684E+03  0.77000000000E+02 0.  0.
   -5000001    1    1    2    0    0  0.18321985906E+03 -0.23024370851E+02  0.18317261414E+03  0.27125789385E+03  0.77000000000E+02 0.  0.
<mgrwt>
<rscale>  0 0.49603594E+03</rscale>
<asrwt>0</asrwt>
<pdfrwt beam="1">  1        2 0.17092909E+00 0.49603594E+03</pdfrwt>
<pdfrwt beam="2">  1       -2 0.85177250E-02 0.49603594E+03</pdfrwt>
<totfact> 0.19249120E+03</totfact>
</mgrwt>
</event>
<event>
 4    1  0.6086918E-004  0.2542587E+03  0.7818608E-02  0.1110643E+00
         -2   -1    0    0    0  501 -0.00000000000E+00  0.00000000000E+00  0.41016863955E+02  0.41016864035E+02  0.25500000000E-02 0. -1.
          2   -1    0    0  501    0  0.00000000000E+00 -0.00000000000E+00 -0.39402995616E+03  0.39402995617E+03  0.25500000000E-02 0.  1.
    5000001    1    1    2    0    0  0.92811671575E+02  0.32083642437E+02 -0.13496291010E+03  0.18381336620E+03  0.77000000000E+02 0.  0.
   -5000001    1    1    2    0    0 -0.92811671575E+02 -0.32083642437E+02 -0.21805018211E+03  0.25123345400E+03  0.77000000000E+02 0.  0.
<mgrwt>
<rscale>  0 0.25425871E+03</rscale>
<asrwt>0</asrwt>
<pdfrwt beam="1">  1        2 0.60619991E-01 0.25425871E+03</pdfrwt>
<pdfrwt beam="2">  1       -2 0.63102871E-02 0.25425871E+03</pdfrwt>
<totfact> 0.10982188E+04</totfact>
</mgrwt>
</event>
<event>
 4    1  0.6086918E-004  0.4177302E+03  0.7818608E-02  0.1037808E+00
          2   -1    0    0  501    0  0.00000000000E+00  0.00000000000E+00  0.18313104412E+04  0.18313104412E+04  0.25500000000E-02 0.  1.
         -2   -1    0    0    0  501 -0.00000000000E+00 -0.00000000000E+00 -0.23821536099E+02  0.23821536236E+02  0.25500000000E-02 0. -1.
    5000001    1    1    2    0    0 -0.57850091690E+02  0.18119478640E+03  0.73074875156E+03  0.75901312349E+03  0.77000000000E+02 0.  0.
   -5000001    1    1    2    0    0  0.57850091690E+02 -0.18119478640E+03  0.10767401535E+04  0.10961188539E+04  0.77000000000E+02 0.  0.
<mgrwt>
<rscale>  0 0.41773019E+03</rscale>
<asrwt>0</asrwt>
<pdfrwt beam="1">  1        2 0.28174017E+00 0.41773019E+03</pdfrwt>
<pdfrwt beam="2">  1       -2 0.36648504E-02 0.41773019E+03</pdfrwt>
<totfact> 0.28458670E+03</totfact>
</mgrwt>
</event>
<event>
 4    1  0.6086918E-004  0.2863707E+03  0.7818608E-02  0.1092259E+00
          2   -1    0    0  501    0  0.00000000000E+00  0.00000000000E+00  0.96113159515E+03  0.96113159515E+03  0.25500000000E-02 0.  1.
         -2   -1    0    0    0  501 -0.00000000000E+00 -0.00000000000E+00 -0.21331157638E+02  0.21331157791E+02  0.25500000000E-02 0. -1.
    5000001    1    1    2    0    0  0.11686046444E+03 -0.76087951810E+01  0.57043824947E+03  0.58740365880E+03  0.77000000000E+02 0.  0.
   -5000001    1    1    2    0    0 -0.11686046444E+03  0.76087951810E+01  0.36936218804E+03  0.39505909415E+03  0.77000000000E+02 0.  0.
<mgrwt>
<rscale>  0 0.28637074E+03</rscale>
<asrwt>0</asrwt>
<pdfrwt beam="1">  1        2 0.14786642E+00 0.28637074E+03</pdfrwt>
<pdfrwt beam="2">  1       -2 0.32817161E-02 0.28637074E+03</pdfrwt>
<totfact> 0.10270399E+04</totfact>
</mgrwt>
</event>
<event>
 4    1  0.6086918E-004  0.1707846E+03  0.7818608E-02  0.1177032E+00
         -2   -1    0    0    0  501 -0.00000000000E+00  0.00000000000E+00  0.51591670569E+01  0.51591676870E+01  0.25500000000E-02 0. -1.
          2   -1    0    0  501    0  0.00000000000E+00 -0.00000000000E+00 -0.14133756713E+04  0.14133756713E+04  0.25500000000E-02 0.  1.
    5000001    1    1    2    0    0  0.17833847584E+02  0.31714049974E+02 -0.65222767688E+03  0.65776422035E+03  0.77000000000E+02 0.  0.
   -5000001    1    1    2    0    0 -0.17833847584E+02 -0.31714049974E+02 -0.75598882732E+03  0.76077061859E+03  0.77000000000E+02 0.  0.
<mgrwt>
<rscale>  0 0.17078456E+03</rscale>
<asrwt>0</asrwt>
<pdfrwt beam="1">  1        2 0.21744210E+00 0.17078456E+03</pdfrwt>
<pdfrwt beam="2">  1       -2 0.79371918E-03 0.17078456E+03</pdfrwt>
<totfact> 0.43861671E+04</totfact>
</mgrwt>
</event>
<event>
 4    1  0.6086918E-004  0.2062809E+03  0.7818608E-02  0.1144545E+00
         -2   -1    0    0    0  501 -0.00000000000E+00  0.00000000000E+00  0.16618370902E+02  0.16618371097E+02  0.25500000000E-02 0. -1.
          2   -1    0    0  501    0  0.00000000000E+00 -0.00000000000E+00 -0.64013205855E+03  0.64013205856E+03  0.25500000000E-02 0.  1.
    5000001    1    1    2    0    0  0.22344124345E+02  0.64469275952E+02 -0.33502332551E+03  0.35046422937E+03  0.77000000000E+02 0.  0.
   -5000001    1    1    2    0    0 -0.22344124345E+02 -0.64469275952E+02 -0.28849036214E+03  0.30628620028E+03  0.77000000000E+02 0.  0.
<mgrwt>
<rscale>  0 0.20628090E+03</rscale>
<asrwt>0</asrwt>
<pdfrwt beam="1">  1        2 0.98481836E-01 0.20628090E+03</pdfrwt>
<pdfrwt beam="2">  1       -2 0.25566730E-02 0.20628090E+03</pdfrwt>
<totfact> 0.24483031E+04</totfact>
</mgrwt>
</event>
<event>
 4    1  0.6086918E-004  0.3104564E+03  0.7818608E-02  0.1080127E+00
         -2   -1    0    0    0  501 -0.00000000000E+00  0.00000000000E+00  0.10533370007E+02  0.10533370315E+02  0.25500000000E-02 0. -1.
          2   -1    0    0  501    0  0.00000000000E+00 -0.00000000000E+00 -0.22875679367E+04  0.22875679367E+04  0.25500000000E-02 0.  1.
    5000001    1    1    2    0    0 -0.60585906389E+02 -0.11618415561E+03 -0.90474072665E+03  0.91741713115E+03  0.77000000000E+02 0.  0.
   -5000001    1    1    2    0    0  0.60585906389E+02  0.11618415561E+03 -0.13722938400E+04  0.13806841759E+04  0.77000000000E+02 0.  0.
<mgrwt>
<rscale>  0 0.31045644E+03</rscale>
<asrwt>0</asrwt>
<pdfrwt beam="1">  1        2 0.35193313E+00 0.31045644E+03</pdfrwt>
<pdfrwt beam="2">  1       -2 0.16205203E-02 0.31045644E+03</pdfrwt>
<totfact> 0.55052839E+03</totfact>
</mgrwt>
</event>
<event>
 4    1  0.6086918E-004  0.2137344E+03  0.7818608E-02  0.1138642E+00
          2   -1    0    0  501    0  0.00000000000E+00  0.00000000000E+00  0.49231449762E+03  0.49231449763E+03  0.25500000000E-02 0.  1.
         -2   -1    0    0    0  501 -0.00000000000E+00 -0.00000000000E+00 -0.23197780187E+02  0.23197780327E+02  0.25500000000E-02 0. -1.
    5000001    1    1    2    0    0  0.56276044868E+02 -0.39919866264E+02  0.29977035751E+03  0.31709912676E+03  0.77000000000E+02 0.  0.
   -5000001    1    1    2    0    0 -0.56276044868E+02  0.39919866264E+02  0.16934635992E+03  0.19841315120E+03  0.77000000000E+02 0.  0.
<mgrwt>
<rscale>  0 0.21373445E+03</rscale>
<asrwt>0</asrwt>
<pdfrwt beam="1">  1        2 0.75740692E-01 0.21373445E+03</pdfrwt>
<pdfrwt beam="2">  1       -2 0.35688893E-02 0.21373445E+03</pdfrwt>
<totfact> 0.20180555E+04</totfact>
</mgrwt>
</event>
<event>
 4    1  0.6086918E-004  0.1813120E+03  0.7818608E-02  0.1166539E+00
         -2   -1    0    0    0  501 -0.00000000000E+00  0.00000000000E+00  0.64742938135E+02  0.64742938186E+02  0.25500000000E-02 0. -1.
          2   -1    0    0  501    0  0.00000000000E+00 -0.00000000000E+00 -0.12694069506E+03  0.12694069508E+03  0.25500000000E-02 0.  1.
    5000001    1    1    2    0    0  0.31551076833E+02  0.32224890482E+02 -0.48000892107E+02  0.10132620421E+03  0.77000000000E+02 0.  0.
   -5000001    1    1    2    0    0 -0.31551076833E+02 -0.32224890482E+02 -0.14196864815E+02  0.90357429061E+02  0.77000000000E+02 0.  0.
<mgrwt>
<rscale>  0 0.18131204E+03</rscale>
<asrwt>0</asrwt>
<pdfrwt beam="1">  1        2 0.19529338E-01 0.18131204E+03</pdfrwt>
<pdfrwt beam="2">  1       -2 0.99604520E-02 0.18131204E+03</pdfrwt>
<totfact> 0.18198794E+04</totfact>
</mgrwt>
</event>
<event>
 4    1  0.6086918E-004  0.2433862E+03  0.7818608E-02  0.1117557E+00
          2   -1    0    0  501    0  0.00000000000E+00  0.00000000000E+00  0.16379450918E+04  0.16379450918E+04  0.25500000000E-02 0.  1.
         -2   -1    0    0    0  501 -0.00000000000E+00 -0.00000000000E+00 -0.90413326814E+01  0.90413330410E+01  0.25500000000E-02 0. -1.
    5000001    1    1    2    0    0 -0.48288596917E+02  0.60299599034E+02  0.44926271096E+03  0.46231354479E+03  0.77000000000E+02 0.  0.
   -5000001    1    1    2    0    0  0.48288596917E+02 -0.60299599034E+02  0.11796410482E+04  0.11846728801E+04  0.77000000000E+02 0.  0.
<mgrwt>
<rscale>  0 0.24338617E+03</rscale>
<asrwt>0</asrwt>
<pdfrwt beam="1">  1        2 0.25199182E+00 0.24338617E+03</pdfrwt>
<pdfrwt beam="2">  1       -2 0.13909728E-02 0.24338617E+03</pdfrwt>
<totfact> 0.15118945E+04</totfact>
</mgrwt>
</event>
<event>
 4    1  0.6086918E-004  0.2023352E+03  0.7818608E-02  0.1147784E+00
         -2   -1    0    0    0  501 -0.00000000000E+00  0.00000000000E+00  0.12327157794E+03  0.12327157796E+03  0.25500000000E-02 0. -1.
          2   -1    0    0  501    0  0.00000000000E+00 -0.00000000000E+00 -0.83027151727E+02  0.83027151766E+02  0.25500000000E-02 0.  1.
    5000001    1    1    2    0    0  0.92954973319E+01 -0.47491437647E+02  0.65307884305E+02  0.11196411333E+03  0.77000000000E+02 0.  0.
   -5000001    1    1    2    0    0 -0.92954973319E+01  0.47491437647E+02 -0.25063458095E+02  0.94334616404E+02  0.77000000000E+02 0.  0.
<mgrwt>
<rscale>  0 0.20233525E+03</rscale>
<asrwt>0</asrwt>
<pdfrwt beam="1">  1        2 0.12773408E-01 0.20233525E+03</pdfrwt>
<pdfrwt beam="2">  1       -2 0.18964858E-01 0.20233525E+03</pdfrwt>
<totfact> 0.10558179E+04</totfact>
</mgrwt>
</event>
<event>
 4    1  0.6086918E-004  0.1665009E+03  0.7818608E-02  0.1181547E+00
          2   -1    0    0  501    0  0.00000000000E+00  0.00000000000E+00  0.16609288416E+04  0.16609288416E+04  0.25500000000E-02 0.  1.
         -2   -1    0    0    0  501 -0.00000000000E+00 -0.00000000000E+00 -0.41727489433E+01  0.41727497225E+01  0.25500000000E-02 0. -1.
    5000001    1    1    2    0    0 -0.19747426278E+02  0.21280377014E+02  0.70234549461E+03  0.70714991981E+03  0.77000000000E+02 0.  0.
   -5000001    1    1    2    0    0  0.19747426278E+02 -0.21280377014E+02  0.95441059805E+03  0.95795167152E+03  0.77000000000E+02 0.  0.
<mgrwt>
<rscale>  0 0.16650093E+03</rscale>
<asrwt>0</asrwt>
<pdfrwt beam="1">  1        2 0.25552756E+00 0.16650093E+03</pdfrwt>
<pdfrwt beam="2">  1       -2 0.64196133E-03 0.16650093E+03</pdfrwt>
<totfact> 0.43989565E+04</totfact>
</mgrwt>
</event>
<event>
 4    1  0.6086918E-004  0.2746028E+03  0.7818608E-02  0.1098674E+00
          2   -1    0    0  501    0  0.00000000000E+00  0.00000000000E+00  0.23742457050E+02  0.23742457187E+02  0.25500000000E-02 0.  1.
         -2   -1    0    0    0  501 -0.00000000000E+00 -0.00000000000E+00 -0.79400708350E+03  0.79400708350E+03  0.25500000000E-02 0. -1.
    5000001    1    1    2    0    0  0.66458126557E+02 -0.59249094422E+02 -0.17465437879E+03  0.21061882586E+03  0.77000000000E+02 0.  0.
   -5000001    1    1    2    0    0 -0.66458126557E+02  0.59249094422E+02 -0.59561024766E+03  0.60713071483E+03  0.77000000000E+02 0.  0.
<mgrwt>
<rscale>  0 0.27460283E+03</rscale>
<asrwt>0</asrwt>
<pdfrwt beam="1">  1        2 0.36526863E-02 0.27460283E+03</pdfrwt>
<pdfrwt beam="2">  1       -2 0.12215492E+00 0.27460283E+03</pdfrwt>
<totfact> 0.12738773E+03</totfact>
</mgrwt>
</event>
<event>
 4    1  0.6086918E-004  0.2592662E+03  0.7818608E-02  0.1107585E+00
          2   -1    0    0  501    0  0.00000000000E+00  0.00000000000E+00  0.16657889077E+03  0.16657889079E+03  0.25500000000E-02 0.  1.
         -2   -1    0    0    0  501 -0.00000000000E+00 -0.00000000000E+00 -0.10088157981E+03  0.10088157984E+03  0.25500000000E-02 0. -1.
    5000001    1    1    2    0    0  0.28102214725E+02  0.95706237588E+02  0.14511620024E+01  0.12601795212E+03  0.77000000000E+02 0.  0.
   -5000001    1    1    2    0    0 -0.28102214725E+02 -0.95706237588E+02  0.64246148957E+02  0.14144251851E+03  0.77000000000E+02 0.  0.
<mgrwt>
<rscale>  0 0.25926621E+03</rscale>
<asrwt>0</asrwt>
<pdfrwt beam="1">  1        2 0.25627522E-01 0.25926621E+03</pdfrwt>
<pdfrwt beam="2">  1       -2 0.15520243E-01 0.25926621E+03</pdfrwt>
<totfact> 0.66877622E+03</totfact>
</mgrwt>
</event>
<event>
 4    1  0.6086918E-004  0.2416049E+03  0.7818608E-02  0.1118728E+00
          2   -1    0    0  501    0  0.00000000000E+00  0.00000000000E+00  0.43053553635E+03  0.43053553636E+03  0.25500000000E-02 0.  1.
         -2   -1    0    0    0  501 -0.00000000000E+00 -0.00000000000E+00 -0.33895526949E+02  0.33895527045E+02  0.25500000000E-02 0. -1.
    5000001    1    1    2    0    0 -0.32503271556E+02 -0.85046059576E+02  0.16109858172E+03  0.20042716369E+03  0.77000000000E+02 0.  0.
   -5000001    1    1    2    0    0  0.32503271556E+02  0.85046059576E+02  0.23554142768E+03  0.26400389971E+03  0.77000000000E+02 0.  0.
<mgrwt>
<rscale>  0 0.24160487E+03</rscale>
<asrwt>0</asrwt>
<pdfrwt beam="1">  1        2 0.66236236E-01 0.24160487E+03</pdfrwt>
<pdfrwt beam="2">  1       -2 0.52146965E-02 0.24160487E+03</pdfrwt>
<totfact> 0.13313895E+04</totfact>
</mgrwt>
</event>
<event>
 4    1  0.6086918E-004  0.3089782E+03  0.7818608E-02  0.1080837E+00
         -2   -1    0    0    0  501 -0.00000000000E+00  0.00000000000E+00  0.11942962083E+04  0.11942962083E+04  0.25500000000E-02 0. -1.
          2   -1    0    0  501    0  0.00000000000E+00 -0.00000000000E+00 -0.19984058699E+02  0.19984058861E+02  0.25500000000E-02 0.  1.
    5000001    1    1    2    0    0  0.10799098266E+03  0.78728125519E+02  0.62180143023E+03  0.64064513478E+03  0.77000000000E+02 0.  0.
   -5000001    1    1    2    0    0 -0.10799098266E+03 -0.78728125519E+02  0.55251071938E+03  0.57363513239E+03  0.77000000000E+02 0.  0.
<mgrwt>
<rscale>  0 0.30897822E+03</rscale>
<asrwt>0</asrwt>
<pdfrwt beam="1">  1        2 0.30744717E-02 0.30897822E+03</pdfrwt>
<pdfrwt beam="2">  1       -2 0.18373781E+00 0.30897822E+03</pdfrwt>
<totfact> 0.55795253E+02</totfact>
</mgrwt>
</event>
<event>
 4    1  0.6086918E-004  0.2962771E+03  0.7818608E-02  0.1087117E+00
          2   -1    0    0  501    0  0.00000000000E+00  0.00000000000E+00  0.81087626585E+02  0.81087626625E+02  0.25500000000E-02 0.  1.
         -2   -1    0    0    0  501 -0.00000000000E+00 -0.00000000000E+00 -0.27063357841E+03  0.27063357842E+03  0.25500000000E-02 0. -1.
    5000001    1    1    2    0    0  0.77197997923E+01 -0.10702189032E+03 -0.17443283690E+03  0.21879007040E+03  0.77000000000E+02 0.  0.
   -5000001    1    1    2    0    0 -0.77197997923E+01  0.10702189032E+03 -0.15113114931E+02  0.13293113465E+03  0.77000000000E+02 0.  0.
<mgrwt>
<rscale>  0 0.29627713E+03</rscale>
<asrwt>0</asrwt>
<pdfrwt beam="1">  1        2 0.12475020E-01 0.29627713E+03</pdfrwt>
<pdfrwt beam="2">  1       -2 0.41635935E-01 0.29627713E+03</pdfrwt>
<totfact> 0.26843088E+03</totfact>
</mgrwt>
</event>
<event>
 4    1  0.6086918E-004  0.5046446E+03  0.7818608E-02  0.1012574E+00
          2   -1    0    0  501    0  0.00000000000E+00  0.00000000000E+00  0.64875532071E+03  0.64875532072E+03  0.25500000000E-02 0.  1.
         -2   -1    0    0    0  501 -0.00000000000E+00 -0.00000000000E+00 -0.98136460121E+02  0.98136460154E+02  0.25500000000E-02 0. -1.
    5000001    1    1    2    0    0  0.18836204096E+03  0.13514405524E+03  0.36883753951E+03  0.44239609480E+03  0.77000000000E+02 0.  0.
   -5000001    1    1    2    0    0 -0.18836204096E+03 -0.13514405524E+03  0.18178132108E+03  0.30449568607E+03  0.77000000000E+02 0.  0.
<mgrwt>
<rscale>  0 0.50464463E+03</rscale>
<asrwt>0</asrwt>
<pdfrwt beam="1">  1        2 0.99808513E-01 0.50464463E+03</pdfrwt>
<pdfrwt beam="2">  1       -2 0.15097917E-01 0.50464463E+03</pdfrwt>
<totfact> 0.15625916E+03</totfact>
</mgrwt>
</event>
<event>
 4    1  0.6086918E-004  0.1780196E+03  0.7818608E-02  0.1169734E+00
          2   -1    0    0  501    0  0.00000000000E+00  0.00000000000E+00  0.16675280751E+03  0.16675280753E+03  0.25500000000E-02 0.  1.
         -2   -1    0    0    0  501 -0.00000000000E+00 -0.00000000000E+00 -0.47511885730E+02  0.47511885798E+02  0.25500000000E-02 0. -1.
    5000001    1    1    2    0    0 -0.39810430610E+02  0.19566717277E+02  0.65759248247E+02  0.11054865689E+03  0.77000000000E+02 0.  0.
   -5000001    1    1    2    0    0  0.39810430610E+02 -0.19566717277E+02  0.53481673534E+02  0.10371603644E+03  0.77000000000E+02 0.  0.
<mgrwt>
<rscale>  0 0.17801955E+03</rscale>
<asrwt>0</asrwt>
<pdfrwt beam="1">  1        2 0.25654278E-01 0.17801955E+03</pdfrwt>
<pdfrwt beam="2">  1       -2 0.73095209E-02 0.17801955E+03</pdfrwt>
<totfact> 0.21675912E+04</totfact>
</mgrwt>
</event>
<event>
 4    1  0.6086918E-004  0.2395951E+03  0.7818608E-02  0.1120063E+00
         -2   -1    0    0    0  501 -0.00000000000E+00  0.00000000000E+00  0.62787122885E+02  0.62787122937E+02  0.25500000000E-02 0. -1.
          2   -1    0    0  501    0  0.00000000000E+00 -0.00000000000E+00 -0.22857315286E+03  0.22857315287E+03  0.25500000000E-02 0.  1.
    5000001    1    1    2    0    0  0.23043821886E+02 -0.18998641551E+02  0.22634060752E+02  0.85634495468E+02  0.77000000000E+02 0.  0.
   -5000001    1    1    2    0    0 -0.23043821886E+02  0.18998641551E+02 -0.18842009072E+03  0.20572578034E+03  0.77000000000E+02 0.  0.
<mgrwt>
<rscale>  0 0.23959508E+03</rscale>
<asrwt>0</asrwt>
<pdfrwt beam="1">  1        2 0.35165100E-01 0.23959508E+03</pdfrwt>
<pdfrwt beam="2">  1       -2 0.96595575E-02 0.23959508E+03</pdfrwt>
<totfact> 0.10139927E+04</totfact>
</mgrwt>
</event>
<event>
 4    1  0.6086918E-004  0.4565707E+03  0.7818608E-02  0.1025781E+00
         -2   -1    0    0    0  501 -0.00000000000E+00  0.00000000000E+00  0.10060735469E+03  0.10060735472E+03  0.25500000000E-02 0.  1.
          2   -1    0    0  501    0  0.00000000000E+00 -0.00000000000E+00 -0.51799598424E+03  0.51799598425E+03  0.25500000000E-02 0. -1.
    5000001    1    1    2    0    0  0.65381744009E+02 -0.13998770484E+03 -0.63030762578E+01  0.17274275304E+03  0.77000000000E+02 0.  0.
   -5000001    1    1    2    0    0 -0.65381744009E+02  0.13998770484E+03 -0.41108555330E+03  0.44586058593E+03  0.77000000000E+02 0.  0.
<mgrwt>
<rscale>  0 0.45657072E+03</rscale>
<asrwt>0</asrwt>
<pdfrwt beam="1">  1        2 0.79691689E-01 0.45657072E+03</pdfrwt>
<pdfrwt beam="2">  1       -2 0.15478055E-01 0.45657072E+03</pdfrwt>
<totfact> 0.19540649E+03</totfact>
</mgrwt>
</event>
<event>
 4    1  0.6086918E-004  0.2583884E+03  0.7818608E-02  0.1108115E+00
         -2   -1    0    0    0  501 -0.00000000000E+00  0.00000000000E+00  0.87719505677E+02  0.87719505714E+02  0.25500000000E-02 0. -1.
          2   -1    0    0  501    0  0.00000000000E+00 -0.00000000000E+00 -0.19027860625E+03  0.19027860627E+03  0.25500000000E-02 0.  1.
    5000001    1    1    2    0    0  0.10004969529E+03 -0.61528449408E+01 -0.22523901569E+02  0.12839051823E+03  0.77000000000E+02 0.  0.
   -5000001    1    1    2    0    0 -0.10004969529E+03  0.61528449408E+01 -0.80035199005E+02  0.14960759375E+03  0.77000000000E+02 0.  0.
<mgrwt>
<rscale>  0 0.25838843E+03</rscale>
<asrwt>0</asrwt>
<pdfrwt beam="1">  1        2 0.29273632E-01 0.25838843E+03</pdfrwt>
<pdfrwt beam="2">  1       -2 0.13495309E-01 0.25838843E+03</pdfrwt>
<totfact> 0.72640897E+03</totfact>
</mgrwt>
</event>
<event>
 4    1  0.6086918E-004  0.2754955E+03  0.7818608E-02  0.1098175E+00
          2   -1    0    0  501    0  0.00000000000E+00  0.00000000000E+00  0.66878597232E+03  0.66878597233E+03  0.25500000000E-02 0.  1.
         -2   -1    0    0    0  501 -0.00000000000E+00 -0.00000000000E+00 -0.28371462214E+02  0.28371462328E+02  0.25500000000E-02 0. -1.
    5000001    1    1    2    0    0  0.10226394454E+03 -0.50786062238E+02  0.31291787804E+03  0.34188263610E+03  0.77000000000E+02 0.  0.
   -5000001    1    1    2    0    0 -0.10226394454E+03  0.50786062238E+02  0.32749663207E+03  0.35527479856E+03  0.77000000000E+02 0.  0.
<mgrwt>
<rscale>  0 0.27549545E+03</rscale>
<asrwt>0</asrwt>
<pdfrwt beam="1">  1        2 0.10289015E+00 0.27549545E+03</pdfrwt>
<pdfrwt beam="2">  1       -2 0.43648403E-02 0.27549545E+03</pdfrwt>
<totfact> 0.10632291E+04</totfact>
</mgrwt>
</event>
<event>
 4    1  0.6086918E-004  0.2027693E+03  0.7818608E-02  0.1147423E+00
         -2   -1    0    0    0  501 -0.00000000000E+00  0.00000000000E+00  0.35724054942E+03  0.35724054942E+03  0.25500000000E-02 0. -1.
          2   -1    0    0  501    0  0.00000000000E+00 -0.00000000000E+00 -0.28772899225E+02  0.28772899338E+02  0.25500000000E-02 0.  1.
    5000001    1    1    2    0    0  0.29170498625E+02  0.58286931264E+02  0.14504864476E+03  0.17668161674E+03  0.77000000000E+02 0.  0.
   -5000001    1    1    2    0    0 -0.29170498625E+02 -0.58286931264E+02  0.18341900543E+03  0.20933183203E+03  0.77000000000E+02 0.  0.
<mgrwt>
<rscale>  0 0.20276929E+03</rscale>
<asrwt>0</asrwt>
<pdfrwt beam="1">  1        2 0.44265994E-02 0.20276929E+03</pdfrwt>
<pdfrwt beam="2">  1       -2 0.54960090E-01 0.20276929E+03</pdfrwt>
<totfact> 0.57222616E+03</totfact>
</mgrwt>
</event>
<event>
 4    1  0.6086918E-004  0.3913427E+03  0.7818608E-02  0.1046819E+00
         -2   -1    0    0    0  501 -0.00000000000E+00  0.00000000000E+00  0.13692555190E+03  0.13692555192E+03  0.25500000000E-02 0. -1.
          2   -1    0    0  501    0  0.00000000000E+00 -0.00000000000E+00 -0.27962107835E+03  0.27962107836E+03  0.25500000000E-02 0.  1.
    5000001    1    1    2    0    0 -0.67342104406E+02 -0.15196987302E+03 -0.14454028434E+03  0.23334672727E+03  0.77000000000E+02 0.  0.
   -5000001    1    1    2    0    0  0.67342104406E+02  0.15196987302E+03  0.18447578868E+01  0.18319990301E+03  0.77000000000E+02 0.  0.
<mgrwt>
<rscale>  0 0.39134267E+03</rscale>
<asrwt>0</asrwt>
<pdfrwt beam="1">  1        2 0.43018627E-01 0.39134267E+03</pdfrwt>
<pdfrwt beam="2">  1       -2 0.21065470E-01 0.39134267E+03</pdfrwt>
<totfact> 0.22818240E+03</totfact>
</mgrwt>
</event>
<event>
 4    1  0.6086918E-004  0.2207874E+03  0.7818608E-02  0.1133297E+00
         -2   -1    0    0    0  501 -0.00000000000E+00  0.00000000000E+00  0.85088332284E+02  0.85088332323E+02  0.25500000000E-02 0. -1.
          2   -1    0    0  501    0  0.00000000000E+00 -0.00000000000E+00 -0.14322487331E+03  0.14322487333E+03  0.25500000000E-02 0.  1.
    5000001    1    1    2    0    0 -0.22179182296E+02 -0.50802579362E+02  0.29290742782E+02  0.99296353457E+02  0.77000000000E+02 0.  0.
   -5000001    1    1    2    0    0  0.22179182296E+02  0.50802579362E+02 -0.87427283806E+02  0.12901685220E+03  0.77000000000E+02 0.  0.
<mgrwt>
<rscale>  0 0.22078737E+03</rscale>
<asrwt>0</asrwt>
<pdfrwt beam="1">  1        2 0.22034596E-01 0.22078737E+03</pdfrwt>
<pdfrwt beam="2">  1       -2 0.13090513E-01 0.22078737E+03</pdfrwt>
<totfact> 0.10390316E+04</totfact>
</mgrwt>
</event>
<event>
 4    1  0.6086918E-004  0.2695170E+03  0.7818608E-02  0.1101556E+00
         -2   -1    0    0    0  501 -0.00000000000E+00  0.00000000000E+00  0.36799090042E+02  0.36799090131E+02  0.25500000000E-02 0. -1.
          2   -1    0    0  501    0  0.00000000000E+00 -0.00000000000E+00 -0.49348640119E+03  0.49348640119E+03  0.25500000000E-02 0.  1.
    5000001    1    1    2    0    0 -0.10353079891E+03 -0.18517518748E+02 -0.29562448927E+03  0.32308569061E+03  0.77000000000E+02 0.  0.
   -5000001    1    1    2    0    0  0.10353079891E+03  0.18517518748E+02 -0.16106282187E+03  0.20719980071E+03  0.77000000000E+02 0.  0.
<mgrwt>
<rscale>  0 0.26951698E+03</rscale>
<asrwt>0</asrwt>
<pdfrwt beam="1">  1        2 0.75920980E-01 0.26951698E+03</pdfrwt>
<pdfrwt beam="2">  1       -2 0.56613988E-02 0.26951698E+03</pdfrwt>
<totfact> 0.10155320E+04</totfact>
</mgrwt>
</event>
<event>
 4    1  0.6086918E-004  0.4975605E+03  0.7818608E-02  0.1014418E+00
          2   -1    0    0  501    0  0.00000000000E+00  0.00000000000E+00  0.10729354496E+04  0.10729354496E+04  0.25500000000E-02 0.  1.
         -2   -1    0    0    0  501 -0.00000000000E+00 -0.00000000000E+00 -0.57684365580E+02  0.57684365637E+02  0.25500000000E-02 0. -1.
    5000001    1    1    2    0    0  0.20097805622E+02  0.18577004862E+03  0.83729437446E+03  0.86133924923E+03  0.77000000000E+02 0.  0.
   -5000001    1    1    2    0    0 -0.20097805622E+02 -0.18577004862E+03  0.17795670956E+03  0.26928056601E+03  0.77000000000E+02 0.  0.
<mgrwt>
<rscale>  0 0.49756045E+03</rscale>
<asrwt>0</asrwt>
<pdfrwt beam="1">  1        2 0.16506699E+00 0.49756045E+03</pdfrwt>
<pdfrwt beam="2">  1       -2 0.88745181E-02 0.49756045E+03</pdfrwt>
<totfact> 0.19009633E+03</totfact>
</mgrwt>
</event>
<event>
 4    1  0.6086918E-004  0.2409374E+03  0.7818608E-02  0.1119170E+00
          2   -1    0    0  501    0  0.00000000000E+00  0.00000000000E+00  0.27083438063E+03  0.27083438064E+03  0.25500000000E-02 0.  1.
         -2   -1    0    0    0  501 -0.00000000000E+00 -0.00000000000E+00 -0.53585170119E+02  0.53585170180E+02  0.25500000000E-02 0. -1.
    5000001    1    1    2    0    0  0.67507589004E+02 -0.63005571955E+02  0.11876624238E+03  0.16900117455E+03  0.77000000000E+02 0.  0.
   -5000001    1    1    2    0    0 -0.67507589004E+02  0.63005571955E+02  0.98482968128E+02  0.15541837627E+03  0.77000000000E+02 0.  0.
<mgrwt>
<rscale>  0 0.24093739E+03</rscale>
<asrwt>0</asrwt>
<pdfrwt beam="1">  1        2 0.41666827E-01 0.24093739E+03</pdfrwt>
<pdfrwt beam="2">  1       -2 0.82438724E-02 0.24093739E+03</pdfrwt>
<totfact> 0.10836835E+04</totfact>
</mgrwt>
</event>
<event>
 4    1  0.6086918E-004  0.1819369E+03  0.7818608E-02  0.1165942E+00
          2   -1    0    0  501    0  0.00000000000E+00  0.00000000000E+00  0.88560221708E+01  0.88560225379E+01  0.25500000000E-02 0.  1.
         -2   -1    0    0    0  501 -0.00000000000E+00 -0.00000000000E+00 -0.93442114007E+03  0.93442114007E+03  0.25500000000E-02 0. -1.
    5000001    1    1    2    0    0  0.22234190767E+02  0.40183148182E+02 -0.54263441652E+03  0.54999104959E+03  0.77000000000E+02 0.  0.
   -5000001    1    1    2    0    0 -0.22234190767E+02 -0.40183148182E+02 -0.38293070138E+03  0.39328611302E+03  0.77000000000E+02 0.  0.
<mgrwt>
<rscale>  0 0.18193685E+03</rscale>
<asrwt>0</asrwt>
<pdfrwt beam="1">  1        2 0.13624657E-02 0.18193685E+03</pdfrwt>
<pdfrwt beam="2">  1       -2 0.14375702E+00 0.18193685E+03</pdfrwt>
<totfact> 0.32200250E+03</totfact>
</mgrwt>
</event>
<event>
 4    1  0.6086918E-004  0.4735857E+03  0.7818608E-02  0.1020913E+00
          2   -1    0    0  501    0  0.00000000000E+00  0.00000000000E+00  0.19332319674E+04  0.19332319674E+04  0.25500000000E-02 0.  1.
         -2   -1    0    0    0  501 -0.00000000000E+00 -0.00000000000E+00 -0.29003681846E+02  0.29003681958E+02  0.25500000000E-02 0. -1.
    5000001    1    1    2    0    0  0.16926042489E+03  0.13500044351E+03  0.71526636841E+03  0.75127171447E+03  0.77000000000E+02 0.  0.
   -5000001    1    1    2    0    0 -0.16926042489E+03 -0.13500044351E+03  0.11889619171E+04  0.12109639349E+04  0.77000000000E+02 0.  0.
<mgrwt>
<rscale>  0 0.47358566E+03</rscale>
<asrwt>0</asrwt>
<pdfrwt beam="1">  1        2 0.29742049E+00 0.47358566E+03</pdfrwt>
<pdfrwt beam="2">  1       -2 0.44621020E-02 0.47358566E+03</pdfrwt>
<totfact> 0.18544049E+03</totfact>
</mgrwt>
</event>
<event>
 4    1  0.6086918E-004  0.2252321E+03  0.7818608E-02  0.1130041E+00
          2   -1    0    0  501    0  0.00000000000E+00  0.00000000000E+00  0.49314405111E+03  0.49314405111E+03  0.25500000000E-02 0.  1.
         -2   -1    0    0    0  501 -0.00000000000E+00 -0.00000000000E+00 -0.25717372649E+02  0.25717372775E+02  0.25500000000E-02 0. -1.
    5000001    1    1    2    0    0  0.80480379211E+02 -0.11119851021E+02  0.26217345402E+03  0.28506957487E+03  0.77000000000E+02 0.  0.
   -5000001    1    1    2    0    0 -0.80480379211E+02  0.11119851021E+02  0.20525322444E+03  0.23379184902E+03  0.77000000000E+02 0.  0.
<mgrwt>
<rscale>  0 0.22523205E+03</rscale>
<asrwt>0</asrwt>
<pdfrwt beam="1">  1        2 0.75868306E-01 0.22523205E+03</pdfrwt>
<pdfrwt beam="2">  1       -2 0.39565194E-02 0.22523205E+03</pdfrwt>
<totfact> 0.17323037E+04</totfact>
</mgrwt>
</event>
<event>
 4    1  0.6086918E-004  0.3292742E+03  0.7818608E-02  0.1071458E+00
          2   -1    0    0  501    0  0.00000000000E+00  0.00000000000E+00  0.41717357065E+04  0.41717357065E+04  0.25500000000E-02 0.  1.
         -2   -1    0    0    0  501 -0.00000000000E+00 -0.00000000000E+00 -0.64973861286E+01  0.64973866290E+01  0.25500000000E-02 0. -1.
    5000001    1    1    2    0    0  0.57078090811E+02 -0.95310043119E+02  0.32753023009E+04  0.32780903092E+04  0.77000000000E+02 0.  0.
   -5000001    1    1    2    0    0 -0.57078090811E+02  0.95310043119E+02  0.88993601953E+03  0.90014278402E+03  0.77000000000E+02 0.  0.
<mgrwt>
<rscale>  0 0.32927422E+03</rscale>
<asrwt>0</asrwt>
<pdfrwt beam="1">  1        2 0.64180719E+00 0.32927422E+03</pdfrwt>
<pdfrwt beam="2">  1       -2 0.99959526E-03 0.32927422E+03</pdfrwt>
<totfact> 0.68862109E+02</totfact>
</mgrwt>
</event>
<event>
 4    1  0.6086918E-004  0.1567521E+03  0.7818608E-02  0.1192413E+00
          2   -1    0    0  501    0  0.00000000000E+00  0.00000000000E+00  0.11244589696E+04  0.11244589696E+04  0.25500000000E-02 0.  1.
         -2   -1    0    0    0  501 -0.00000000000E+00 -0.00000000000E+00 -0.54628984569E+01  0.54628990520E+01  0.25500000000E-02 0. -1.
    5000001    1    1    2    0    0 -0.61518261933E+01  0.70301456337E+01  0.47841223234E+03  0.48465919156E+03  0.77000000000E+02 0.  0.
   -5000001    1    1    2    0    0  0.61518261933E+01 -0.70301456337E+01  0.64058383880E+03  0.64526267709E+03  0.77000000000E+02 0.  0.
<mgrwt>
<rscale>  0 0.15675210E+03</rscale>
<asrwt>0</asrwt>
<pdfrwt beam="1">  1        2 0.17299378E+00 0.15675210E+03</pdfrwt>
<pdfrwt beam="2">  1       -2 0.84044553E-03 0.15675210E+03</pdfrwt>
<totfact> 0.57812447E+04</totfact>
</mgrwt>
</event>
<event>
 4    1  0.6086918E-004  0.2378495E+03  0.7818608E-02  0.1121234E+00
         -2   -1    0    0    0  501 -0.00000000000E+00  0.00000000000E+00  0.32474603090E+01  0.32474613101E+01  0.25500000000E-02 0. -1.
          2   -1    0    0  501    0  0.00000000000E+00 -0.00000000000E+00 -0.43551239672E+04  0.43551239672E+04  0.25500000000E-02 0.  1.
    5000001    1    1    2    0    0 -0.82871147133E+02 -0.31819966387E+02 -0.25108014173E+04  0.25135498592E+04  0.77000000000E+02 0.  0.
   -5000001    1    1    2    0    0  0.82871147133E+02  0.31819966387E+02 -0.18410750896E+04  0.18448215693E+04  0.77000000000E+02 0.  0.
<mgrwt>
<rscale>  0 0.23784949E+03</rscale>
<asrwt>0</asrwt>
<pdfrwt beam="1">  1        2 0.67001440E+00 0.23784949E+03</pdfrwt>
<pdfrwt beam="2">  1       -2 0.49961284E-03 0.23784949E+03</pdfrwt>
<totfact> 0.13456432E+03</totfact>
</mgrwt>
</event>
<event>
 4    1  0.6086918E-004  0.2948051E+03  0.7818608E-02  0.1087867E+00
         -2   -1    0    0    0  501 -0.00000000000E+00  0.00000000000E+00  0.17371544581E+02  0.17371544769E+02  0.25500000000E-02 0. -1.
          2   -1    0    0  501    0  0.00000000000E+00 -0.00000000000E+00 -0.12507530413E+04  0.12507530413E+04  0.25500000000E-02 0.  1.
    5000001    1    1    2    0    0 -0.82362288714E+02  0.79946366122E+02 -0.83701947457E+03  0.84835462447E+03  0.77000000000E+02 0.  0.
   -5000001    1    1    2    0    0  0.82362288714E+02 -0.79946366122E+02 -0.39636202218E+03  0.41976996163E+03  0.77000000000E+02 0.  0.
<mgrwt>
<rscale>  0 0.29480510E+03</rscale>
<asrwt>0</asrwt>
<pdfrwt beam="1">  1        2 0.19242347E+00 0.29480510E+03</pdfrwt>
<pdfrwt beam="2">  1       -2 0.26725463E-02 0.29480510E+03</pdfrwt>
<totfact> 0.94193606E+03</totfact>
</mgrwt>
</event>
<event>
 4    1  0.6086918E-004  0.2925987E+03  0.7818608E-02  0.1089000E+00
         -2   -1    0    0    0  501 -0.00000000000E+00  0.00000000000E+00  0.24642841124E+03  0.24642841125E+03  0.25500000000E-02 0. -1.
          2   -1    0    0  501    0  0.00000000000E+00 -0.00000000000E+00 -0.86854859982E+02  0.86854860019E+02  0.25500000000E-02 0.  1.
    5000001    1    1    2    0    0  0.58752372700E+02 -0.41318320076E+02 -0.35900441608E+02  0.11125145653E+03  0.77000000000E+02 0.  0.
   -5000001    1    1    2    0    0 -0.58752372700E+02  0.41318320076E+02  0.19547399287E+03  0.22203181474E+03  0.77000000000E+02 0.  0.
<mgrwt>
<rscale>  0 0.29259874E+03</rscale>
<asrwt>0</asrwt>
<pdfrwt beam="1">  1        2 0.13362286E-01 0.29259874E+03</pdfrwt>
<pdfrwt beam="2">  1       -2 0.37912063E-01 0.29259874E+03</pdfrwt>
<totfact> 0.29536148E+03</totfact>
</mgrwt>
</event>
<event>
 4    1  0.6086918E-004  0.2427972E+03  0.7818608E-02  0.1117943E+00
          2   -1    0    0  501    0  0.00000000000E+00  0.00000000000E+00  0.22873501527E+04  0.22873501527E+04  0.25500000000E-02 0.  1.
         -2   -1    0    0    0  501 -0.00000000000E+00 -0.00000000000E+00 -0.64430977430E+01  0.64430982476E+01  0.25500000000E-02 0. -1.
    5000001    1    1    2    0    0  0.84331606084E+02 -0.10979598967E+02  0.76537422157E+03  0.77392446041E+03  0.77000000000E+02 0.  0.
   -5000001    1    1    2    0    0 -0.84331606084E+02  0.10979598967E+02  0.15155328334E+04  0.15198687905E+04  0.77000000000E+02 0.  0.
<mgrwt>
<rscale>  0 0.24279721E+03</rscale>
<asrwt>0</asrwt>
<pdfrwt beam="1">  1        2 0.35190021E+00 0.24279721E+03</pdfrwt>
<pdfrwt beam="2">  1       -2 0.99124532E-03 0.24279721E+03</pdfrwt>
<totfact> 0.11271949E+04</totfact>
</mgrwt>
</event>
<event>
 4    1  0.6086918E-004  0.2394533E+03  0.7818608E-02  0.1120158E+00
          2   -1    0    0  501    0  0.00000000000E+00  0.00000000000E+00  0.73254288273E+03  0.73254288273E+03  0.25500000000E-02 0.  1.
         -2   -1    0    0    0  501 -0.00000000000E+00 -0.00000000000E+00 -0.19568093311E+02  0.19568093477E+02  0.25500000000E-02 0. -1.
    5000001    1    1    2    0    0  0.61356792541E+02  0.52848401024E+02  0.49150657070E+03  0.50404892474E+03  0.77000000000E+02 0.  0.
   -5000001    1    1    2    0    0 -0.61356792541E+02 -0.52848401024E+02  0.22146821871E+03  0.24806205147E+03  0.77000000000E+02 0.  0.
<mgrwt>
<rscale>  0 0.23945327E+03</rscale>
<asrwt>0</asrwt>
<pdfrwt beam="1">  1        2 0.11269889E+00 0.23945327E+03</pdfrwt>
<pdfrwt beam="2">  1       -2 0.30104763E-02 0.23945327E+03</pdfrwt>
<totfact> 0.16504108E+04</totfact>
</mgrwt>
</event>
<event>
 4    1  0.6086918E-004  0.2107438E+03  0.7818608E-02  0.1140978E+00
         -2   -1    0    0    0  501 -0.00000000000E+00  0.00000000000E+00  0.56281752013E+02  0.56281752071E+02  0.25500000000E-02 0. -1.
          2   -1    0    0  501    0  0.00000000000E+00 -0.00000000000E+00 -0.19727944961E+03  0.19727944963E+03  0.25500000000E-02 0.  1.
    5000001    1    1    2    0    0  0.61660155725E+02  0.27395467319E+02 -0.10049978447E+03  0.14346321170E+03  0.77000000000E+02 0.  0.
   -5000001    1    1    2    0    0 -0.61660155725E+02 -0.27395467319E+02 -0.40497913132E+02  0.11009799000E+03  0.77000000000E+02 0.  0.
<mgrwt>
<rscale>  0 0.21074376E+03</rscale>
<asrwt>0</asrwt>
<pdfrwt beam="1">  1        2 0.30350684E-01 0.21074376E+03</pdfrwt>
<pdfrwt beam="2">  1       -2 0.86587311E-02 0.21074376E+03</pdfrwt>
<totfact> 0.14028278E+04</totfact>
</mgrwt>
</event>
<event>
 4    1  0.6086918E-004  0.1844674E+03  0.7818608E-02  0.1163548E+00
          2   -1    0    0  501    0  0.00000000000E+00  0.00000000000E+00  0.76524798132E+03  0.76524798133E+03  0.25500000000E-02 0.  1.
         -2   -1    0    0    0  501 -0.00000000000E+00 -0.00000000000E+00 -0.11116735899E+02  0.11116736191E+02  0.25500000000E-02 0. -1.
    5000001    1    1    2    0    0  0.28916271643E+02 -0.11161116504E+02  0.20780866978E+03  0.22377257321E+03  0.77000000000E+02 0.  0.
   -5000001    1    1    2    0    0 -0.28916271643E+02  0.11161116504E+02  0.54632257565E+03  0.55259214431E+03  0.77000000000E+02 0.  0.
<mgrwt>
<rscale>  0 0.18446745E+03</rscale>
<asrwt>0</asrwt>
<pdfrwt beam="1">  1        2 0.11773044E+00 0.18446745E+03</pdfrwt>
<pdfrwt beam="2">  1       -2 0.17102674E-02 0.18446745E+03</pdfrwt>
<totfact> 0.35286828E+04</totfact>
</mgrwt>
</event>
<event>
 4    1  0.6086918E-004  0.3012030E+03  0.7818608E-02  0.1084641E+00
         -2   -1    0    0    0  501 -0.00000000000E+00  0.00000000000E+00  0.27354958678E+02  0.27354958797E+02  0.25500000000E-02 0. -1.
          2   -1    0    0  501    0  0.00000000000E+00 -0.00000000000E+00 -0.82912965548E+03  0.82912965548E+03  0.25500000000E-02 0.  1.
    5000001    1    1    2    0    0  0.12350622801E+03  0.15341441848E+02 -0.50192969144E+03  0.52283033897E+03  0.77000000000E+02 0.  0.
   -5000001    1    1    2    0    0 -0.12350622801E+03 -0.15341441848E+02 -0.29984500536E+03  0.33365427531E+03  0.77000000000E+02 0.  0.
<mgrwt>
<rscale>  0 0.30120297E+03</rscale>
<asrwt>0</asrwt>
<pdfrwt beam="1">  1        2 0.12755839E+00 0.30120297E+03</pdfrwt>
<pdfrwt beam="2">  1       -2 0.42084558E-02 0.30120297E+03</pdfrwt>
<totfact> 0.86247900E+03</totfact>
</mgrwt>
</event>
<event>
 4    1  0.6086918E-004  0.1956503E+03  0.7818608E-02  0.1153462E+00
         -2   -1    0    0    0  501 -0.00000000000E+00  0.00000000000E+00  0.93005539347E+02  0.93005539382E+02  0.25500000000E-02 0. -1.
          2   -1    0    0  501    0  0.00000000000E+00 -0.00000000000E+00 -0.10289448933E+03  0.10289448937E+03  0.25500000000E-02 0.  1.
    5000001    1    1    2    0    0 -0.49529999905E+02 -0.29662405414E+02  0.12618677409E+02  0.97063433924E+02  0.77000000000E+02 0.  0.
   -5000001    1    1    2    0    0  0.49529999905E+02  0.29662405414E+02 -0.22507627396E+02  0.98836594825E+02  0.77000000000E+02 0.  0.
<mgrwt>
<rscale>  0 0.19565027E+03</rscale>
<asrwt>0</asrwt>
<pdfrwt beam="1">  1        2 0.15829921E-01 0.19565027E+03</pdfrwt>
<pdfrwt beam="2">  1       -2 0.14308545E-01 0.19565027E+03</pdfrwt>
<totfact> 0.13043705E+04</totfact>
</mgrwt>
</event>
<event>
 4    1  0.6086918E-004  0.2044934E+03  0.7818608E-02  0.1146002E+00
         -2   -1    0    0    0  501 -0.00000000000E+00  0.00000000000E+00  0.98508443538E+01  0.98508446838E+01  0.25500000000E-02 0. -1.
          2   -1    0    0  501    0  0.00000000000E+00 -0.00000000000E+00 -0.10612681111E+04  0.10612681111E+04  0.25500000000E-02 0.  1.
    5000001    1    1    2    0    0  0.62522388365E+02 -0.15878295513E+02 -0.42574569149E+03  0.43743521022E+03  0.77000000000E+02 0.  0.
   -5000001    1    1    2    0    0 -0.62522388365E+02  0.15878295513E+02 -0.62567157522E+03  0.63368374553E+03  0.77000000000E+02 0.  0.
<mgrwt>
<rscale>  0 0.20449340E+03</rscale>
<asrwt>0</asrwt>
<pdfrwt beam="1">  1        2 0.16327193E+00 0.20449340E+03</pdfrwt>
<pdfrwt beam="2">  1       -2 0.15155154E-02 0.20449340E+03</pdfrwt>
<totfact> 0.27434830E+04</totfact>
</mgrwt>
</event>
<event>
 4    1  0.6086918E-004  0.3926443E+03  0.7818608E-02  0.1046357E+00
          2   -1    0    0  501    0  0.00000000000E+00  0.00000000000E+00  0.77980716115E+03  0.77980716116E+03  0.25500000000E-02 0.  1.
         -2   -1    0    0    0  501 -0.00000000000E+00 -0.00000000000E+00 -0.49425530888E+02  0.49425530954E+02  0.25500000000E-02 0. -1.
    5000001    1    1    2    0    0  0.86916013269E+02  0.15255089353E+03  0.27590849323E+03  0.33597717946E+03  0.77000000000E+02 0.  0.
   -5000001    1    1    2    0    0 -0.86916013269E+02 -0.15255089353E+03  0.45447313703E+03  0.49325551265E+03  0.77000000000E+02 0.  0.
<mgrwt>
<rscale>  0 0.39264428E+03</rscale>
<asrwt>0</asrwt>
<pdfrwt beam="1">  1        2 0.11997033E+00 0.39264428E+03</pdfrwt>
<pdfrwt beam="2">  1       -2 0.76039283E-02 0.39264428E+03</pdfrwt>
<totfact> 0.37726950E+03</totfact>
</mgrwt>
</event>
<event>
 4    1  0.6086918E-004  0.1772916E+03  0.7818608E-02  0.1170450E+00
         -2   -1    0    0    0  501 -0.00000000000E+00  0.00000000000E+00  0.31223435726E+01  0.31223446139E+01  0.25500000000E-02 0. -1.
          2   -1    0    0  501    0  0.00000000000E+00 -0.00000000000E+00 -0.25167240068E+04  0.25167240068E+04  0.25500000000E-02 0.  1.
    5000001    1    1    2    0    0  0.24850273759E+02  0.74111209636E+01 -0.75296686477E+03  0.75733781120E+03  0.77000000000E+02 0.  0.
   -5000001    1    1    2    0    0 -0.24850273759E+02 -0.74111209636E+01 -0.17606347984E+04  0.17625085402E+04  0.77000000000E+02 0.  0.
<mgrwt>
<rscale>  0 0.17729161E+03</rscale>
<asrwt>0</asrwt>
<pdfrwt beam="1">  1        2 0.38718669E+00 0.17729161E+03</pdfrwt>
<pdfrwt beam="2">  1       -2 0.48036264E-03 0.17729161E+03</pdfrwt>
<totfact> 0.23839374E+04</totfact>
</mgrwt>
</event>
<event>
 4    1  0.6086918E-004  0.3169709E+03  0.7818608E-02  0.1077052E+00
         -2   -1    0    0    0  501 -0.00000000000E+00  0.00000000000E+00  0.73788941066E+03  0.73788941067E+03  0.25500000000E-02 0. -1.
          2   -1    0    0  501    0  0.00000000000E+00 -0.00000000000E+00 -0.34039830337E+02  0.34039830433E+02  0.25500000000E-02 0.  1.
    5000001    1    1    2    0    0  0.20598260284E+02 -0.13068298759E+03  0.25191893417E+03  0.29477869829E+03  0.77000000000E+02 0.  0.
   -5000001    1    1    2    0    0 -0.20598260284E+02  0.13068298759E+03  0.45193064615E+03  0.47715054281E+03  0.77000000000E+02 0.  0.
<mgrwt>
<rscale>  0 0.31697085E+03</rscale>
<asrwt>0</asrwt>
<pdfrwt beam="1">  1        2 0.52368968E-02 0.31697085E+03</pdfrwt>
<pdfrwt beam="2">  1       -2 0.11352145E+00 0.31697085E+03</pdfrwt>
<totfact> 0.94223749E+02</totfact>
</mgrwt>
</event>
<event>
 4    1  0.6086918E-004  0.1735864E+03  0.7818608E-02  0.1174159E+00
          2   -1    0    0  501    0  0.00000000000E+00  0.00000000000E+00  0.15685037710E+04  0.15685037710E+04  0.25500000000E-02 0.  1.
         -2   -1    0    0    0  501 -0.00000000000E+00 -0.00000000000E+00 -0.48027044018E+01  0.48027050788E+01  0.25500000000E-02 0. -1.
    5000001    1    1    2    0    0 -0.33642128656E+02  0.20766247661E+02  0.83990715162E+03  0.84435540692E+03  0.77000000000E+02 0.  0.
   -5000001    1    1    2    0    0  0.33642128656E+02 -0.20766247661E+02  0.72379391493E+03  0.72895106911E+03  0.77000000000E+02 0.  0.
<mgrwt>
<rscale>  0 0.17358641E+03</rscale>
<asrwt>0</asrwt>
<pdfrwt beam="1">  1        2 0.24130862E+00 0.17358641E+03</pdfrwt>
<pdfrwt beam="2">  1       -2 0.73887659E-03 0.17358641E+03</pdfrwt>
<totfact> 0.40305708E+04</totfact>
</mgrwt>
</event>
<event>
 4    1  0.6086918E-004  0.2436677E+03  0.7818608E-02  0.1117373E+00
          2   -1    0    0  501    0  0.00000000000E+00  0.00000000000E+00  0.20626632504E+03  0.20626632505E+03  0.25500000000E-02 0.  1.
         -2   -1    0    0    0  501 -0.00000000000E+00 -0.00000000000E+00 -0.71962723845E+02  0.71962723890E+02  0.25500000000E-02 0. -1.
    5000001    1    1    2    0    0  0.90100602853E+02  0.27529106497E+02  0.60065386120E+02  0.13569385008E+03  0.77000000000E+02 0.  0.
   -5000001    1    1    2    0    0 -0.90100602853E+02 -0.27529106497E+02  0.74238215073E+02  0.14253519887E+03  0.77000000000E+02 0.  0.
<mgrwt>
<rscale>  0 0.24366770E+03</rscale>
<asrwt>0</asrwt>
<pdfrwt beam="1">  1        2 0.31733281E-01 0.24366770E+03</pdfrwt>
<pdfrwt beam="2">  1       -2 0.11071188E-01 0.24366770E+03</pdfrwt>
<totfact> 0.91331367E+03</totfact>
</mgrwt>
</event>
<event>
 4    1  0.6086918E-004  0.2635556E+03  0.7818608E-02  0.1105026E+00
         -2   -1    0    0    0  501 -0.00000000000E+00  0.00000000000E+00  0.71723925280E+02  0.71723925325E+02  0.25500000000E-02 0. -1.
          2   -1    0    0  501    0  0.00000000000E+00 -0.00000000000E+00 -0.24211436164E+03  0.24211436165E+03  0.25500000000E-02 0.  1.
    5000001    1    1    2    0    0  0.69780489118E+02  0.76593793034E+02 -0.11671094622E+03  0.17402979848E+03  0.77000000000E+02 0.  0.
   -5000001    1    1    2    0    0 -0.69780489118E+02 -0.76593793034E+02 -0.53679490137E+02  0.13980848849E+03  0.77000000000E+02 0.  0.
<mgrwt>
<rscale>  0 0.26355563E+03</rscale>
<asrwt>0</asrwt>
<pdfrwt beam="1">  1        2 0.37248363E-01 0.26355563E+03</pdfrwt>
<pdfrwt beam="2">  1       -2 0.11034450E-01 0.26355563E+03</pdfrwt>
<totfact> 0.77428472E+03</totfact>
</mgrwt>
</event>
<event>
 4    1  0.6086918E-004  0.2457948E+03  0.7818608E-02  0.1115992E+00
          2   -1    0    0  501    0  0.00000000000E+00  0.00000000000E+00  0.13101444676E+03  0.13101444678E+03  0.25500000000E-02 0.  1.
         -2   -1    0    0    0  501 -0.00000000000E+00 -0.00000000000E+00 -0.11528328049E+03  0.11528328052E+03  0.25500000000E-02 0. -1.
    5000001    1    1    2    0    0  0.53337632006E+02  0.64009036391E+02  0.55213878142E+02  0.12617302432E+03  0.77000000000E+02 0.  0.
   -5000001    1    1    2    0    0 -0.53337632006E+02 -0.64009036391E+02 -0.39482711879E+02  0.12012470298E+03  0.77000000000E+02 0.  0.
<mgrwt>
<rscale>  0 0.24579483E+03</rscale>
<asrwt>0</asrwt>
<pdfrwt beam="1">  1        2 0.20156069E-01 0.24579483E+03</pdfrwt>
<pdfrwt beam="2">  1       -2 0.17735889E-01 0.24579483E+03</pdfrwt>
<totfact> 0.70008094E+03</totfact>
</mgrwt>
</event>
<event>
 4    1  0.6086918E-004  0.3387686E+03  0.7818608E-02  0.1067322E+00
         -2   -1    0    0    0  501 -0.00000000000E+00  0.00000000000E+00  0.56937907527E+02  0.56937907584E+02  0.25500000000E-02 0. -1.
          2   -1    0    0  501    0  0.00000000000E+00 -0.00000000000E+00 -0.50390046452E+03  0.50390046453E+03  0.25500000000E-02 0.  1.
    5000001    1    1    2    0    0  0.13552936748E+03 -0.50185201058E+02 -0.15178989118E+03  0.22328442606E+03  0.77000000000E+02 0.  0.
   -5000001    1    1    2    0    0 -0.13552936748E+03  0.50185201058E+02 -0.29517266581E+03  0.33755394606E+03  0.77000000000E+02 0.  0.
<mgrwt>
<rscale>  0 0.33876858E+03</rscale>
<asrwt>0</asrwt>
<pdfrwt beam="1">  1        2 0.77523145E-01 0.33876858E+03</pdfrwt>
<pdfrwt beam="2">  1       -2 0.87596784E-02 0.33876858E+03</pdfrwt>
<totfact> 0.50707867E+03</totfact>
</mgrwt>
</event>
<event>
 4    1  0.6086918E-004  0.2121784E+03  0.7818608E-02  0.1139852E+00
         -2   -1    0    0    0  501 -0.00000000000E+00  0.00000000000E+00  0.26268344831E+02  0.26268344955E+02  0.25500000000E-02 0. -1.
          2   -1    0    0  501    0  0.00000000000E+00 -0.00000000000E+00 -0.42845944522E+03  0.42845944522E+03  0.25500000000E-02 0.  1.
    5000001    1    1    2    0    0  0.39301451301E+01  0.72608678304E+02 -0.18780562274E+03  0.21560941106E+03  0.77000000000E+02 0.  0.
   -5000001    1    1    2    0    0 -0.39301451301E+01 -0.72608678304E+02 -0.21438547765E+03  0.23911837912E+03  0.77000000000E+02 0.  0.
<mgrwt>
<rscale>  0 0.21217842E+03</rscale>
<asrwt>0</asrwt>
<pdfrwt beam="1">  1        2 0.65916833E-01 0.21217842E+03</pdfrwt>
<pdfrwt beam="2">  1       -2 0.40412841E-02 0.21217842E+03</pdfrwt>
<totfact> 0.19510693E+04</totfact>
</mgrwt>
</event>
<event>
 4    1  0.6086918E-004  0.2474074E+03  0.7818608E-02  0.1114954E+00
          2   -1    0    0  501    0  0.00000000000E+00  0.00000000000E+00  0.19904832137E+04  0.19904832137E+04  0.25500000000E-02 0.  1.
         -2   -1    0    0    0  501 -0.00000000000E+00 -0.00000000000E+00 -0.76878815502E+01  0.76878819731E+01  0.25500000000E-02 0. -1.
    5000001    1    1    2    0    0 -0.37128522181E+02  0.68183564826E+02  0.52421380103E+03  0.53549662451E+03  0.77000000000E+02 0.  0.
   -5000001    1    1    2    0    0  0.37128522181E+02 -0.68183564826E+02  0.14585815311E+04  0.14626744711E+04  0.77000000000E+02 0.  0.
<mgrwt>
<rscale>  0 0.24740735E+03</rscale>
<asrwt>0</asrwt>
<pdfrwt beam="1">  1        2 0.30622857E+00 0.24740735E+03</pdfrwt>
<pdfrwt beam="2">  1       -2 0.11827495E-02 0.24740735E+03</pdfrwt>
<totfact> 0.12519159E+04</totfact>
</mgrwt>
</event>
<event>
 4    1  0.6086918E-004  0.2133961E+03  0.7818608E-02  0.1138905E+00
         -2   -1    0    0    0  501 -0.00000000000E+00  0.00000000000E+00  0.64471922404E+01  0.64471927447E+01  0.25500000000E-02 0. -1.
          2   -1    0    0  501    0  0.00000000000E+00 -0.00000000000E+00 -0.17658036665E+04  0.17658036665E+04  0.25500000000E-02 0.  1.
    5000001    1    1    2    0    0  0.43250330074E+01  0.70760497821E+02 -0.70751811549E+03  0.71521789526E+03  0.77000000000E+02 0.  0.
   -5000001    1    1    2    0    0 -0.43250330074E+01 -0.70760497821E+02 -0.10518383588E+04  0.10570329640E+04  0.77000000000E+02 0.  0.
<mgrwt>
<rscale>  0 0.21339612E+03</rscale>
<asrwt>0</asrwt>
<pdfrwt beam="1">  1        2 0.27166172E+00 0.21339612E+03</pdfrwt>
<pdfrwt beam="2">  1       -2 0.99187718E-03 0.21339612E+03</pdfrwt>
<totfact> 0.21065781E+04</totfact>
</mgrwt>
</event>
<event>
 4    1  0.6086918E-004  0.2803124E+03  0.7818608E-02  0.1095518E+00
         -2   -1    0    0    0  501 -0.00000000000E+00  0.00000000000E+00  0.29423982850E+02  0.29423982960E+02  0.25500000000E-02 0. -1.
          2   -1    0    0  501    0  0.00000000000E+00 -0.00000000000E+00 -0.66761037590E+03  0.66761037590E+03  0.25500000000E-02 0.  1.
    5000001    1    1    2    0    0 -0.57596223921E+02 -0.89350184624E+01 -0.57167449782E+03  0.57977399995E+03  0.77000000000E+02 0.  0.
   -5000001    1    1    2    0    0  0.57596223921E+02  0.89350184624E+01 -0.66511895232E+02  0.11726035891E+03  0.77000000000E+02 0.  0.
<mgrwt>
<rscale>  0 0.28031237E+03</rscale>
<asrwt>0</asrwt>
<pdfrwt beam="1">  1        2 0.10270928E+00 0.28031237E+03</pdfrwt>
<pdfrwt beam="2">  1       -2 0.45267671E-02 0.28031237E+03</pdfrwt>
<totfact> 0.10090180E+04</totfact>
</mgrwt>
</event>
<event>
 4    1  0.6086918E-004  0.2707348E+03  0.7818608E-02  0.1100860E+00
          2   -1    0    0  501    0  0.00000000000E+00  0.00000000000E+00  0.14132941218E+03  0.14132941221E+03  0.25500000000E-02 0.  1.
         -2   -1    0    0    0  501 -0.00000000000E+00 -0.00000000000E+00 -0.12965685501E+03  0.12965685504E+03  0.25500000000E-02 0. -1.
    5000001    1    1    2    0    0 -0.92872481766E+02 -0.61182724125E+02  0.11008623087E+02  0.13571592899E+03  0.77000000000E+02 0.  0.
   -5000001    1    1    2    0    0  0.92872481766E+02  0.61182724125E+02  0.66393408520E+00  0.13527033825E+03  0.77000000000E+02 0.  0.
<mgrwt>
<rscale>  0 0.27073476E+03</rscale>
<asrwt>0</asrwt>
<pdfrwt beam="1">  1        2 0.21742987E-01 0.27073476E+03</pdfrwt>
<pdfrwt beam="2">  1       -2 0.19947208E-01 0.27073476E+03</pdfrwt>
<totfact> 0.52830715E+03</totfact>
</mgrwt>
</event>
<event>
 4    1  0.6086918E-004  0.1942319E+03  0.7818608E-02  0.1154699E+00
         -2   -1    0    0    0  501 -0.00000000000E+00  0.00000000000E+00  0.79226565472E+03  0.79226565472E+03  0.25500000000E-02 0. -1.
          2   -1    0    0  501    0  0.00000000000E+00 -0.00000000000E+00 -0.11904481970E+02  0.11904482243E+02  0.25500000000E-02 0.  1.
    5000001    1    1    2    0    0 -0.27893490994E+02 -0.51312910892E+02  0.42977379291E+03  0.44050604392E+03  0.77000000000E+02 0.  0.
   -5000001    1    1    2    0    0  0.27893490994E+02  0.51312910892E+02  0.35058737985E+03  0.36366409305E+03  0.77000000000E+02 0.  0.
<mgrwt>
<rscale>  0 0.19423195E+03</rscale>
<asrwt>0</asrwt>
<pdfrwt beam="1">  1        2 0.18314589E-02 0.19423195E+03</pdfrwt>
<pdfrwt beam="2">  1       -2 0.12188702E+00 0.19423195E+03</pdfrwt>
<totfact> 0.32355547E+03</totfact>
</mgrwt>
</event>
<event>
 4    1  0.6086918E-004  0.3415767E+03  0.7818608E-02  0.1066126E+00
          2   -1    0    0  501    0  0.00000000000E+00  0.00000000000E+00  0.22037371950E+04  0.22037371950E+04  0.25500000000E-02 0.  1.
         -2   -1    0    0    0  501 -0.00000000000E+00 -0.00000000000E+00 -0.13235994131E+02  0.13235994377E+02  0.25500000000E-02 0. -1.
    5000001    1    1    2    0    0 -0.60396223623E+02  0.10577029916E+03  0.16902692788E+04  0.16964003934E+04  0.77000000000E+02 0.  0.
   -5000001    1    1    2    0    0  0.60396223623E+02 -0.10577029916E+03  0.50023192206E+03  0.52057279593E+03  0.77000000000E+02 0.  0.
<mgrwt>
<rscale>  0 0.34157666E+03</rscale>
<asrwt>0</asrwt>
<pdfrwt beam="1">  1        2 0.33903633E+00 0.34157666E+03</pdfrwt>
<pdfrwt beam="2">  1       -2 0.20363078E-02 0.34157666E+03</pdfrwt>
<totfact> 0.43554892E+03</totfact>
</mgrwt>
</event>
<event>
 4    1  0.6086918E-004  0.3361588E+03  0.7818608E-02  0.1068444E+00
          2   -1    0    0  501    0  0.00000000000E+00  0.00000000000E+00  0.74153380645E+03  0.74153380645E+03  0.25500000000E-02 0.  1.
         -2   -1    0    0    0  501 -0.00000000000E+00 -0.00000000000E+00 -0.38097633812E+02  0.38097633897E+02  0.25500000000E-02 0. -1.
    5000001    1    1    2    0    0  0.88180803367E+02 -0.65284817653E+02  0.58690872555E+03  0.60202060897E+03  0.77000000000E+02 0.  0.
   -5000001    1    1    2    0    0 -0.88180803367E+02  0.65284817653E+02  0.11652744708E+03  0.17761083138E+03  0.77000000000E+02 0.  0.
<mgrwt>
<rscale>  0 0.33615879E+03</rscale>
<asrwt>0</asrwt>
<pdfrwt beam="1">  1        2 0.11408212E+00 0.33615879E+03</pdfrwt>
<pdfrwt beam="2">  1       -2 0.58611749E-02 0.33615879E+03</pdfrwt>
<totfact> 0.60131398E+03</totfact>
</mgrwt>
</event>
<event>
 4    1  0.6086918E-004  0.1922330E+03  0.7818608E-02  0.1156463E+00
          2   -1    0    0  501    0  0.00000000000E+00  0.00000000000E+00  0.31637527730E+03  0.31637527731E+03  0.25500000000E-02 0.  1.
         -2   -1    0    0    0  501 -0.00000000000E+00 -0.00000000000E+00 -0.29200691844E+02  0.29200691955E+02  0.25500000000E-02 0. -1.
    5000001    1    1    2    0    0 -0.40700589868E+01 -0.54296659063E+02  0.17696269697E+03  0.20052303779E+03  0.77000000000E+02 0.  0.
   -5000001    1    1    2    0    0  0.40700589868E+01  0.54296659063E+02  0.11021188848E+03  0.14505293147E+03  0.77000000000E+02 0.  0.
<mgrwt>
<rscale>  0 0.19223295E+03</rscale>
<asrwt>0</asrwt>
<pdfrwt beam="1">  1        2 0.48673123E-01 0.19223295E+03</pdfrwt>
<pdfrwt beam="2">  1       -2 0.44924139E-02 0.19223295E+03</pdfrwt>
<totfact> 0.22902903E+04</totfact>
</mgrwt>
</event>
<event>
 4    1  0.6086918E-004  0.1722984E+03  0.7818608E-02  0.1175472E+00
         -2   -1    0    0    0  501 -0.00000000000E+00  0.00000000000E+00  0.17429692278E+02  0.17429692464E+02  0.25500000000E-02 0. -1.
          2   -1    0    0  501    0  0.00000000000E+00 -0.00000000000E+00 -0.42580721441E+03  0.42580721441E+03  0.25500000000E-02 0.  1.
    5000001    1    1    2    0    0  0.20309514942E+02  0.15846591586E+02 -0.13011618340E+03  0.15337148380E+03  0.77000000000E+02 0.  0.
   -5000001    1    1    2    0    0 -0.20309514942E+02 -0.15846591586E+02 -0.27826133873E+03  0.28986542307E+03  0.77000000000E+02 0.  0.
<mgrwt>
<rscale>  0 0.17229845E+03</rscale>
<asrwt>0</asrwt>
<pdfrwt beam="1">  1        2 0.65508794E-01 0.17229845E+03</pdfrwt>
<pdfrwt beam="2">  1       -2 0.26814915E-02 0.17229845E+03</pdfrwt>
<totfact> 0.35516649E+04</totfact>
</mgrwt>
</event>
<event>
 4    1  0.6086918E-004  0.2712437E+03  0.7818608E-02  0.1100570E+00
         -2   -1    0    0    0  501 -0.00000000000E+00  0.00000000000E+00  0.13896774872E+03  0.13896774875E+03  0.25500000000E-02 0. -1.
          2   -1    0    0  501    0  0.00000000000E+00 -0.00000000000E+00 -0.13235647370E+03  0.13235647373E+03  0.25500000000E-02 0.  1.
    5000001    1    1    2    0    0  0.52410437075E+02  0.94311882794E+02  0.31996834585E+02  0.13636122093E+03  0.77000000000E+02 0.  0.
   -5000001    1    1    2    0    0 -0.52410437075E+02 -0.94311882794E+02 -0.25385559562E+02  0.13496300154E+03  0.77000000000E+02 0.  0.
<mgrwt>
<rscale>  0 0.27124366E+03</rscale>
<asrwt>0</asrwt>
<pdfrwt beam="1">  1        2 0.20362534E-01 0.27124366E+03</pdfrwt>
<pdfrwt beam="2">  1       -2 0.21379654E-01 0.27124366E+03</pdfrwt>
<totfact> 0.50537065E+03</totfact>
</mgrwt>
</event>
<event>
 4    1  0.6086918E-004  0.3456315E+03  0.7818608E-02  0.1064422E+00
          2   -1    0    0  501    0  0.00000000000E+00  0.00000000000E+00  0.43450245538E+02  0.43450245613E+02  0.25500000000E-02 0.  1.
         -2   -1    0    0    0  501 -0.00000000000E+00 -0.00000000000E+00 -0.68734454706E+03  0.68734454707E+03  0.25500000000E-02 0. -1.
    5000001    1    1    2    0    0  0.13888982806E+03  0.54248419306E+02 -0.40920232663E+03  0.44227685838E+03  0.77000000000E+02 0.  0.
   -5000001    1    1    2    0    0 -0.13888982806E+03 -0.54248419306E+02 -0.23469197489E+03  0.28851793430E+03  0.77000000000E+02 0.  0.
<mgrwt>
<rscale>  0 0.34563153E+03</rscale>
<asrwt>0</asrwt>
<pdfrwt beam="1">  1        2 0.66846536E-02 0.34563153E+03</pdfrwt>
<pdfrwt beam="2">  1       -2 0.10574531E+00 0.34563153E+03</pdfrwt>
<totfact> 0.81072093E+02</totfact>
</mgrwt>
</event>
<event>
 4    1  0.6086918E-004  0.6611282E+03  0.7818608E-02  0.9786119E-01
          2   -1    0    0  501    0  0.00000000000E+00  0.00000000000E+00  0.84528775488E+03  0.84528775489E+03  0.25500000000E-02 0.  1.
         -2   -1    0    0    0  501 -0.00000000000E+00 -0.00000000000E+00 -0.12927271196E+03  0.12927271198E+03  0.25500000000E-02 0. -1.
    5000001    1    1    2    0    0  0.28465001647E+03  0.10359515156E+03  0.19933897822E+03  0.37070556448E+03  0.77000000000E+02 0.  0.
   -5000001    1    1    2    0    0 -0.28465001647E+03 -0.10359515156E+03  0.51667606470E+03  0.60385490239E+03  0.77000000000E+02 0.  0.
<mgrwt>
<rscale>  0 0.66112825E+03</rscale>
<asrwt>0</asrwt>
<pdfrwt beam="1">  1        2 0.13004427E+00 0.66112825E+03</pdfrwt>
<pdfrwt beam="2">  1       -2 0.19888110E-01 0.66112825E+03</pdfrwt>
<totfact> 0.69346880E+02</totfact>
</mgrwt>
</event>
<event>
 4    1  0.6086918E-004  0.2440308E+03  0.7818608E-02  0.1117136E+00
         -2   -1    0    0    0  501 -0.00000000000E+00  0.00000000000E+00  0.31131875353E+02  0.31131875457E+02  0.25500000000E-02 0. -1.
          2   -1    0    0  501    0  0.00000000000E+00 -0.00000000000E+00 -0.47821585165E+03  0.47821585166E+03  0.25500000000E-02 0.  1.
    5000001    1    1    2    0    0 -0.79369176901E+02 -0.10317381768E+02 -0.32900051350E+03  0.34724091419E+03  0.77000000000E+02 0.  0.
   -5000001    1    1    2    0    0  0.79369176901E+02  0.10317381768E+02 -0.11808346280E+03  0.16210681292E+03  0.77000000000E+02 0.  0.
<mgrwt>
<rscale>  0 0.24403079E+03</rscale>
<asrwt>0</asrwt>
<pdfrwt beam="1">  1        2 0.73571664E-01 0.24403079E+03</pdfrwt>
<pdfrwt beam="2">  1       -2 0.47895197E-02 0.24403079E+03</pdfrwt>
<totfact> 0.13501783E+04</totfact>
</mgrwt>
</event>
<event>
 4    1  0.6086918E-004  0.2223299E+03  0.7818608E-02  0.1132158E+00
         -2   -1    0    0    0  501 -0.00000000000E+00  0.00000000000E+00  0.33833587087E+02  0.33833587183E+02  0.25500000000E-02 0. -1.
          2   -1    0    0  501    0  0.00000000000E+00 -0.00000000000E+00 -0.36524800343E+03  0.36524800343E+03  0.25500000000E-02 0.  1.
    5000001    1    1    2    0    0  0.78272045300E+02 -0.16895764533E+02 -0.15837838236E+03  0.19345462500E+03  0.77000000000E+02 0.  0.
   -5000001    1    1    2    0    0 -0.78272045300E+02  0.16895764533E+02 -0.17303603398E+03  0.20562696562E+03  0.77000000000E+02 0.  0.
<mgrwt>
<rscale>  0 0.22232994E+03</rscale>
<asrwt>0</asrwt>
<pdfrwt beam="1">  1        2 0.56191998E-01 0.22232994E+03</pdfrwt>
<pdfrwt beam="2">  1       -2 0.52051675E-02 0.22232994E+03</pdfrwt>
<totfact> 0.15878090E+04</totfact>
</mgrwt>
</event>
<event>
 4    1  0.6086918E-004  0.3321479E+03  0.7818608E-02  0.1070190E+00
         -2   -1    0    0    0  501 -0.00000000000E+00  0.00000000000E+00  0.42160815823E+02  0.42160815900E+02  0.25500000000E-02 0. -1.
          2   -1    0    0  501    0  0.00000000000E+00 -0.00000000000E+00 -0.65417522830E+03  0.65417522831E+03  0.25500000000E-02 0.  1.
    5000001    1    1    2    0    0  0.13895283791E+03  0.44240333550E+01 -0.20493899985E+03  0.25933849867E+03  0.77000000000E+02 0.  0.
   -5000001    1    1    2    0    0 -0.13895283791E+03 -0.44240333550E+01 -0.40707541263E+03  0.43699754553E+03  0.77000000000E+02 0.  0.
<mgrwt>
<rscale>  0 0.33214793E+03</rscale>
<asrwt>0</asrwt>
<pdfrwt beam="1">  1        2 0.10064234E+00 0.33214793E+03</pdfrwt>
<pdfrwt beam="2">  1       -2 0.64862798E-02 0.33214793E+03</pdfrwt>
<totfact> 0.59911298E+03</totfact>
</mgrwt>
</event>
<event>
 4    1  0.6086918E-004  0.3114424E+03  0.7818608E-02  0.1079657E+00
         -2   -1    0    0    0  501 -0.00000000000E+00  0.00000000000E+00  0.10443893948E+03  0.10443893951E+03  0.25500000000E-02 0. -1.
          2   -1    0    0  501    0  0.00000000000E+00 -0.00000000000E+00 -0.23218444594E+03  0.23218444595E+03  0.25500000000E-02 0.  1.
    5000001    1    1    2    0    0 -0.11418500373E+03  0.59665809600E+02 -0.19022271989E+02  0.15129134391E+03  0.77000000000E+02 0.  0.
   -5000001    1    1    2    0    0  0.11418500373E+03 -0.59665809600E+02 -0.10872323447E+03  0.18533204155E+03  0.77000000000E+02 0.  0.
<mgrwt>
<rscale>  0 0.31144243E+03</rscale>
<asrwt>0</asrwt>
<pdfrwt beam="1">  1        2 0.35720684E-01 0.31144243E+03</pdfrwt>
<pdfrwt beam="2">  1       -2 0.16067529E-01 0.31144243E+03</pdfrwt>
<totfact> 0.44095459E+03</totfact>
</mgrwt>
</event>
<event>
 4    1  0.6086918E-004  0.2543568E+03  0.7818608E-02  0.1110582E+00
          2   -1    0    0  501    0  0.00000000000E+00  0.00000000000E+00  0.12559757091E+04  0.12559757091E+04  0.25500000000E-02 0.  1.
         -2   -1    0    0    0  501 -0.00000000000E+00 -0.00000000000E+00 -0.12877913224E+02  0.12877913476E+02  0.25500000000E-02 0. -1.
    5000001    1    1    2    0    0 -0.40268340014E+02  0.57744352085E+02  0.98435220664E+03  0.98986575662E+03  0.77000000000E+02 0.  0.
   -5000001    1    1    2    0    0  0.40268340014E+02 -0.57744352085E+02  0.25874558924E+03  0.27898786596E+03  0.77000000000E+02 0.  0.
<mgrwt>
<rscale>  0 0.25435681E+03</rscale>
<asrwt>0</asrwt>
<pdfrwt beam="1">  1        2 0.19322695E+00 0.25435681E+03</pdfrwt>
<pdfrwt beam="2">  1       -2 0.19812183E-02 0.25435681E+03</pdfrwt>
<totfact> 0.14498707E+04</totfact>
</mgrwt>
</event>
<event>
 4    1  0.6086918E-004  0.2007971E+03  0.7818608E-02  0.1149068E+00
         -2   -1    0    0    0  501 -0.00000000000E+00  0.00000000000E+00  0.28890817144E+01  0.28890828398E+01  0.25500000000E-02 0. -1.
          2   -1    0    0  501    0  0.00000000000E+00 -0.00000000000E+00 -0.34889518777E+04  0.34889518777E+04  0.25500000000E-02 0.  1.
    5000001    1    1    2    0    0 -0.55971271092E+02 -0.24016012411E+02 -0.21083504674E+04  0.21106350337E+04  0.77000000000E+02 0.  0.
   -5000001    1    1    2    0    0  0.55971271092E+02  0.24016012411E+02 -0.13777123286E+04  0.13812059268E+04  0.77000000000E+02 0.  0.
<mgrwt>
<rscale>  0 0.20079710E+03</rscale>
<asrwt>0</asrwt>
<pdfrwt beam="1">  1        2 0.53675846E+00 0.20079710E+03</pdfrwt>
<pdfrwt beam="2">  1       -2 0.44447699E-03 0.20079710E+03</pdfrwt>
<totfact> 0.71260825E+03</totfact>
</mgrwt>
</event>
<event>
 4    1  0.6086918E-004  0.2216513E+03  0.7818608E-02  0.1132658E+00
         -2   -1    0    0    0  501 -0.00000000000E+00  0.00000000000E+00  0.11076444734E+03  0.11076444737E+03  0.25500000000E-02 0. -1.
          2   -1    0    0  501    0  0.00000000000E+00 -0.00000000000E+00 -0.11088685319E+03  0.11088685321E+03  0.25500000000E-02 0.  1.
    5000001    1    1    2    0    0  0.64706752461E+02  0.30761720808E+02  0.34868356308E+02  0.11080636061E+03  0.77000000000E+02 0.  0.
   -5000001    1    1    2    0    0 -0.64706752461E+02 -0.30761720808E+02 -0.34990762152E+02  0.11084493997E+03  0.77000000000E+02 0.  0.
<mgrwt>
<rscale>  0 0.22165127E+03</rscale>
<asrwt>0</asrwt>
<pdfrwt beam="1">  1        2 0.17059516E-01 0.22165127E+03</pdfrwt>
<pdfrwt beam="2">  1       -2 0.17040684E-01 0.22165127E+03</pdfrwt>
<totfact> 0.90252760E+03</totfact>
</mgrwt>
</event>
<event>
 4    1  0.6086918E-004  0.1864127E+03  0.7818608E-02  0.1161737E+00
          2   -1    0    0  501    0  0.00000000000E+00  0.00000000000E+00  0.59839613107E+03  0.59839613108E+03  0.25500000000E-02 0.  1.
         -2   -1    0    0    0  501 -0.00000000000E+00 -0.00000000000E+00 -0.14517845795E+02  0.14517846019E+02  0.25500000000E-02 0. -1.
    5000001    1    1    2    0    0  0.17239046319E+02 -0.49533949374E+02  0.28285944252E+03  0.29780742281E+03  0.77000000000E+02 0.  0.
   -5000001    1    1    2    0    0 -0.17239046319E+02  0.49533949374E+02  0.30101884276E+03  0.31510655429E+03  0.77000000000E+02 0.  0.
<mgrwt>
<rscale>  0 0.18641269E+03</rscale>
<asrwt>0</asrwt>
<pdfrwt beam="1">  1        2 0.92060933E-01 0.18641269E+03</pdfrwt>
<pdfrwt beam="2">  1       -2 0.22335150E-02 0.18641269E+03</pdfrwt>
<totfact> 0.32045793E+04</totfact>
</mgrwt>
</event>
<event>
 4    1  0.6086918E-004  0.2599868E+03  0.7818608E-02  0.1107151E+00
         -2   -1    0    0    0  501 -0.00000000000E+00  0.00000000000E+00  0.11840641808E+02  0.11840642083E+02  0.25500000000E-02 0. -1.
          2   -1    0    0  501    0  0.00000000000E+00 -0.00000000000E+00 -0.14271425994E+04  0.14271425994E+04  0.25500000000E-02 0.  1.
    5000001    1    1    2    0    0  0.78892651142E+02  0.50081126823E+02 -0.96943827793E+03  0.97697069781E+03  0.77000000000E+02 0.  0.
   -5000001    1    1    2    0    0 -0.78892651142E+02 -0.50081126823E+02 -0.44586367964E+03  0.46201254365E+03  0.77000000000E+02 0.  0.
<mgrwt>
<rscale>  0 0.25998680E+03</rscale>
<asrwt>0</asrwt>
<pdfrwt beam="1">  1        2 0.21956026E+00 0.25998680E+03</pdfrwt>
<pdfrwt beam="2">  1       -2 0.18216384E-02 0.25998680E+03</pdfrwt>
<totfact> 0.13223057E+04</totfact>
</mgrwt>
</event>
<event>
 4    1  0.6086918E-004  0.4174190E+03  0.7818608E-02  0.1037910E+00
         -2   -1    0    0    0  501 -0.00000000000E+00  0.00000000000E+00  0.34157393597E+02  0.34157393693E+02  0.25500000000E-02 0. -1.
          2   -1    0    0  501    0  0.00000000000E+00 -0.00000000000E+00 -0.12752628433E+04  0.12752628433E+04  0.25500000000E-02 0.  1.
    5000001    1    1    2    0    0 -0.18518467792E+03 -0.43354121798E+02 -0.50078427653E+03  0.54119020356E+03  0.77000000000E+02 0.  0.
   -5000001    1    1    2    0    0  0.18518467792E+03  0.43354121798E+02 -0.74032117314E+03  0.76823003339E+03  0.77000000000E+02 0.  0.
<mgrwt>
<rscale>  0 0.41741900E+03</rscale>
<asrwt>0</asrwt>
<pdfrwt beam="1">  1        2 0.19619425E+00 0.41741900E+03</pdfrwt>
<pdfrwt beam="2">  1       -2 0.52549846E-02 0.41741900E+03</pdfrwt>
<totfact> 0.32936521E+03</totfact>
</mgrwt>
</event>
<event>
 4    1  0.6086918E-004  0.2218894E+03  0.7818608E-02  0.1132482E+00
         -2   -1    0    0    0  501 -0.00000000000E+00  0.00000000000E+00  0.23714299407E+02  0.23714299544E+02  0.25500000000E-02 0. -1.
          2   -1    0    0  501    0  0.00000000000E+00 -0.00000000000E+00 -0.51904225444E+03  0.51904225444E+03  0.25500000000E-02 0.  1.
    5000001    1    1    2    0    0 -0.78326839648E+02  0.88903979376E+01 -0.27914046456E+03  0.30010420180E+03  0.77000000000E+02 0.  0.
   -5000001    1    1    2    0    0  0.78326839648E+02 -0.88903979376E+01 -0.21618749047E+03  0.24265235219E+03  0.77000000000E+02 0.  0.
<mgrwt>
<rscale>  0 0.22188937E+03</rscale>
<asrwt>0</asrwt>
<pdfrwt beam="1">  1        2 0.79852646E-01 0.22188937E+03</pdfrwt>
<pdfrwt beam="2">  1       -2 0.36483542E-02 0.22188937E+03</pdfrwt>
<totfact> 0.18454820E+04</totfact>
</mgrwt>
</event>
<event>
 4    1  0.6086918E-004  0.4128295E+03  0.7818608E-02  0.1039426E+00
         -2   -1    0    0    0  501 -0.00000000000E+00  0.00000000000E+00  0.26180478711E+03  0.26180478713E+03  0.25500000000E-02 0. -1.
          2   -1    0    0  501    0  0.00000000000E+00 -0.00000000000E+00 -0.16274361627E+03  0.16274361629E+03  0.25500000000E-02 0.  1.
    5000001    1    1    2    0    0 -0.77347233294E+02 -0.93105577461E+02 -0.10309673982E+03  0.17666120347E+03  0.77000000000E+02 0.  0.
   -5000001    1    1    2    0    0  0.77347233294E+02  0.93105577461E+02  0.20215791066E+03  0.24788719994E+03  0.77000000000E+02 0.  0.
<mgrwt>
<rscale>  0 0.41282954E+03</rscale>
<asrwt>0</asrwt>
<pdfrwt beam="1">  1        2 0.25037480E-01 0.41282954E+03</pdfrwt>
<pdfrwt beam="2">  1       -2 0.40277659E-01 0.41282954E+03</pdfrwt>
<totfact> 0.12718348E+03</totfact>
</mgrwt>
</event>
<event>
 4    1  0.6086918E-004  0.2711993E+03  0.7818608E-02  0.1100595E+00
         -2   -1    0    0    0  501 -0.00000000000E+00  0.00000000000E+00  0.21282757523E+02  0.21282757676E+02  0.25500000000E-02 0. -1.
          2   -1    0    0  501    0  0.00000000000E+00 -0.00000000000E+00 -0.86395125363E+03  0.86395125363E+03  0.25500000000E-02 0.  1.
    5000001    1    1    2    0    0 -0.23161112798E+02  0.82526902101E+02 -0.65469528568E+03  0.66475713145E+03  0.77000000000E+02 0.  0.
   -5000001    1    1    2    0    0  0.23161112798E+02 -0.82526902101E+02 -0.18797321042E+03  0.22047687986E+03  0.77000000000E+02 0.  0.
<mgrwt>
<rscale>  0 0.27119930E+03</rscale>
<asrwt>0</asrwt>
<pdfrwt beam="1">  1        2 0.13291555E+00 0.27119930E+03</pdfrwt>
<pdfrwt beam="2">  1       -2 0.32742711E-02 0.27119930E+03</pdfrwt>
<totfact> 0.11877004E+04</totfact>
</mgrwt>
</event>
<event>
 4    1  0.6086918E-004  0.1841623E+03  0.7818608E-02  0.1163835E+00
          2   -1    0    0  501    0  0.00000000000E+00  0.00000000000E+00  0.23991478564E+02  0.23991478700E+02  0.25500000000E-02 0.  1.
         -2   -1    0    0    0  501 -0.00000000000E+00 -0.00000000000E+00 -0.35341441617E+03  0.35341441618E+03  0.25500000000E-02 0. -1.
    5000001    1    1    2    0    0 -0.42259023530E+02 -0.18996247273E+02 -0.20586397384E+03  0.22462336967E+03  0.77000000000E+02 0.  0.
   -5000001    1    1    2    0    0  0.42259023530E+02  0.18996247273E+02 -0.12355896377E+03  0.15278252521E+03  0.77000000000E+02 0.  0.
<mgrwt>
<rscale>  0 0.18416226E+03</rscale>
<asrwt>0</asrwt>
<pdfrwt beam="1">  1        2 0.36909970E-02 0.18416226E+03</pdfrwt>
<pdfrwt beam="2">  1       -2 0.54371445E-01 0.18416226E+03</pdfrwt>
<totfact> 0.74019094E+03</totfact>
</mgrwt>
</event>
<event>
 4    1  0.6086918E-004  0.2070682E+03  0.7818608E-02  0.1143909E+00
         -2   -1    0    0    0  501 -0.00000000000E+00  0.00000000000E+00  0.28520635515E+02  0.28520635629E+02  0.25500000000E-02 0. -1.
          2   -1    0    0  501    0  0.00000000000E+00 -0.00000000000E+00 -0.37584391920E+03  0.37584391921E+03  0.25500000000E-02 0.  1.
    5000001    1    1    2    0    0  0.96468533985E+01 -0.58395988105E+02 -0.10360085387E+03  0.14200454264E+03  0.77000000000E+02 0.  0.
   -5000001    1    1    2    0    0 -0.96468533985E+01  0.58395988105E+02 -0.24372242981E+03  0.26236001220E+03  0.77000000000E+02 0.  0.
<mgrwt>
<rscale>  0 0.20706818E+03</rscale>
<asrwt>0</asrwt>
<pdfrwt beam="1">  1        2 0.57822138E-01 0.20706818E+03</pdfrwt>
<pdfrwt beam="2">  1       -2 0.43877904E-02 0.20706818E+03</pdfrwt>
<totfact> 0.19835798E+04</totfact>
</mgrwt>
</event>
<event>
 4    1  0.6086918E-004  0.3923238E+03  0.7818608E-02  0.1046471E+00
         -2   -1    0    0    0  501 -0.00000000000E+00  0.00000000000E+00  0.10360891520E+03  0.10360891523E+03  0.25500000000E-02 0. -1.
          2   -1    0    0  501    0  0.00000000000E+00 -0.00000000000E+00 -0.37139172973E+03  0.37139172974E+03  0.25500000000E-02 0.  1.
    5000001    1    1    2    0    0  0.16387913045E+03 -0.10643432228E+02 -0.22433949665E+03  0.28849066155E+03  0.77000000000E+02 0.  0.
   -5000001    1    1    2    0    0 -0.16387913045E+03  0.10643432228E+02 -0.43443317882E+02  0.18650998342E+03  0.77000000000E+02 0.  0.
<mgrwt>
<rscale>  0 0.39232382E+03</rscale>
<asrwt>0</asrwt>
<pdfrwt beam="1">  1        2 0.57137188E-01 0.39232382E+03</pdfrwt>
<pdfrwt beam="2">  1       -2 0.15939833E-01 0.39232382E+03</pdfrwt>
<totfact> 0.26941380E+03</totfact>
</mgrwt>
</event>
<event>
 4    1  0.6086918E-004  0.2435461E+03  0.7818608E-02  0.1117453E+00
          2   -1    0    0  501    0  0.00000000000E+00  0.00000000000E+00  0.30013834923E+03  0.30013834924E+03  0.25500000000E-02 0.  1.
         -2   -1    0    0    0  501 -0.00000000000E+00 -0.00000000000E+00 -0.49406118507E+02  0.49406118572E+02  0.25500000000E-02 0. -1.
    5000001    1    1    2    0    0 -0.62804793083E+02 -0.56629448241E+02  0.18537749050E+03  0.21781907727E+03  0.77000000000E+02 0.  0.
   -5000001    1    1    2    0    0  0.62804793083E+02  0.56629448241E+02  0.65354740228E+02  0.13172539054E+03  0.77000000000E+02 0.  0.
<mgrwt>
<rscale>  0 0.24354606E+03</rscale>
<asrwt>0</asrwt>
<pdfrwt beam="1">  1        2 0.46175131E-01 0.24354606E+03</pdfrwt>
<pdfrwt beam="2">  1       -2 0.76009413E-02 0.24354606E+03</pdfrwt>
<totfact> 0.11020647E+04</totfact>
</mgrwt>
</event>
<event>
 4    1  0.6086918E-004  0.1918095E+03  0.7818608E-02  0.1156839E+00
          2   -1    0    0  501    0  0.00000000000E+00  0.00000000000E+00  0.87928317044E+03  0.87928317045E+03  0.25500000000E-02 0.  1.
         -2   -1    0    0    0  501 -0.00000000000E+00 -0.00000000000E+00 -0.10460472553E+02  0.10460472864E+02  0.25500000000E-02 0. -1.
    5000001    1    1    2    0    0 -0.52097351686E+02 -0.94524593604E+01  0.33435817931E+03  0.34717124753E+03  0.77000000000E+02 0.  0.
   -5000001    1    1    2    0    0  0.52097351686E+02  0.94524593604E+01  0.53446451858E+03  0.54257239578E+03  0.77000000000E+02 0.  0.
<mgrwt>
<rscale>  0 0.19180946E+03</rscale>
<asrwt>0</asrwt>
<pdfrwt beam="1">  1        2 0.13527436E+00 0.19180946E+03</pdfrwt>
<pdfrwt beam="2">  1       -2 0.16093032E-02 0.19180946E+03</pdfrwt>
<totfact> 0.32407537E+04</totfact>
</mgrwt>
</event>
<event>
 4    1  0.6086918E-004  0.3099148E+03  0.7818608E-02  0.1080387E+00
         -2   -1    0    0    0  501 -0.00000000000E+00  0.00000000000E+00  0.36231229325E+02  0.36231229415E+02  0.25500000000E-02 0. -1.
          2   -1    0    0  501    0  0.00000000000E+00 -0.00000000000E+00 -0.66273739299E+03  0.66273739299E+03  0.25500000000E-02 0.  1.
    5000001    1    1    2    0    0  0.11282325249E+03  0.29363301780E+02 -0.16210203897E+03  0.21400317949E+03  0.77000000000E+02 0.  0.
   -5000001    1    1    2    0    0 -0.11282325249E+03 -0.29363301780E+02 -0.46440412469E+03  0.48496544292E+03  0.77000000000E+02 0.  0.
<mgrwt>
<rscale>  0 0.30991477E+03</rscale>
<asrwt>0</asrwt>
<pdfrwt beam="1">  1        2 0.10195959E+00 0.30991477E+03</pdfrwt>
<pdfrwt beam="2">  1       -2 0.55740358E-02 0.30991477E+03</pdfrwt>
<totfact> 0.74370355E+03</totfact>
</mgrwt>
</event>
<event>
 4    1  0.6086918E-004  0.3170595E+03  0.7818608E-02  0.1077011E+00
          2   -1    0    0  501    0  0.00000000000E+00  0.00000000000E+00  0.17737390868E+04  0.17737390868E+04  0.25500000000E-02 0.  1.
         -2   -1    0    0    0  501 -0.00000000000E+00 -0.00000000000E+00 -0.14168759656E+02  0.14168759885E+02  0.25500000000E-02 0. -1.
    5000001    1    1    2    0    0 -0.92815123939E+01 -0.13295448321E+03  0.66582565429E+03  0.68338557418E+03  0.77000000000E+02 0.  0.
   -5000001    1    1    2    0    0  0.92815123939E+01  0.13295448321E+03  0.10937446728E+04  0.11045222725E+04  0.77000000000E+02 0.  0.
<mgrwt>
<rscale>  0 0.31705951E+03</rscale>
<asrwt>0</asrwt>
<pdfrwt beam="1">  1        2 0.27288287E+00 0.31705951E+03</pdfrwt>
<pdfrwt beam="2">  1       -2 0.21798097E-02 0.31705951E+03</pdfrwt>
<totfact> 0.66599496E+03</totfact>
</mgrwt>
</event>
<event>
 4    1  0.6086918E-004  0.2360135E+03  0.7818608E-02  0.1122477E+00
         -2   -1    0    0    0  501 -0.00000000000E+00  0.00000000000E+00  0.56045630524E+01  0.56045636325E+01  0.25500000000E-02 0. -1.
          2   -1    0    0  501    0  0.00000000000E+00 -0.00000000000E+00 -0.24846893219E+04  0.24846893219E+04  0.25500000000E-02 0.  1.
    5000001    1    1    2    0    0 -0.67800855781E+02 -0.58304083351E+02 -0.12450908369E+04  0.12506704260E+04  0.77000000000E+02 0.  0.
   -5000001    1    1    2    0    0  0.67800855781E+02  0.58304083351E+02 -0.12339939219E+04  0.12396234595E+04  0.77000000000E+02 0.  0.
<mgrwt>
<rscale>  0 0.23601355E+03</rscale>
<asrwt>0</asrwt>
<pdfrwt beam="1">  1        2 0.38225902E+00 0.23601355E+03</pdfrwt>
<pdfrwt beam="2">  1       -2 0.86224250E-03 0.23601355E+03</pdfrwt>
<totfact> 0.10793401E+04</totfact>
</mgrwt>
</event>
<event>
 4    1  0.6086918E-004  0.1904872E+03  0.7818608E-02  0.1158023E+00
          2   -1    0    0  501    0  0.00000000000E+00  0.00000000000E+00  0.37936312502E+03  0.37936312502E+03  0.25500000000E-02 0.  1.
         -2   -1    0    0    0  501 -0.00000000000E+00 -0.00000000000E+00 -0.23912039982E+02  0.23912040118E+02  0.25500000000E-02 0. -1.
    5000001    1    1    2    0    0  0.32776105447E+02 -0.38980049840E+02  0.22731335363E+03  0.24534481473E+03  0.77000000000E+02 0.  0.
   -5000001    1    1    2    0    0 -0.32776105447E+02  0.38980049840E+02  0.12813773140E+03  0.15793035042E+03  0.77000000000E+02 0.  0.
<mgrwt>
<rscale>  0 0.19048723E+03</rscale>
<asrwt>0</asrwt>
<pdfrwt beam="1">  1        2 0.58363552E-01 0.19048723E+03</pdfrwt>
<pdfrwt beam="2">  1       -2 0.36787757E-02 0.19048723E+03</pdfrwt>
<totfact> 0.25407736E+04</totfact>
</mgrwt>
</event>
<event>
 4    1  0.6086918E-004  0.4813558E+03  0.7818608E-02  0.1018763E+00
         -2   -1    0    0    0  501 -0.00000000000E+00  0.00000000000E+00  0.20405666331E+03  0.20405666333E+03  0.25500000000E-02 0. -1.
          2   -1    0    0  501    0  0.00000000000E+00 -0.00000000000E+00 -0.28387135530E+03  0.28387135531E+03  0.25500000000E-02 0.  1.
    5000001    1    1    2    0    0 -0.19798765788E+03 -0.10822867215E+03 -0.73285398742E+02  0.24942395197E+03  0.77000000000E+02 0.  0.
   -5000001    1    1    2    0    0  0.19798765788E+03  0.10822867215E+03 -0.65292932457E+01  0.23850406667E+03  0.77000000000E+02 0.  0.
<mgrwt>
<rscale>  0 0.48135576E+03</rscale>
<asrwt>0</asrwt>
<pdfrwt beam="1">  1        2 0.43672516E-01 0.48135576E+03</pdfrwt>
<pdfrwt beam="2">  1       -2 0.31393333E-01 0.48135576E+03</pdfrwt>
<totfact> 0.10995193E+03</totfact>
</mgrwt>
</event>
<event>
 4    1  0.6086918E-004  0.2096858E+03  0.7818608E-02  0.1141815E+00
         -2   -1    0    0    0  501 -0.00000000000E+00  0.00000000000E+00  0.11114860999E+03  0.11114861002E+03  0.25500000000E-02 0. -1.
          2   -1    0    0  501    0  0.00000000000E+00 -0.00000000000E+00 -0.98894940962E+02  0.98894940995E+02  0.25500000000E-02 0.  1.
    5000001    1    1    2    0    0  0.53460686503E+02  0.32094924590E+02  0.40462215384E+02  0.10702485720E+03  0.77000000000E+02 0.  0.
   -5000001    1    1    2    0    0 -0.53460686503E+02 -0.32094924590E+02 -0.28208546360E+02  0.10301869381E+03  0.77000000000E+02 0.  0.
<mgrwt>
<rscale>  0 0.20968581E+03</rscale>
<asrwt>0</asrwt>
<pdfrwt beam="1">  1        2 0.15214606E-01 0.20968581E+03</pdfrwt>
<pdfrwt beam="2">  1       -2 0.17099786E-01 0.20968581E+03</pdfrwt>
<totfact> 0.10226035E+04</totfact>
</mgrwt>
</event>
<event>
 4    1  0.6086918E-004  0.2055105E+03  0.7818608E-02  0.1145171E+00
          2   -1    0    0  501    0  0.00000000000E+00  0.00000000000E+00  0.12872477311E+03  0.12872477313E+03  0.25500000000E-02 0.  1.
         -2   -1    0    0    0  501 -0.00000000000E+00 -0.00000000000E+00 -0.82024908378E+02  0.82024908418E+02  0.25500000000E-02 0. -1.
    5000001    1    1    2    0    0 -0.21899457017E+02  0.64171597757E+02  0.29156214767E+02  0.10666145056E+03  0.77000000000E+02 0.  0.
   -5000001    1    1    2    0    0  0.21899457017E+02 -0.64171597757E+02  0.17543649961E+02  0.10408823099E+03  0.77000000000E+02 0.  0.
<mgrwt>
<rscale>  0 0.20551046E+03</rscale>
<asrwt>0</asrwt>
<pdfrwt beam="1">  1        2 0.19803811E-01 0.20551046E+03</pdfrwt>
<pdfrwt beam="2">  1       -2 0.12619217E-01 0.20551046E+03</pdfrwt>
<totfact> 0.12390083E+04</totfact>
</mgrwt>
</event>
<event>
 4    1  0.6086918E-004  0.2534827E+03  0.7818608E-02  0.1111123E+00
         -2   -1    0    0    0  501 -0.00000000000E+00  0.00000000000E+00  0.27962412245E+02  0.27962412361E+02  0.25500000000E-02 0. -1.
          2   -1    0    0  501    0  0.00000000000E+00 -0.00000000000E+00 -0.57446305923E+03  0.57446305924E+03  0.25500000000E-02 0.  1.
    5000001    1    1    2    0    0 -0.19025587958E+02  0.94494809471E+02 -0.20424184313E+03  0.23861050375E+03  0.77000000000E+02 0.  0.
   -5000001    1    1    2    0    0  0.19025587958E+02 -0.94494809471E+02 -0.34225880386E+03  0.36381496785E+03  0.77000000000E+02 0.  0.
<mgrwt>
<rscale>  0 0.25348272E+03</rscale>
<asrwt>0</asrwt>
<pdfrwt beam="1">  1        2 0.88378923E-01 0.25348272E+03</pdfrwt>
<pdfrwt beam="2">  1       -2 0.43019100E-02 0.25348272E+03</pdfrwt>
<totfact> 0.12940057E+04</totfact>
</mgrwt>
</event>
<event>
 4    1  0.6086918E-004  0.2309838E+03  0.7818608E-02  0.1125949E+00
         -2   -1    0    0    0  501 -0.00000000000E+00  0.00000000000E+00  0.28708196330E+03  0.28708196331E+03  0.25500000000E-02 0. -1.
          2   -1    0    0  501    0  0.00000000000E+00 -0.00000000000E+00 -0.46461909091E+02  0.46461909161E+02  0.25500000000E-02 0.  1.
    5000001    1    1    2    0    0 -0.79608841867E+02 -0.27646619544E+02  0.94989376759E+02  0.14850550486E+03  0.77000000000E+02 0.  0.
   -5000001    1    1    2    0    0  0.79608841867E+02  0.27646619544E+02  0.14563067745E+03  0.18503836762E+03  0.77000000000E+02 0.  0.
<mgrwt>
<rscale>  0 0.23098378E+03</rscale>
<asrwt>0</asrwt>
<pdfrwt beam="1">  1        2 0.71479861E-02 0.23098378E+03</pdfrwt>
<pdfrwt beam="2">  1       -2 0.44166456E-01 0.23098378E+03</pdfrwt>
<totfact> 0.47586719E+03</totfact>
</mgrwt>
</event>
<event>
 4    1  0.6086918E-004  0.2504290E+03  0.7818608E-02  0.1113034E+00
         -2   -1    0    0    0  501 -0.00000000000E+00  0.00000000000E+00  0.64162679868E+02  0.64162679919E+02  0.25500000000E-02 0. -1.
          2   -1    0    0  501    0  0.00000000000E+00 -0.00000000000E+00 -0.24435816250E+03  0.24435816251E+03  0.25500000000E-02 0.  1.
    5000001    1    1    2    0    0  0.88493088090E+02  0.37101316630E+02 -0.61412688283E+02  0.13750655482E+03  0.77000000000E+02 0.  0.
   -5000001    1    1    2    0    0 -0.88493088090E+02 -0.37101316630E+02 -0.11878279435E+03  0.17101428762E+03  0.77000000000E+02 0.  0.
<mgrwt>
<rscale>  0 0.25042903E+03</rscale>
<asrwt>0</asrwt>
<pdfrwt beam="1">  1        2 0.37593563E-01 0.25042903E+03</pdfrwt>
<pdfrwt beam="2">  1       -2 0.98711816E-02 0.25042903E+03</pdfrwt>
<totfact> 0.91346271E+03</totfact>
</mgrwt>
</event>
<event>
 4    1  0.6086918E-004  0.3248393E+03  0.7818608E-02  0.1073443E+00
         -2   -1    0    0    0  501 -0.00000000000E+00  0.00000000000E+00  0.14364361762E+03  0.14364361764E+03  0.25500000000E-02 0. -1.
          2   -1    0    0  501    0  0.00000000000E+00 -0.00000000000E+00 -0.18364989882E+03  0.18364989884E+03  0.25500000000E-02 0.  1.
    5000001    1    1    2    0    0 -0.15745400227E+02  0.12766532420E+03  0.42957241748E+02  0.15595088089E+03  0.77000000000E+02 0.  0.
   -5000001    1    1    2    0    0  0.15745400227E+02 -0.12766532420E+03 -0.82963522954E+02  0.17134263559E+03  0.77000000000E+02 0.  0.
<mgrwt>
<rscale>  0 0.32483926E+03</rscale>
<asrwt>0</asrwt>
<pdfrwt beam="1">  1        2 0.28253831E-01 0.32483926E+03</pdfrwt>
<pdfrwt beam="2">  1       -2 0.22099018E-01 0.32483926E+03</pdfrwt>
<totfact> 0.33180142E+03</totfact>
</mgrwt>
</event>
<event>
 4    1  0.6086918E-004  0.3203295E+03  0.7818608E-02  0.1075498E+00
          2   -1    0    0  501    0  0.00000000000E+00  0.00000000000E+00  0.15140973605E+04  0.15140973605E+04  0.25500000000E-02 0.  1.
         -2   -1    0    0    0  501 -0.00000000000E+00 -0.00000000000E+00 -0.16942599000E+02  0.16942599192E+02  0.25500000000E-02 0. -1.
    5000001    1    1    2    0    0 -0.12333983375E+03 -0.16265916283E+02  0.43711713881E+03  0.46095302110E+03  0.77000000000E+02 0.  0.
   -5000001    1    1    2    0    0  0.12333983375E+03  0.16265916283E+02  0.10600376227E+04  0.10700869386E+04  0.77000000000E+02 0.  0.
<mgrwt>
<rscale>  0 0.32032948E+03</rscale>
<asrwt>0</asrwt>
<pdfrwt beam="1">  1        2 0.23293803E+00 0.32032948E+03</pdfrwt>
<pdfrwt beam="2">  1       -2 0.26065540E-02 0.32032948E+03</pdfrwt>
<totfact> 0.70203254E+03</totfact>
</mgrwt>
</event>
<event>
 4    1  0.6086918E-004  0.5980862E+03  0.7818608E-02  0.9909385E-01
         -2   -1    0    0    0  501 -0.00000000000E+00  0.00000000000E+00  0.10700807010E+03  0.10700807013E+03  0.25500000000E-02 0. -1.
          2   -1    0    0  501    0  0.00000000000E+00 -0.00000000000E+00 -0.83570118529E+03  0.83570118530E+03  0.25500000000E-02 0.  1.
    5000001    1    1    2    0    0 -0.20467481315E+03 -0.18050181428E+03 -0.51408720191E+03  0.58710078800E+03  0.77000000000E+02 0.  0.
   -5000001    1    1    2    0    0  0.20467481315E+03  0.18050181428E+03 -0.21460591328E+03  0.35560846743E+03  0.77000000000E+02 0.  0.
<mgrwt>
<rscale>  0 0.59808618E+03</rscale>
<asrwt>0</asrwt>
<pdfrwt beam="1">  1        2 0.12856941E+00 0.59808618E+03</pdfrwt>
<pdfrwt beam="2">  1       -2 0.16462781E-01 0.59808618E+03</pdfrwt>
<totfact> 0.97684412E+02</totfact>
</mgrwt>
</event>
<event>
 4    1  0.6086918E-004  0.2650989E+03  0.7818608E-02  0.1104118E+00
         -2   -1    0    0    0  501 -0.00000000000E+00  0.00000000000E+00  0.13908825763E+03  0.13908825765E+03  0.25500000000E-02 0. -1.
          2   -1    0    0  501    0  0.00000000000E+00 -0.00000000000E+00 -0.12631807658E+03  0.12631807660E+03  0.25500000000E-02 0.  1.
    5000001    1    1    2    0    0 -0.21179883692E+02  0.72000220035E+02  0.83984593630E+02  0.13643691262E+03  0.77000000000E+02 0.  0.
   -5000001    1    1    2    0    0  0.21179883692E+02 -0.72000220035E+02 -0.71214412579E+02  0.12896942164E+03  0.77000000000E+02 0.  0.
<mgrwt>
<rscale>  0 0.26509893E+03</rscale>
<asrwt>0</asrwt>
<pdfrwt beam="1">  1        2 0.19433550E-01 0.26509893E+03</pdfrwt>
<pdfrwt beam="2">  1       -2 0.21398194E-01 0.26509893E+03</pdfrwt>
<totfact> 0.53189010E+03</totfact>
</mgrwt>
</event>
<event>
 4    1  0.6086918E-004  0.2208308E+03  0.7818608E-02  0.1133265E+00
          2   -1    0    0  501    0  0.00000000000E+00  0.00000000000E+00  0.10665407162E+04  0.10665407162E+04  0.25500000000E-02 0.  1.
         -2   -1    0    0    0  501 -0.00000000000E+00 -0.00000000000E+00 -0.11430941054E+02  0.11430941338E+02  0.25500000000E-02 0. -1.
    5000001    1    1    2    0    0  0.48321037551E+02 -0.66800085038E+01  0.83173610299E+03  0.83671589575E+03  0.77000000000E+02 0.  0.
   -5000001    1    1    2    0    0 -0.48321037551E+02  0.66800085038E+01  0.22337367211E+03  0.24125576175E+03  0.77000000000E+02 0.  0.
<mgrwt>
<rscale>  0 0.22083083E+03</rscale>
<asrwt>0</asrwt>
<pdfrwt beam="1">  1        2 0.16408321E+00 0.22083083E+03</pdfrwt>
<pdfrwt beam="2">  1       -2 0.17586061E-02 0.22083083E+03</pdfrwt>
<totfact> 0.22028202E+04</totfact>
</mgrwt>
</event>
<event>
 4    1  0.6086918E-004  0.3129568E+03  0.7818608E-02  0.1078937E+00
          2   -1    0    0  501    0  0.00000000000E+00  0.00000000000E+00  0.27952234520E+03  0.27952234521E+03  0.25500000000E-02 0.  1.
         -2   -1    0    0    0  501 -0.00000000000E+00 -0.00000000000E+00 -0.87597597035E+02  0.87597597072E+02  0.25500000000E-02 0. -1.
    5000001    1    1    2    0    0 -0.13500583969E+03 -0.98658716000E+01  0.78072642635E+02  0.17420749037E+03  0.77000000000E+02 0.  0.
   -5000001    1    1    2    0    0  0.13500583969E+03  0.98658716000E+01  0.11385210553E+03  0.19291245192E+03  0.77000000000E+02 0.  0.
<mgrwt>
<rscale>  0 0.31295678E+03</rscale>
<asrwt>0</asrwt>
<pdfrwt beam="1">  1        2 0.43003437E-01 0.31295678E+03</pdfrwt>
<pdfrwt beam="2">  1       -2 0.13476554E-01 0.31295678E+03</pdfrwt>
<totfact> 0.48239114E+03</totfact>
</mgrwt>
</event>
<event>
 4    1  0.6086918E-004  0.2569312E+03  0.7818608E-02  0.1109001E+00
         -2   -1    0    0    0  501 -0.00000000000E+00  0.00000000000E+00  0.22930029190E+02  0.22930029332E+02  0.25500000000E-02 0. -1.
          2   -1    0    0  501    0  0.00000000000E+00 -0.00000000000E+00 -0.71972887255E+03  0.71972887255E+03  0.25500000000E-02 0.  1.
    5000001    1    1    2    0    0 -0.94441542244E+02  0.32618374830E+02 -0.27811568574E+03  0.30538581816E+03  0.77000000000E+02 0.  0.
   -5000001    1    1    2    0    0  0.94441542244E+02 -0.32618374830E+02 -0.41868315762E+03  0.43727308373E+03  0.77000000000E+02 0.  0.
<mgrwt>
<rscale>  0 0.25693115E+03</rscale>
<asrwt>0</asrwt>
<pdfrwt beam="1">  1        2 0.11072750E+00 0.25693115E+03</pdfrwt>
<pdfrwt beam="2">  1       -2 0.35276974E-02 0.25693115E+03</pdfrwt>
<totfact> 0.13359833E+04</totfact>
</mgrwt>
</event>
<event>
 4    1  0.6086918E-004  0.1936132E+03  0.7818608E-02  0.1155242E+00
          2   -1    0    0  501    0  0.00000000000E+00  0.00000000000E+00  0.56083965256E+03  0.56083965256E+03  0.25500000000E-02 0.  1.
         -2   -1    0    0    0  501 -0.00000000000E+00 -0.00000000000E+00 -0.16709793919E+02  0.16709794114E+02  0.25500000000E-02 0. -1.
    5000001    1    1    2    0    0  0.35848782310E+02 -0.30724819747E+02  0.16815667143E+03  0.19087906089E+03  0.77000000000E+02 0.  0.
   -5000001    1    1    2    0    0 -0.35848782310E+02  0.30724819747E+02  0.37597318721E+03  0.38667038578E+03  0.77000000000E+02 0.  0.
<mgrwt>
<rscale>  0 0.19361317E+03</rscale>
<asrwt>0</asrwt>
<pdfrwt beam="1">  1        2 0.86283020E-01 0.19361317E+03</pdfrwt>
<pdfrwt beam="2">  1       -2 0.25707376E-02 0.19361317E+03</pdfrwt>
<totfact> 0.28152531E+04</totfact>
</mgrwt>
</event>
<event>
 4    1  0.6086918E-004  0.3087997E+03  0.7818608E-02  0.1080923E+00
         -2   -1    0    0    0  501 -0.00000000000E+00  0.00000000000E+00  0.13724978700E+02  0.13724978937E+02  0.25500000000E-02 0. -1.
          2   -1    0    0  501    0  0.00000000000E+00 -0.00000000000E+00 -0.17369285943E+04  0.17369285943E+04  0.25500000000E-02 0.  1.
    5000001    1    1    2    0    0  0.54673765281E+02  0.10866210593E+03 -0.54525956009E+03  0.56394473288E+03  0.77000000000E+02 0.  0.
   -5000001    1    1    2    0    0 -0.54673765281E+02 -0.10866210593E+03 -0.11779440556E+04  0.11867088404E+04  0.77000000000E+02 0.  0.
<mgrwt>
<rscale>  0 0.30879966E+03</rscale>
<asrwt>0</asrwt>
<pdfrwt beam="1">  1        2 0.26721961E+00 0.30879966E+03</pdfrwt>
<pdfrwt beam="2">  1       -2 0.21115366E-02 0.30879966E+03</pdfrwt>
<totfact> 0.72996452E+03</totfact>
</mgrwt>
</event>
<event>
 4    1  0.6086918E-004  0.2331546E+03  0.7818608E-02  0.1124439E+00
          2   -1    0    0  501    0  0.00000000000E+00  0.00000000000E+00  0.91237285682E+03  0.91237285682E+03  0.25500000000E-02 0.  1.
         -2   -1    0    0    0  501 -0.00000000000E+00 -0.00000000000E+00 -0.14895513698E+02  0.14895513916E+02  0.25500000000E-02 0. -1.
    5000001    1    1    2    0    0 -0.75573351539E+02  0.70879711460E+01  0.62208038680E+03  0.63140682483E+03  0.77000000000E+02 0.  0.
   -5000001    1    1    2    0    0  0.75573351539E+02 -0.70879711460E+01  0.27539695632E+03  0.29586154591E+03  0.77000000000E+02 0.  0.
<mgrwt>
<rscale>  0 0.23315456E+03</rscale>
<asrwt>0</asrwt>
<pdfrwt beam="1">  1        2 0.14036509E+00 0.23315456E+03</pdfrwt>
<pdfrwt beam="2">  1       -2 0.22916169E-02 0.23315456E+03</pdfrwt>
<totfact> 0.18626037E+04</totfact>
</mgrwt>
</event>
<event>
 4    1  0.6086918E-004  0.3212851E+03  0.7818608E-02  0.1075059E+00
          2   -1    0    0  501    0  0.00000000000E+00  0.00000000000E+00  0.92473941873E+03  0.92473941874E+03  0.25500000000E-02 0.  1.
         -2   -1    0    0    0  501 -0.00000000000E+00 -0.00000000000E+00 -0.27906277692E+02  0.27906277808E+02  0.25500000000E-02 0. -1.
    5000001    1    1    2    0    0  0.11677160420E+03  0.36735926029E+01  0.68241487578E+03  0.69661191887E+03  0.77000000000E+02 0.  0.
   -5000001    1    1    2    0    0 -0.11677160420E+03 -0.36735926029E+01  0.21441826527E+03  0.25603377767E+03  0.77000000000E+02 0.  0.
<mgrwt>
<rscale>  0 0.32128514E+03</rscale>
<asrwt>0</asrwt>
<pdfrwt beam="1">  1        2 0.14226759E+00 0.32128514E+03</pdfrwt>
<pdfrwt beam="2">  1       -2 0.42932740E-02 0.32128514E+03</pdfrwt>
<totfact> 0.72492744E+03</totfact>
</mgrwt>
</event>
<event>
 4    1  0.6086918E-004  0.2433623E+03  0.7818608E-02  0.1117573E+00
         -2   -1    0    0    0  501 -0.00000000000E+00  0.00000000000E+00  0.14493664475E+02  0.14493664700E+02  0.25500000000E-02 0. -1.
          2   -1    0    0  501    0  0.00000000000E+00 -0.00000000000E+00 -0.10215709295E+04  0.10215709295E+04  0.25500000000E-02 0.  1.
    5000001    1    1    2    0    0  0.85741833176E+02  0.22015878301E+02 -0.64089458282E+03  0.65154526101E+03  0.77000000000E+02 0.  0.
   -5000001    1    1    2    0    0 -0.85741833176E+02 -0.22015878301E+02 -0.36618268220E+03  0.38451933319E+03  0.77000000000E+02 0.  0.
<mgrwt>
<rscale>  0 0.24336233E+03</rscale>
<asrwt>0</asrwt>
<pdfrwt beam="1">  1        2 0.15716470E+00 0.24336233E+03</pdfrwt>
<pdfrwt beam="2">  1       -2 0.22297954E-02 0.24336233E+03</pdfrwt>
<totfact> 0.16624384E+04</totfact>
</mgrwt>
</event>
<event>
 4    1  0.6086918E-004  0.5185980E+03  0.7818608E-02  0.1009035E+00
         -2   -1    0    0    0  501 -0.00000000000E+00  0.00000000000E+00  0.15938782693E+03  0.15938782695E+03  0.25500000000E-02 0. -1.
          2   -1    0    0  501    0  0.00000000000E+00 -0.00000000000E+00 -0.42183881288E+03  0.42183881289E+03  0.25500000000E-02 0.  1.
    5000001    1    1    2    0    0 -0.97293164468E+02  0.20481043758E+03 -0.24270472421E+03  0.34095140174E+03  0.77000000000E+02 0.  0.
   -5000001    1    1    2    0    0  0.97293164468E+02 -0.20481043758E+03 -0.19746261739E+02  0.24027523810E+03  0.77000000000E+02 0.  0.
<mgrwt>
<rscale>  0 0.51859800E+03</rscale>
<asrwt>0</asrwt>
<pdfrwt beam="1">  1        2 0.64898278E-01 0.51859800E+03</pdfrwt>
<pdfrwt beam="2">  1       -2 0.24521204E-01 0.51859800E+03</pdfrwt>
<totfact> 0.11127670E+03</totfact>
</mgrwt>
</event>
<event>
 4    1  0.6086918E-004  0.3695430E+03  0.7818608E-02  0.1054868E+00
         -2   -1    0    0    0  501 -0.00000000000E+00  0.00000000000E+00  0.62137580428E+02  0.62137580480E+02  0.25500000000E-02 0.  1.
          2   -1    0    0  501    0  0.00000000000E+00 -0.00000000000E+00 -0.54943410696E+03  0.54943410696E+03  0.25500000000E-02 0. -1.
    5000001    1    1    2    0    0 -0.85024941458E+02 -0.14365045113E+03 -0.21282843332E+03  0.28122879442E+03  0.77000000000E+02 0.  0.
   -5000001    1    1    2    0    0  0.85024941458E+02  0.14365045113E+03 -0.27446809320E+03  0.33034289302E+03  0.77000000000E+02 0.  0.
<mgrwt>
<rscale>  0 0.36954299E+03</rscale>
<asrwt>0</asrwt>
<pdfrwt beam="1">  1        2 0.84528321E-01 0.36954299E+03</pdfrwt>
<pdfrwt beam="2">  1       -2 0.95596281E-02 0.36954299E+03</pdfrwt>
<totfact> 0.40056054E+03</totfact>
</mgrwt>
</event>
<event>
 4    1  0.6086918E-004  0.2372045E+03  0.7818608E-02  0.1121669E+00
          2   -1    0    0  501    0  0.00000000000E+00  0.00000000000E+00  0.10592263925E+04  0.10592263925E+04  0.25500000000E-02 0.  1.
         -2   -1    0    0    0  501 -0.00000000000E+00 -0.00000000000E+00 -0.13279965537E+02  0.13279965782E+02  0.25500000000E-02 0. -1.
    5000001    1    1    2    0    0  0.89142219540E+02  0.31588750593E+01  0.46211380449E+03  0.47690091434E+03  0.77000000000E+02 0.  0.
   -5000001    1    1    2    0    0 -0.89142219540E+02 -0.31588750593E+01  0.58383262251E+03  0.59560544398E+03  0.77000000000E+02 0.  0.
<mgrwt>
<rscale>  0 0.23720447E+03</rscale>
<asrwt>0</asrwt>
<pdfrwt beam="1">  1        2 0.16295795E+00 0.23720447E+03</pdfrwt>
<pdfrwt beam="2">  1       -2 0.20430711E-02 0.23720447E+03</pdfrwt>
<totfact> 0.17927840E+04</totfact>
</mgrwt>
</event>
<event>
 4    1  0.6086918E-004  0.2241514E+03  0.7818608E-02  0.1130825E+00
          2   -1    0    0  501    0  0.00000000000E+00  0.00000000000E+00  0.17174970834E+03  0.17174970836E+03  0.25500000000E-02 0.  1.
         -2   -1    0    0    0  501 -0.00000000000E+00 -0.00000000000E+00 -0.73135275664E+02  0.73135275709E+02  0.25500000000E-02 0. -1.
    5000001    1    1    2    0    0  0.55181406297E+02  0.59609419824E+02  0.55648576543E+02  0.12499613836E+03  0.77000000000E+02 0.  0.
   -5000001    1    1    2    0    0 -0.55181406297E+02 -0.59609419824E+02  0.42965856132E+02  0.11988884571E+03  0.77000000000E+02 0.  0.
<mgrwt>
<rscale>  0 0.22415140E+03</rscale>
<asrwt>0</asrwt>
<pdfrwt beam="1">  1        2 0.26423032E-01 0.22415140E+03</pdfrwt>
<pdfrwt beam="2">  1       -2 0.11251581E-01 0.22415140E+03</pdfrwt>
<totfact> 0.10834296E+04</totfact>
</mgrwt>
</event>
<event>
 4    1  0.6086918E-004  0.4797786E+03  0.7818608E-02  0.1019196E+00
         -2   -1    0    0    0  501 -0.00000000000E+00  0.00000000000E+00  0.30246193039E+02  0.30246193146E+02  0.25500000000E-02 0. -1.
          2   -1    0    0  501    0  0.00000000000E+00 -0.00000000000E+00 -0.19026158724E+04  0.19026158724E+04  0.25500000000E-02 0.  1.
    5000001    1    1    2    0    0  0.20757784905E+03  0.66760285772E+02 -0.67909523429E+03  0.71738750784E+03  0.77000000000E+02 0.  0.
   -5000001    1    1    2    0    0 -0.20757784905E+03 -0.66760285772E+02 -0.11932744451E+04  0.12154745577E+04  0.77000000000E+02 0.  0.
<mgrwt>
<rscale>  0 0.47977865E+03</rscale>
<asrwt>0</asrwt>
<pdfrwt beam="1">  1        2 0.29271004E+00 0.47977865E+03</pdfrwt>
<pdfrwt beam="2">  1       -2 0.46532620E-02 0.47977865E+03</pdfrwt>
<totfact> 0.18050739E+03</totfact>
</mgrwt>
</event>
<event>
 4    1  0.6086918E-004  0.6071094E+03  0.7818608E-02  0.9890765E-01
         -2   -1    0    0    0  501 -0.00000000000E+00  0.00000000000E+00  0.14918973427E+03  0.14918973429E+03  0.25500000000E-02 0. -1.
          2   -1    0    0  501    0  0.00000000000E+00 -0.00000000000E+00 -0.61763932981E+03  0.61763932981E+03  0.25500000000E-02 0.  1.
    5000001    1    1    2    0    0 -0.28615856019E+03  0.60819187088E+02 -0.20250275933E+03  0.36403579855E+03  0.77000000000E+02 0.  0.
   -5000001    1    1    2    0    0  0.28615856019E+03 -0.60819187088E+02 -0.26594683621E+03  0.40279326556E+03  0.77000000000E+02 0.  0.
<mgrwt>
<rscale>  0 0.60710937E+03</rscale>
<asrwt>0</asrwt>
<pdfrwt beam="1">  1        2 0.95021434E-01 0.60710937E+03</pdfrwt>
<pdfrwt beam="2">  1       -2 0.22952267E-01 0.60710937E+03</pdfrwt>
<totfact> 0.80434076E+02</totfact>
</mgrwt>
</event>
<event>
 4    1  0.6086918E-004  0.3028307E+03  0.7818608E-02  0.1083834E+00
          2   -1    0    0  501    0  0.00000000000E+00  0.00000000000E+00  0.11972066842E+02  0.11972067113E+02  0.25500000000E-02 0.  1.
         -2   -1    0    0    0  501 -0.00000000000E+00 -0.00000000000E+00 -0.19150080319E+04  0.19150080319E+04  0.25500000000E-02 0. -1.
    5000001    1    1    2    0    0  0.11139180564E+03  0.67402813592E+02 -0.99483037467E+03  0.10062642536E+04  0.77000000000E+02 0.  0.
   -5000001    1    1    2    0    0 -0.11139180564E+03 -0.67402813592E+02 -0.90820559037E+03  0.92071584543E+03  0.77000000000E+02 0.  0.
<mgrwt>
<rscale>  0 0.30283067E+03</rscale>
<asrwt>0</asrwt>
<pdfrwt beam="1">  1        2 0.18418580E-02 0.30283067E+03</pdfrwt>
<pdfrwt beam="2">  1       -2 0.29461638E+00 0.30283067E+03</pdfrwt>
<totfact> 0.24137854E+02</totfact>
</mgrwt>
</event>
<event>
 4    1  0.6086918E-004  0.1031054E+04  0.7818608E-02  0.9275127E-01
         -2   -1    0    0    0  501 -0.00000000000E+00  0.00000000000E+00  0.61319739585E+03  0.61319739586E+03  0.25500000000E-02 0. -1.
          2   -1    0    0  501    0  0.00000000000E+00 -0.00000000000E+00 -0.43341321594E+03  0.43341321595E+03  0.25500000000E-02 0.  1.
    5000001    1    1    2    0    0  0.19393512497E+03 -0.41861678303E+03 -0.13014578701E+03  0.48550774412E+03  0.77000000000E+02 0.  0.
   -5000001    1    1    2    0    0 -0.19393512497E+03  0.41861678303E+03  0.30992996692E+03  0.56110286768E+03  0.77000000000E+02 0.  0.
<mgrwt>
<rscale>  0 0.10310535E+04</rscale>
<asrwt>0</asrwt>
<pdfrwt beam="1">  1        2 0.66678957E-01 0.10310535E+04</pdfrwt>
<pdfrwt beam="2">  1       -2 0.94338060E-01 0.10310535E+04</pdfrwt>
<totfact> 0.68582316E+01</totfact>
</mgrwt>
</event>
<event>
 4    1  0.6086918E-004  0.3202433E+03  0.7818608E-02  0.1075537E+00
          2   -1    0    0  501    0  0.00000000000E+00  0.00000000000E+00  0.18596053006E+04  0.18596053006E+04  0.25500000000E-02 0.  1.
         -2   -1    0    0    0  501 -0.00000000000E+00 -0.00000000000E+00 -0.13787304988E+02  0.13787305224E+02  0.25500000000E-02 0. -1.
    5000001    1    1    2    0    0 -0.68751724703E+02 -0.10137000852E+03  0.52154985637E+03  0.54124479763E+03  0.77000000000E+02 0.  0.
   -5000001    1    1    2    0    0  0.68751724703E+02  0.10137000852E+03  0.13242681392E+04  0.13321478082E+04  0.77000000000E+02 0.  0.
<mgrwt>
<rscale>  0 0.32024332E+03</rscale>
<asrwt>0</asrwt>
<pdfrwt beam="1">  1        2 0.28609283E+00 0.32024332E+03</pdfrwt>
<pdfrwt beam="2">  1       -2 0.21211260E-02 0.32024332E+03</pdfrwt>
<totfact> 0.62472922E+03</totfact>
</mgrwt>
</event>
<event>
 4    1  0.6086918E-004  0.1741481E+03  0.7818608E-02  0.1173590E+00
         -2   -1    0    0    0  501 -0.00000000000E+00  0.00000000000E+00  0.44279192362E+02  0.44279192435E+02  0.25500000000E-02 0. -1.
          2   -1    0    0  501    0  0.00000000000E+00 -0.00000000000E+00 -0.17122913198E+03  0.17122913200E+03  0.25500000000E-02 0.  1.
    5000001    1    1    2    0    0 -0.21083446525E+02  0.33023309921E+02 -0.50041563223E+02  0.99840917290E+02  0.77000000000E+02 0.  0.
   -5000001    1    1    2    0    0  0.21083446525E+02 -0.33023309921E+02 -0.76908376392E+02  0.11566740714E+03  0.77000000000E+02 0.  0.
<mgrwt>
<rscale>  0 0.17414807E+03</rscale>
<asrwt>0</asrwt>
<pdfrwt beam="1">  1        2 0.26342943E-01 0.17414807E+03</pdfrwt>
<pdfrwt beam="2">  1       -2 0.68121835E-02 0.17414807E+03</pdfrwt>
<totfact> 0.23416998E+04</totfact>
</mgrwt>
</event>
