<event>
 4    1  0.5387486E-005  0.1059249E+04  0.7818608E-02  0.9245847E-01
         -2   -1    0    0    0  501 -0.00000000000E+00  0.00000000000E+00  0.24235947133E+03  0.24235947134E+03  0.25500000000E-02 0. -1.
          2   -1    0    0  501    0  0.00000000000E+00 -0.00000000000E+00 -0.11573798064E+04  0.11573798064E+04  0.25500000000E-02 0.  1.
    5000001    1    1    2    0    0  0.28832773738E+03  0.36321126680E+03 -0.19916287280E+03  0.53098602465E+03  0.16500000000E+03 0.  0.
   -5000001    1    1    2    0    0 -0.28832773738E+03 -0.36321126680E+03 -0.71585746230E+03  0.86875325311E+03  0.16500000000E+03 0.  0.
<mgrwt>
<rscale>  0 0.10592487E+04</rscale>
<asrwt>0</asrwt>
<pdfrwt beam="1">  1        2 0.16533997E+00 0.10592487E+04</pdfrwt>
<pdfrwt beam="2">  1       -2 0.34622782E-01 0.10592487E+04</pdfrwt>
<totfact> 0.17566100E+02</totfact>
</mgrwt>
</event>
<event>
 4    1  0.5387486E-005  0.7727705E+03  0.7818608E-02  0.9600289E-01
          2   -1    0    0  501    0  0.00000000000E+00  0.00000000000E+00  0.77765193231E+03  0.77765193231E+03  0.25500000000E-02 0.  1.
         -2   -1    0    0    0  501 -0.00000000000E+00 -0.00000000000E+00 -0.19197993440E+03  0.19197993442E+03  0.25500000000E-02 0. -1.
    5000001    1    1    2    0    0 -0.33870875294E+03 -0.60122699569E+02  0.21620175112E+03  0.43852771350E+03  0.16500000000E+03 0.  0.
   -5000001    1    1    2    0    0  0.33870875294E+03  0.60122699569E+02  0.36947024678E+03  0.53110415323E+03  0.16500000000E+03 0.  0.
<mgrwt>
<rscale>  0 0.77277051E+03</rscale>
<asrwt>0</asrwt>
<pdfrwt beam="1">  1        2 0.11109313E+00 0.77277051E+03</pdfrwt>
<pdfrwt beam="2">  1       -2 0.27425705E-01 0.77277051E+03</pdfrwt>
<totfact> 0.47867125E+02</totfact>
</mgrwt>
</event>
<event>
 4    1  0.5387486E-005  0.5838964E+03  0.7818608E-02  0.9939391E-01
          2   -1    0    0  501    0  0.00000000000E+00  0.00000000000E+00  0.14371098609E+04  0.14371098609E+04  0.25500000000E-02 0.  1.
         -2   -1    0    0    0  501 -0.00000000000E+00 -0.00000000000E+00 -0.59309144064E+02  0.59309144119E+02  0.25500000000E-02 0. -1.
    5000001    1    1    2    0    0 -0.83756509744E+02  0.20641014099E+03  0.92362486639E+03  0.96432784521E+03  0.16500000000E+03 0.  0.
   -5000001    1    1    2    0    0  0.83756509744E+02 -0.20641014099E+03  0.45417585048E+03  0.53209115985E+03  0.16500000000E+03 0.  0.
<mgrwt>
<rscale>  0 0.58389641E+03</rscale>
<asrwt>0</asrwt>
<pdfrwt beam="1">  1        2 0.20530141E+00 0.58389641E+03</pdfrwt>
<pdfrwt beam="2">  1       -2 0.84727349E-02 0.58389641E+03</pdfrwt>
<totfact> 0.14363240E+03</totfact>
</mgrwt>
</event>
<event>
 4    1  0.5387486E-005  0.4333533E+03  0.7818608E-02  0.1032806E+00
          2   -1    0    0  501    0  0.00000000000E+00  0.00000000000E+00  0.29221762169E+03  0.29221762170E+03  0.25500000000E-02 0.  1.
         -2   -1    0    0    0  501 -0.00000000000E+00 -0.00000000000E+00 -0.16066373750E+03  0.16066373752E+03  0.25500000000E-02 0. -1.
    5000001    1    1    2    0    0  0.11884750042E+03  0.56676063342E+02  0.11683411549E+03  0.24127186959E+03  0.16500000000E+03 0.  0.
   -5000001    1    1    2    0    0 -0.11884750042E+03 -0.56676063342E+02  0.14719768705E+02  0.21160948963E+03  0.16500000000E+03 0.  0.
<mgrwt>
<rscale>  0 0.43335332E+03</rscale>
<asrwt>0</asrwt>
<pdfrwt beam="1">  1        2 0.41745374E-01 0.43335332E+03</pdfrwt>
<pdfrwt beam="2">  1       -2 0.22951963E-01 0.43335332E+03</pdfrwt>
<totfact> 0.20332953E+03</totfact>
</mgrwt>
</event>
<event>
 4    1  0.5387486E-005  0.3652891E+03  0.7818608E-02  0.1056509E+00
          2   -1    0    0  501    0  0.00000000000E+00  0.00000000000E+00  0.31386890629E+02  0.31386890733E+02  0.25500000000E-02 0.  1.
         -2   -1    0    0    0  501 -0.00000000000E+00 -0.00000000000E+00 -0.10628335591E+04  0.10628335591E+04  0.25500000000E-02 0. -1.
    5000001    1    1    2    0    0 -0.40838871837E+02 -0.56573432493E+02 -0.62229186714E+03  0.64756508138E+03  0.16500000000E+03 0.  0.
   -5000001    1    1    2    0    0  0.40838871837E+02  0.56573432493E+02 -0.40915480133E+03  0.44665536846E+03  0.16500000000E+03 0.  0.
<mgrwt>
<rscale>  0 0.36528915E+03</rscale>
<asrwt>0</asrwt>
<pdfrwt beam="1">  1        2 0.44838422E-02 0.36528915E+03</pdfrwt>
<pdfrwt beam="2">  1       -2 0.15183334E+00 0.36528915E+03</pdfrwt>
<totfact> 0.56170607E+02</totfact>
</mgrwt>
</event>
<event>
 4    1  0.5387486E-005  0.4828153E+03  0.7818608E-02  0.1018364E+00
          2   -1    0    0  501    0  0.00000000000E+00  0.00000000000E+00  0.44258658444E+03  0.44258658445E+03  0.25500000000E-02 0.  1.
         -2   -1    0    0    0  501 -0.00000000000E+00 -0.00000000000E+00 -0.13167512712E+03  0.13167512715E+03  0.25500000000E-02 0. -1.
    5000001    1    1    2    0    0 -0.73874574006E+01  0.28872081536E+02 -0.51118786271E+02  0.17528919513E+03  0.16500000000E+03 0.  0.
   -5000001    1    1    2    0    0  0.73874574006E+01 -0.28872081536E+02  0.36203024359E+03  0.39897251646E+03  0.16500000000E+03 0.  0.
<mgrwt>
<rscale>  0 0.48281526E+03</rscale>
<asrwt>0</asrwt>
<pdfrwt beam="1">  1        2 0.63226654E-01 0.48281526E+03</pdfrwt>
<pdfrwt beam="2">  1       -2 0.18810733E-01 0.48281526E+03</pdfrwt>
<totfact> 0.18234154E+03</totfact>
</mgrwt>
</event>
<event>
 4    1  0.5387486E-005  0.8435540E+03  0.7818608E-02  0.9499030E-01
         -2   -1    0    0    0  501 -0.00000000000E+00  0.00000000000E+00  0.55635685092E+02  0.55635685150E+02  0.25500000000E-02 0.  1.
          2   -1    0    0  501    0  0.00000000000E+00 -0.00000000000E+00 -0.31975132466E+04  0.31975132466E+04  0.25500000000E-02 0. -1.
    5000001    1    1    2    0    0  0.31311416048E+03 -0.22258830449E+03 -0.13567458073E+04  0.14197077926E+04  0.16500000000E+03 0.  0.
   -5000001    1    1    2    0    0 -0.31311416048E+03  0.22258830449E+03 -0.17851317542E+04  0.18334411391E+04  0.16500000000E+03 0.  0.
<mgrwt>
<rscale>  0 0.84355401E+03</rscale>
<asrwt>0</asrwt>
<pdfrwt beam="1">  1        2 0.45678749E+00 0.84355401E+03</pdfrwt>
<pdfrwt beam="2">  1       -2 0.79479570E-02 0.84355401E+03</pdfrwt>
<totfact> 0.18890456E+02</totfact>
</mgrwt>
</event>
<event>
 4    1  0.5387486E-005  0.3795399E+03  0.7818608E-02  0.1051104E+00
         -2   -1    0    0    0  501 -0.00000000000E+00  0.00000000000E+00  0.29649824028E+02  0.29649824138E+02  0.25500000000E-02 0. -1.
          2   -1    0    0  501    0  0.00000000000E+00 -0.00000000000E+00 -0.12145988194E+04  0.12145988194E+04  0.25500000000E-02 0.  1.
    5000001    1    1    2    0    0 -0.39023809190E+02 -0.84076967609E+02 -0.54659609013E+03  0.57843243331E+03  0.16500000000E+03 0.  0.
   -5000001    1    1    2    0    0  0.39023809190E+02  0.84076967609E+02 -0.63835290523E+03  0.66581621021E+03  0.16500000000E+03 0.  0.
<mgrwt>
<rscale>  0 0.37953994E+03</rscale>
<asrwt>0</asrwt>
<pdfrwt beam="1">  1        2 0.17351409E+00 0.37953994E+03</pdfrwt>
<pdfrwt beam="2">  1       -2 0.42356899E-02 0.37953994E+03</pdfrwt>
<totfact> 0.55746789E+03</totfact>
</mgrwt>
</event>
<event>
 4    1  0.5387486E-005  0.4792729E+03  0.7818608E-02  0.1019335E+00
         -2   -1    0    0    0  501 -0.00000000000E+00  0.00000000000E+00  0.15036991583E+03  0.15036991585E+03  0.25500000000E-02 0. -1.
          2   -1    0    0  501    0  0.00000000000E+00 -0.00000000000E+00 -0.38189567610E+03  0.38189567611E+03  0.25500000000E-02 0.  1.
    5000001    1    1    2    0    0  0.13948051707E+03 -0.77126568087E+02 -0.38842057487E+02  0.23267365037E+03  0.16500000000E+03 0.  0.
   -5000001    1    1    2    0    0 -0.13948051707E+03  0.77126568087E+02 -0.19268370279E+03  0.29959194159E+03  0.16500000000E+03 0.  0.
<mgrwt>
<rscale>  0 0.47927287E+03</rscale>
<asrwt>0</asrwt>
<pdfrwt beam="1">  1        2 0.54556525E-01 0.47927287E+03</pdfrwt>
<pdfrwt beam="2">  1       -2 0.21481417E-01 0.47927287E+03</pdfrwt>
<totfact> 0.17049432E+03</totfact>
</mgrwt>
</event>
<event>
 4    1  0.5387486E-005  0.4060887E+03  0.7818608E-02  0.1041692E+00
         -2   -1    0    0    0  501 -0.00000000000E+00  0.00000000000E+00  0.32486127997E+02  0.32486128098E+02  0.25500000000E-02 0. -1.
          2   -1    0    0  501    0  0.00000000000E+00 -0.00000000000E+00 -0.12690651434E+04  0.12690651435E+04  0.25500000000E-02 0.  1.
    5000001    1    1    2    0    0 -0.76282182651E+02  0.90352273516E+02 -0.60413329405E+03  0.63732608741E+03  0.16500000000E+03 0.  0.
   -5000001    1    1    2    0    0  0.76282182651E+02 -0.90352273516E+02 -0.63244572140E+03  0.66422518414E+03  0.16500000000E+03 0.  0.
<mgrwt>
<rscale>  0 0.40608872E+03</rscale>
<asrwt>0</asrwt>
<pdfrwt beam="1">  1        2 0.18129499E+00 0.40608872E+03</pdfrwt>
<pdfrwt beam="2">  1       -2 0.46408762E-02 0.40608872E+03</pdfrwt>
<totfact> 0.45324192E+03</totfact>
</mgrwt>
</event>
<event>
 4    1  0.5387486E-005  0.6672588E+03  0.7818608E-02  0.9774923E-01
         -2   -1    0    0    0  501 -0.00000000000E+00  0.00000000000E+00  0.44709344613E+02  0.44709344685E+02  0.25500000000E-02 0. -1.
          2   -1    0    0  501    0  0.00000000000E+00 -0.00000000000E+00 -0.24896045233E+04  0.24896045233E+04  0.25500000000E-02 0.  1.
    5000001    1    1    2    0    0  0.13743205810E+03  0.39884763854E+02 -0.26456461169E+03  0.34307112781E+03  0.16500000000E+03 0.  0.
   -5000001    1    1    2    0    0 -0.13743205810E+03 -0.39884763854E+02 -0.21803305670E+04  0.21912427402E+04  0.16500000000E+03 0.  0.
<mgrwt>
<rscale>  0 0.66725883E+03</rscale>
<asrwt>0</asrwt>
<pdfrwt beam="1">  1        2 0.35565770E+00 0.66725883E+03</pdfrwt>
<pdfrwt beam="2">  1       -2 0.63870508E-02 0.66725883E+03</pdfrwt>
<totfact> 0.65250629E+02</totfact>
</mgrwt>
</event>
<event>
 4    1  0.5387486E-005  0.4176718E+03  0.7818608E-02  0.1037827E+00
         -2   -1    0    0    0  501 -0.00000000000E+00  0.00000000000E+00  0.12234598560E+03  0.12234598563E+03  0.25500000000E-02 0. -1.
          2   -1    0    0  501    0  0.00000000000E+00 -0.00000000000E+00 -0.35646795861E+03  0.35646795862E+03  0.25500000000E-02 0.  1.
    5000001    1    1    2    0    0  0.11022745866E+03 -0.49362853506E+02 -0.16570675896E+03  0.26319292147E+03  0.16500000000E+03 0.  0.
   -5000001    1    1    2    0    0 -0.11022745866E+03  0.49362853506E+02 -0.68415214050E+02  0.21562102278E+03  0.16500000000E+03 0.  0.
<mgrwt>
<rscale>  0 0.41767176E+03</rscale>
<asrwt>0</asrwt>
<pdfrwt beam="1">  1        2 0.50923994E-01 0.41767176E+03</pdfrwt>
<pdfrwt beam="2">  1       -2 0.17477998E-01 0.41767176E+03</pdfrwt>
<totfact> 0.26200688E+03</totfact>
</mgrwt>
</event>
<event>
 4    1  0.5387486E-005  0.4067170E+03  0.7818608E-02  0.1041478E+00
          2   -1    0    0  501    0  0.00000000000E+00  0.00000000000E+00  0.72271139254E+03  0.72271139254E+03  0.25500000000E-02 0.  1.
         -2   -1    0    0    0  501 -0.00000000000E+00 -0.00000000000E+00 -0.57221562368E+02  0.57221562425E+02  0.25500000000E-02 0. -1.
    5000001    1    1    2    0    0  0.43971500292E+02 -0.85433779494E+02  0.19854841957E+03  0.27546124670E+03  0.16500000000E+03 0.  0.
   -5000001    1    1    2    0    0 -0.43971500292E+02  0.85433779494E+02  0.46694141060E+03  0.50447170827E+03  0.16500000000E+03 0.  0.
<mgrwt>
<rscale>  0 0.40671698E+03</rscale>
<asrwt>0</asrwt>
<pdfrwt beam="1">  1        2 0.10324449E+00 0.40671698E+03</pdfrwt>
<pdfrwt beam="2">  1       -2 0.81745087E-02 0.40671698E+03</pdfrwt>
<totfact> 0.40634327E+03</totfact>
</mgrwt>
</event>
<event>
 4    1  0.5387486E-005  0.5257445E+03  0.7818608E-02  0.1007269E+00
          2   -1    0    0  501    0  0.00000000000E+00  0.00000000000E+00  0.38010579012E+03  0.38010579013E+03  0.25500000000E-02 0.  1.
         -2   -1    0    0    0  501 -0.00000000000E+00 -0.00000000000E+00 -0.18179630350E+03  0.18179630352E+03  0.25500000000E-02 0. -1.
    5000001    1    1    2    0    0 -0.12225184324E+03  0.16045614381E+03  0.13594821567E+03  0.29393639551E+03  0.16500000000E+03 0.  0.
   -5000001    1    1    2    0    0  0.12225184324E+03 -0.16045614381E+03  0.62361270955E+02  0.26796569814E+03  0.16500000000E+03 0.  0.
<mgrwt>
<rscale>  0 0.52574453E+03</rscale>
<asrwt>0</asrwt>
<pdfrwt beam="1">  1        2 0.54300827E-01 0.52574453E+03</pdfrwt>
<pdfrwt beam="2">  1       -2 0.25970901E-01 0.52574453E+03</pdfrwt>
<totfact> 0.12241061E+03</totfact>
</mgrwt>
</event>
<event>
 4    1  0.5387486E-005  0.4815244E+03  0.7818608E-02  0.1018717E+00
         -2   -1    0    0    0  501 -0.00000000000E+00  0.00000000000E+00  0.61030603727E+02  0.61030603780E+02  0.25500000000E-02 0.  1.
          2   -1    0    0  501    0  0.00000000000E+00 -0.00000000000E+00 -0.94979279329E+03  0.94979279330E+03  0.25500000000E-02 0. -1.
    5000001    1    1    2    0    0 -0.12504013702E+03  0.11454266724E+03 -0.35082178676E+03  0.42315007332E+03  0.16500000000E+03 0.  0.
   -5000001    1    1    2    0    0  0.12504013702E+03 -0.11454266724E+03 -0.53794040281E+03  0.58767332376E+03  0.16500000000E+03 0.  0.
<mgrwt>
<rscale>  0 0.48152436E+03</rscale>
<asrwt>0</asrwt>
<pdfrwt beam="1">  1        2 0.13568468E+00 0.48152436E+03</pdfrwt>
<pdfrwt beam="2">  1       -2 0.87186583E-02 0.48152436E+03</pdfrwt>
<totfact> 0.25877618E+03</totfact>
</mgrwt>
</event>
<event>
 4    1  0.5387486E-005  0.3458516E+03  0.7818608E-02  0.1064331E+00
         -2   -1    0    0    0  501 -0.00000000000E+00  0.00000000000E+00  0.21544119506E+02  0.21544119657E+02  0.25500000000E-02 0.  1.
          2   -1    0    0  501    0  0.00000000000E+00 -0.00000000000E+00 -0.13880043016E+04  0.13880043016E+04  0.25500000000E-02 0. -1.
    5000001    1    1    2    0    0 -0.46144021325E+02  0.83453914830E+01 -0.59399292766E+03  0.61826492249E+03  0.16500000000E+03 0.  0.
   -5000001    1    1    2    0    0  0.46144021325E+02 -0.83453914830E+01 -0.77246725444E+03  0.79128349878E+03  0.16500000000E+03 0.  0.
<mgrwt>
<rscale>  0 0.34585159E+03</rscale>
<asrwt>0</asrwt>
<pdfrwt beam="1">  1        2 0.19828627E+00 0.34585159E+03</pdfrwt>
<pdfrwt beam="2">  1       -2 0.30777323E-02 0.34585159E+03</pdfrwt>
<totfact> 0.72889681E+03</totfact>
</mgrwt>
</event>
<event>
 4    1  0.5387486E-005  0.8716244E+03  0.7818608E-02  0.9461764E-01
         -2   -1    0    0    0  501 -0.00000000000E+00  0.00000000000E+00  0.18054536679E+03  0.18054536681E+03  0.25500000000E-02 0. -1.
          2   -1    0    0  501    0  0.00000000000E+00 -0.00000000000E+00 -0.10519920511E+04  0.10519920511E+04  0.25500000000E-02 0.  1.
    5000001    1    1    2    0    0 -0.36170967434E+03 -0.17406561487E+03 -0.49183471115E+03  0.65594139211E+03  0.16500000000E+03 0.  0.
   -5000001    1    1    2    0    0  0.36170967434E+03  0.17406561487E+03 -0.37961197312E+03  0.57659602577E+03  0.16500000000E+03 0.  0.
<mgrwt>
<rscale>  0 0.87162444E+03</rscale>
<asrwt>0</asrwt>
<pdfrwt beam="1">  1        2 0.15028457E+00 0.87162444E+03</pdfrwt>
<pdfrwt beam="2">  1       -2 0.25792196E-01 0.87162444E+03</pdfrwt>
<totfact> 0.35375283E+02</totfact>
</mgrwt>
</event>
<event>
 4    1  0.5387486E-005  0.4594908E+03  0.7818608E-02  0.1024929E+00
          2   -1    0    0  501    0  0.00000000000E+00  0.00000000000E+00  0.28574935733E+04  0.28574935733E+04  0.25500000000E-02 0.  1.
         -2   -1    0    0    0  501 -0.00000000000E+00 -0.00000000000E+00 -0.18471762476E+02  0.18471762652E+02  0.25500000000E-02 0. -1.
    5000001    1    1    2    0    0 -0.93226122825E+02 -0.98043750795E+02  0.88641753271E+03  0.91173720410E+03  0.16500000000E+03 0.  0.
   -5000001    1    1    2    0    0  0.93226122825E+02  0.98043750795E+02  0.19526042781E+04  0.19642281318E+04  0.16500000000E+03 0.  0.
<mgrwt>
<rscale>  0 0.45949077E+03</rscale>
<asrwt>0</asrwt>
<pdfrwt beam="1">  1        2 0.40821331E+00 0.45949077E+03</pdfrwt>
<pdfrwt beam="2">  1       -2 0.26388236E-02 0.45949077E+03</pdfrwt>
<totfact> 0.16594398E+03</totfact>
</mgrwt>
</event>
<event>
 4    1  0.5387486E-005  0.8586469E+03  0.7818608E-02  0.9478804E-01
          2   -1    0    0  501    0  0.00000000000E+00  0.00000000000E+00  0.74890973883E+03  0.74890973883E+03  0.25500000000E-02 0.  1.
         -2   -1    0    0    0  501 -0.00000000000E+00 -0.00000000000E+00 -0.24611596038E+03  0.24611596039E+03  0.25500000000E-02 0. -1.
    5000001    1    1    2    0    0 -0.37961387745E+03 -0.10783868374E+03  0.29409724472E+03  0.51908965220E+03  0.16500000000E+03 0.  0.
   -5000001    1    1    2    0    0  0.37961387745E+03  0.10783868374E+03  0.20869653373E+03  0.47593604702E+03  0.16500000000E+03 0.  0.
<mgrwt>
<rscale>  0 0.85864693E+03</rscale>
<asrwt>0</asrwt>
<pdfrwt beam="1">  1        2 0.10698711E+00 0.85864693E+03</pdfrwt>
<pdfrwt beam="2">  1       -2 0.35159422E-01 0.85864693E+03</pdfrwt>
<totfact> 0.31472754E+02</totfact>
</mgrwt>
</event>
<event>
 4    1  0.5387486E-005  0.4663643E+03  0.7818608E-02  0.1022951E+00
         -2   -1    0    0    0  501 -0.00000000000E+00  0.00000000000E+00  0.17661597028E+03  0.17661597030E+03  0.25500000000E-02 0. -1.
          2   -1    0    0  501    0  0.00000000000E+00 -0.00000000000E+00 -0.30786526685E+03  0.30786526686E+03  0.25500000000E-02 0.  1.
    5000001    1    1    2    0    0  0.89108539628E+02 -0.12697513811E+03 -0.79157304504E+01  0.22660687616E+03  0.16500000000E+03 0.  0.
   -5000001    1    1    2    0    0 -0.89108539628E+02  0.12697513811E+03 -0.12333356612E+03  0.25787436101E+03  0.16500000000E+03 0.  0.
<mgrwt>
<rscale>  0 0.46636433E+03</rscale>
<asrwt>0</asrwt>
<pdfrwt beam="1">  1        2 0.43980752E-01 0.46636433E+03</pdfrwt>
<pdfrwt beam="2">  1       -2 0.25230853E-01 0.46636433E+03</pdfrwt>
<totfact> 0.16245938E+03</totfact>
</mgrwt>
</event>
<event>
 4    1  0.5387486E-005  0.6183751E+03  0.7818608E-02  0.9868000E-01
          2   -1    0    0  501    0  0.00000000000E+00  0.00000000000E+00  0.65664434578E+03  0.65664434579E+03  0.25500000000E-02 0.  1.
         -2   -1    0    0    0  501 -0.00000000000E+00 -0.00000000000E+00 -0.14558404539E+03  0.14558404541E+03  0.25500000000E-02 0. -1.
    5000001    1    1    2    0    0 -0.80924559692E+02 -0.22113068201E+03  0.10804413193E+03  0.30715809827E+03  0.16500000000E+03 0.  0.
   -5000001    1    1    2    0    0  0.80924559692E+02  0.22113068201E+03  0.40301616847E+03  0.49507029292E+03  0.16500000000E+03 0.  0.
<mgrwt>
<rscale>  0 0.61837510E+03</rscale>
<asrwt>0</asrwt>
<pdfrwt beam="1">  1        2 0.93806338E-01 0.61837510E+03</pdfrwt>
<pdfrwt beam="2">  1       -2 0.20797720E-01 0.61837510E+03</pdfrwt>
<totfact> 0.97198765E+02</totfact>
</mgrwt>
</event>
<event>
 4    1  0.5387486E-005  0.3702421E+03  0.7818608E-02  0.1054600E+00
          2   -1    0    0  501    0  0.00000000000E+00  0.00000000000E+00  0.26264391295E+04  0.26264391295E+04  0.25500000000E-02 0.  1.
         -2   -1    0    0    0  501 -0.00000000000E+00 -0.00000000000E+00 -0.13048006650E+02  0.13048006899E+02  0.25500000000E-02 0. -1.
    5000001    1    1    2    0    0  0.28018077209E+02 -0.62170709715E+02  0.16555538093E+04  0.16651527333E+04  0.16500000000E+03 0.  0.
   -5000001    1    1    2    0    0 -0.28018077209E+02  0.62170709715E+02  0.95783731357E+03  0.97433440310E+03  0.16500000000E+03 0.  0.
<mgrwt>
<rscale>  0 0.37024206E+03</rscale>
<asrwt>0</asrwt>
<pdfrwt beam="1">  1        2 0.37520606E+00 0.37024206E+03</pdfrwt>
<pdfrwt beam="2">  1       -2 0.18639986E-02 0.37024206E+03</pdfrwt>
<totfact> 0.36977211E+03</totfact>
</mgrwt>
</event>
<event>
 4    1  0.5387486E-005  0.6400137E+03  0.7818608E-02  0.9825700E-01
         -2   -1    0    0    0  501 -0.00000000000E+00  0.00000000000E+00  0.63505240066E+02  0.63505240117E+02  0.25500000000E-02 0. -1.
          2   -1    0    0  501    0  0.00000000000E+00 -0.00000000000E+00 -0.16125341766E+04  0.16125341766E+04  0.25500000000E-02 0.  1.
    5000001    1    1    2    0    0 -0.59928331804E+02  0.19349119357E+03 -0.29058199520E+03  0.39075969965E+03  0.16500000000E+03 0.  0.
   -5000001    1    1    2    0    0  0.59928331804E+02 -0.19349119357E+03 -0.12584469414E+04  0.12852797171E+04  0.16500000000E+03 0.  0.
<mgrwt>
<rscale>  0 0.64001366E+03</rscale>
<asrwt>0</asrwt>
<pdfrwt beam="1">  1        2 0.23036200E+00 0.64001366E+03</pdfrwt>
<pdfrwt beam="2">  1       -2 0.90721782E-02 0.64001366E+03</pdfrwt>
<totfact> 0.10410542E+03</totfact>
</mgrwt>
</event>
<event>
 4    1  0.5387486E-005  0.6358481E+03  0.7818608E-02  0.9833703E-01
         -2   -1    0    0    0  501 -0.00000000000E+00  0.00000000000E+00  0.93219139231E+02  0.93219139265E+02  0.25500000000E-02 0. -1.
          2   -1    0    0  501    0  0.00000000000E+00 -0.00000000000E+00 -0.10842805392E+04  0.10842805392E+04  0.25500000000E-02 0.  1.
    5000001    1    1    2    0    0  0.13183799973E+03 -0.69081299434E+02 -0.91658780228E+03  0.94313927041E+03  0.16500000000E+03 0.  0.
   -5000001    1    1    2    0    0 -0.13183799973E+03  0.69081299434E+02 -0.74473597667E+02  0.23436040803E+03  0.16500000000E+03 0.  0.
<mgrwt>
<rscale>  0 0.63584809E+03</rscale>
<asrwt>0</asrwt>
<pdfrwt beam="1">  1        2 0.15489721E+00 0.63584809E+03</pdfrwt>
<pdfrwt beam="2">  1       -2 0.13317020E-01 0.63584809E+03</pdfrwt>
<totfact> 0.10747402E+03</totfact>
</mgrwt>
</event>
<event>
 4    1  0.5387486E-005  0.3415390E+03  0.7818608E-02  0.1066142E+00
         -2   -1    0    0    0  501 -0.00000000000E+00  0.00000000000E+00  0.58112457200E+02  0.58112457256E+02  0.25500000000E-02 0. -1.
          2   -1    0    0  501    0  0.00000000000E+00 -0.00000000000E+00 -0.50182380595E+03  0.50182380595E+03  0.25500000000E-02 0.  1.
    5000001    1    1    2    0    0  0.41057732883E+02  0.80550128753E+01 -0.24425046232E+03  0.29771447564E+03  0.16500000000E+03 0.  0.
   -5000001    1    1    2    0    0 -0.41057732883E+02 -0.80550128753E+01 -0.19946088642E+03  0.26222178757E+03  0.16500000000E+03 0.  0.
<mgrwt>
<rscale>  0 0.34153896E+03</rscale>
<asrwt>0</asrwt>
<pdfrwt beam="1">  1        2 0.71689112E-01 0.34153896E+03</pdfrwt>
<pdfrwt beam="2">  1       -2 0.83017799E-02 0.34153896E+03</pdfrwt>
<totfact> 0.60321320E+03</totfact>
</mgrwt>
</event>
<event>
 4    1  0.5387486E-005  0.4928912E+03  0.7818608E-02  0.1015651E+00
          2   -1    0    0  501    0  0.00000000000E+00  0.00000000000E+00  0.85717518470E+03  0.85717518471E+03  0.25500000000E-02 0.  1.
         -2   -1    0    0    0  501 -0.00000000000E+00 -0.00000000000E+00 -0.70855323173E+02  0.70855323219E+02  0.25500000000E-02 0. -1.
    5000001    1    1    2    0    0 -0.12768365957E+03 -0.86198482841E+02  0.20698684273E+03  0.30627087428E+03  0.16500000000E+03 0.  0.
   -5000001    1    1    2    0    0  0.12768365957E+03  0.86198482841E+02  0.57933301880E+03  0.62175963365E+03  0.16500000000E+03 0.  0.
<mgrwt>
<rscale>  0 0.49289116E+03</rscale>
<asrwt>0</asrwt>
<pdfrwt beam="1">  1        2 0.12245360E+00 0.49289116E+03</pdfrwt>
<pdfrwt beam="2">  1       -2 0.10122189E-01 0.49289116E+03</pdfrwt>
<totfact> 0.23341176E+03</totfact>
</mgrwt>
</event>
<event>
 4    1  0.5387486E-005  0.4523601E+03  0.7818608E-02  0.1027021E+00
         -2   -1    0    0    0  501 -0.00000000000E+00  0.00000000000E+00  0.21503136959E+03  0.21503136960E+03  0.25500000000E-02 0. -1.
          2   -1    0    0  501    0  0.00000000000E+00 -0.00000000000E+00 -0.23790676517E+03  0.23790676518E+03  0.25500000000E-02 0.  1.
    5000001    1    1    2    0    0  0.12906442168E+03 -0.66651748121E+02  0.41850011882E+02  0.22377780043E+03  0.16500000000E+03 0.  0.
   -5000001    1    1    2    0    0 -0.12906442168E+03  0.66651748121E+02 -0.64725407459E+02  0.22916033435E+03  0.16500000000E+03 0.  0.
<mgrwt>
<rscale>  0 0.45236011E+03</rscale>
<asrwt>0</asrwt>
<pdfrwt beam="1">  1        2 0.33986681E-01 0.45236011E+03</pdfrwt>
<pdfrwt beam="2">  1       -2 0.30718767E-01 0.45236011E+03</pdfrwt>
<totfact> 0.15084635E+03</totfact>
</mgrwt>
</event>
<event>
 4    1  0.5387486E-005  0.6277754E+03  0.7818608E-02  0.9849400E-01
         -2   -1    0    0    0  501 -0.00000000000E+00  0.00000000000E+00  0.71421960948E+02  0.71421960994E+02  0.25500000000E-02 0. -1.
          2   -1    0    0  501    0  0.00000000000E+00 -0.00000000000E+00 -0.13794843979E+04  0.13794843979E+04  0.25500000000E-02 0.  1.
    5000001    1    1    2    0    0  0.63811645524E+02  0.21096386633E+03 -0.10024215125E+04  0.10395439230E+04  0.16500000000E+03 0.  0.
   -5000001    1    1    2    0    0 -0.63811645524E+02 -0.21096386633E+03 -0.30564092439E+03  0.41136243590E+03  0.16500000000E+03 0.  0.
<mgrwt>
<rscale>  0 0.62777538E+03</rscale>
<asrwt>0</asrwt>
<pdfrwt beam="1">  1        2 0.19706918E+00 0.62777538E+03</pdfrwt>
<pdfrwt beam="2">  1       -2 0.10203138E-01 0.62777538E+03</pdfrwt>
<totfact> 0.11404226E+03</totfact>
</mgrwt>
</event>
<event>
 4    1  0.5387486E-005  0.6933833E+03  0.7818608E-02  0.9728615E-01
         -2   -1    0    0    0  501 -0.00000000000E+00  0.00000000000E+00  0.10735225273E+03  0.10735225276E+03  0.25500000000E-02 0. -1.
          2   -1    0    0  501    0  0.00000000000E+00 -0.00000000000E+00 -0.11196328147E+04  0.11196328147E+04  0.25500000000E-02 0.  1.
    5000001    1    1    2    0    0  0.43810514841E+01 -0.25729986524E+03 -0.21673327721E+03  0.37472753797E+03  0.16500000000E+03 0.  0.
   -5000001    1    1    2    0    0 -0.43810514841E+01  0.25729986524E+03 -0.79554728475E+03  0.85225752947E+03  0.16500000000E+03 0.  0.
<mgrwt>
<rscale>  0 0.69338331E+03</rscale>
<asrwt>0</asrwt>
<pdfrwt beam="1">  1        2 0.15994754E+00 0.69338331E+03</pdfrwt>
<pdfrwt beam="2">  1       -2 0.15336037E-01 0.69338331E+03</pdfrwt>
<totfact> 0.80723259E+02</totfact>
</mgrwt>
</event>
<event>
 4    1  0.5387486E-005  0.4225607E+03  0.7818608E-02  0.1036236E+00
         -2   -1    0    0    0  501 -0.00000000000E+00  0.00000000000E+00  0.10681132979E+03  0.10681132982E+03  0.25500000000E-02 0. -1.
          2   -1    0    0  501    0  0.00000000000E+00 -0.00000000000E+00 -0.41792740051E+03  0.41792740052E+03  0.25500000000E-02 0.  1.
    5000001    1    1    2    0    0 -0.44286346670E+01  0.12617733312E+03 -0.10788091325E+03  0.23410173780E+03  0.16500000000E+03 0.  0.
   -5000001    1    1    2    0    0  0.44286346670E+01 -0.12617733312E+03 -0.20323515747E+03  0.29063699254E+03  0.16500000000E+03 0.  0.
<mgrwt>
<rscale>  0 0.42256068E+03</rscale>
<asrwt>0</asrwt>
<pdfrwt beam="1">  1        2 0.59703914E-01 0.42256068E+03</pdfrwt>
<pdfrwt beam="2">  1       -2 0.15258762E-01 0.42256068E+03</pdfrwt>
<totfact> 0.27667458E+03</totfact>
</mgrwt>
</event>
<event>
 4    1  0.5387486E-005  0.5888293E+03  0.7818608E-02  0.9928857E-01
          2   -1    0    0  501    0  0.00000000000E+00  0.00000000000E+00  0.64077541143E+03  0.64077541144E+03  0.25500000000E-02 0.  1.
         -2   -1    0    0    0  501 -0.00000000000E+00 -0.00000000000E+00 -0.13527358727E+03  0.13527358730E+03  0.25500000000E-02 0. -1.
    5000001    1    1    2    0    0  0.23183962363E+03 -0.49127662334E+02  0.32836796733E+03  0.43727984204E+03  0.16500000000E+03 0.  0.
   -5000001    1    1    2    0    0 -0.23183962363E+03  0.49127662334E+02  0.17713385684E+03  0.33876915669E+03  0.16500000000E+03 0.  0.
<mgrwt>
<rscale>  0 0.58882931E+03</rscale>
<asrwt>0</asrwt>
<pdfrwt beam="1">  1        2 0.91539344E-01 0.58882931E+03</pdfrwt>
<pdfrwt beam="2">  1       -2 0.19324798E-01 0.58882931E+03</pdfrwt>
<totfact> 0.11380756E+03</totfact>
</mgrwt>
</event>
<event>
 4    1  0.5387486E-005  0.4420816E+03  0.7818608E-02  0.1030110E+00
         -2   -1    0    0    0  501 -0.00000000000E+00  0.00000000000E+00  0.68213980362E+02  0.68213980409E+02  0.25500000000E-02 0. -1.
          2   -1    0    0  501    0  0.00000000000E+00 -0.00000000000E+00 -0.71626124613E+03  0.71626124613E+03  0.25500000000E-02 0.  1.
    5000001    1    1    2    0    0  0.12386606062E+03 -0.57318980932E+02 -0.42131050880E+03  0.47260534420E+03  0.16500000000E+03 0.  0.
   -5000001    1    1    2    0    0 -0.12386606062E+03  0.57318980932E+02 -0.22673675697E+03  0.31186988234E+03  0.16500000000E+03 0.  0.
<mgrwt>
<rscale>  0 0.44208158E+03</rscale>
<asrwt>0</asrwt>
<pdfrwt beam="1">  1        2 0.10232303E+00 0.44208158E+03</pdfrwt>
<pdfrwt beam="2">  1       -2 0.97448548E-02 0.44208158E+03</pdfrwt>
<totfact> 0.31080920E+03</totfact>
</mgrwt>
</event>
<event>
 4    1  0.5387486E-005  0.6293794E+03  0.7818608E-02  0.9846261E-01
          2   -1    0    0  501    0  0.00000000000E+00  0.00000000000E+00  0.21844685277E+04  0.21844685277E+04  0.25500000000E-02 0.  1.
         -2   -1    0    0    0  501 -0.00000000000E+00 -0.00000000000E+00 -0.45333504879E+02  0.45333504951E+02  0.25500000000E-02 0. -1.
    5000001    1    1    2    0    0 -0.24330975591E+03 -0.94900967841E+02  0.85703193340E+03  0.91100744557E+03  0.16500000000E+03 0.  0.
   -5000001    1    1    2    0    0  0.24330975591E+03  0.94900967841E+02  0.12821030894E+04  0.13187945871E+04  0.16500000000E+03 0.  0.
<mgrwt>
<rscale>  0 0.62937942E+03</rscale>
<asrwt>0</asrwt>
<pdfrwt beam="1">  1        2 0.31206708E+00 0.62937942E+03</pdfrwt>
<pdfrwt beam="2">  1       -2 0.64762120E-02 0.62937942E+03</pdfrwt>
<totfact> 0.91513905E+02</totfact>
</mgrwt>
</event>
<event>
 4    1  0.5387486E-005  0.5893419E+03  0.7818608E-02  0.9927768E-01
         -2   -1    0    0    0  501 -0.00000000000E+00  0.00000000000E+00  0.12592562830E+03  0.12592562833E+03  0.25500000000E-02 0. -1.
          2   -1    0    0  501    0  0.00000000000E+00 -0.00000000000E+00 -0.68954177270E+03  0.68954177270E+03  0.25500000000E-02 0.  1.
    5000001    1    1    2    0    0 -0.80334749229E+02 -0.20896315520E+03 -0.41657925513E+03  0.50088177045E+03  0.16500000000E+03 0.  0.
   -5000001    1    1    2    0    0  0.80334749229E+02  0.20896315520E+03 -0.14703688926E+03  0.31458563058E+03  0.16500000000E+03 0.  0.
<mgrwt>
<rscale>  0 0.58934194E+03</rscale>
<asrwt>0</asrwt>
<pdfrwt beam="1">  1        2 0.98505965E-01 0.58934194E+03</pdfrwt>
<pdfrwt beam="2">  1       -2 0.17989376E-01 0.58934194E+03</pdfrwt>
<totfact> 0.11787379E+03</totfact>
</mgrwt>
</event>
<event>
 4    1  0.5387486E-005  0.3842265E+03  0.7818608E-02  0.1049383E+00
         -2   -1    0    0    0  501 -0.00000000000E+00  0.00000000000E+00  0.34410115569E+02  0.34410115663E+02  0.25500000000E-02 0. -1.
          2   -1    0    0  501    0  0.00000000000E+00 -0.00000000000E+00 -0.10725772054E+04  0.10725772054E+04  0.25500000000E-02 0.  1.
    5000001    1    1    2    0    0 -0.69717509938E+02  0.61896418781E+02 -0.60977158399E+03  0.63854372011E+03  0.16500000000E+03 0.  0.
   -5000001    1    1    2    0    0  0.69717509938E+02 -0.61896418781E+02 -0.42839550581E+03  0.46844360093E+03  0.16500000000E+03 0.  0.
<mgrwt>
<rscale>  0 0.38422653E+03</rscale>
<asrwt>0</asrwt>
<pdfrwt beam="1">  1        2 0.15322529E+00 0.38422653E+03</pdfrwt>
<pdfrwt beam="2">  1       -2 0.49157315E-02 0.38422653E+03</pdfrwt>
<totfact> 0.53377412E+03</totfact>
</mgrwt>
</event>
<event>
 4    1  0.5387486E-005  0.4402598E+03  0.7818608E-02  0.1030667E+00
         -2   -1    0    0    0  501 -0.00000000000E+00  0.00000000000E+00  0.32547778205E+03  0.32547778206E+03  0.25500000000E-02 0. -1.
          2   -1    0    0  501    0  0.00000000000E+00 -0.00000000000E+00 -0.14888009556E+03  0.14888009558E+03  0.25500000000E-02 0.  1.
    5000001    1    1    2    0    0 -0.25443643945E+02  0.12134084702E+03  0.17078665327E+03  0.26788815037E+03  0.16500000000E+03 0.  0.
   -5000001    1    1    2    0    0  0.25443643945E+02 -0.12134084702E+03  0.58110332179E+01  0.20646972727E+03  0.16500000000E+03 0.  0.
<mgrwt>
<rscale>  0 0.44025976E+03</rscale>
<asrwt>0</asrwt>
<pdfrwt beam="1">  1        2 0.21268585E-01 0.44025976E+03</pdfrwt>
<pdfrwt beam="2">  1       -2 0.46496825E-01 0.44025976E+03</pdfrwt>
<totfact> 0.11581803E+03</totfact>
</mgrwt>
</event>
<event>
 4    1  0.5387486E-005  0.3972509E+03  0.7818608E-02  0.1044736E+00
         -2   -1    0    0    0  501 -0.00000000000E+00  0.00000000000E+00  0.46338308018E+02  0.46338308088E+02  0.25500000000E-02 0. -1.
          2   -1    0    0  501    0  0.00000000000E+00 -0.00000000000E+00 -0.85139206469E+03  0.85139206470E+03  0.25500000000E-02 0.  1.
    5000001    1    1    2    0    0  0.20199496912E+02 -0.96557760670E+02 -0.51542133340E+03  0.55010505519E+03  0.16500000000E+03 0.  0.
   -5000001    1    1    2    0    0 -0.20199496912E+02  0.96557760670E+02 -0.28963242327E+03  0.34762531759E+03  0.16500000000E+03 0.  0.
<mgrwt>
<rscale>  0 0.39725089E+03</rscale>
<asrwt>0</asrwt>
<pdfrwt beam="1">  1        2 0.12162743E+00 0.39725089E+03</pdfrwt>
<pdfrwt beam="2">  1       -2 0.66197588E-02 0.39725089E+03</pdfrwt>
<totfact> 0.46084634E+03</totfact>
</mgrwt>
</event>
<event>
 4    1  0.5387486E-005  0.5065591E+03  0.7818608E-02  0.1012081E+00
          2   -1    0    0  501    0  0.00000000000E+00  0.00000000000E+00  0.19306008230E+04  0.19306008230E+04  0.25500000000E-02 0.  1.
         -2   -1    0    0    0  501 -0.00000000000E+00 -0.00000000000E+00 -0.33228267959E+02  0.33228268057E+02  0.25500000000E-02 0. -1.
    5000001    1    1    2    0    0 -0.16392171937E+03  0.61792752812E+01  0.13366960008E+04  0.13567939092E+04  0.16500000000E+03 0.  0.
   -5000001    1    1    2    0    0  0.16392171937E+03 -0.61792752812E+01  0.56067655425E+03  0.60703518186E+03  0.16500000000E+03 0.  0.
<mgrwt>
<rscale>  0 0.50655906E+03</rscale>
<asrwt>0</asrwt>
<pdfrwt beam="1">  1        2 0.27580013E+00 0.50655906E+03</pdfrwt>
<pdfrwt beam="2">  1       -2 0.47468953E-02 0.50655906E+03</pdfrwt>
<totfact> 0.20032333E+03</totfact>
</mgrwt>
</event>
<event>
 4    1  0.5387486E-005  0.7878309E+03  0.7818608E-02  0.9577800E-01
          2   -1    0    0  501    0  0.00000000000E+00  0.00000000000E+00  0.11282076480E+04  0.11282076480E+04  0.25500000000E-02 0.  1.
         -2   -1    0    0    0  501 -0.00000000000E+00 -0.00000000000E+00 -0.13753619463E+03  0.13753619466E+03  0.25500000000E-02 0. -1.
    5000001    1    1    2    0    0 -0.10153647051E+03  0.11388726334E+03  0.10151070894E+04  0.10396861865E+04  0.16500000000E+03 0.  0.
   -5000001    1    1    2    0    0  0.10153647051E+03 -0.11388726334E+03 -0.24435635979E+02  0.22605765614E+03  0.16500000000E+03 0.  0.
<mgrwt>
<rscale>  0 0.78783091E+03</rscale>
<asrwt>0</asrwt>
<pdfrwt beam="1">  1        2 0.16117252E+00 0.78783091E+03</pdfrwt>
<pdfrwt beam="2">  1       -2 0.19648027E-01 0.78783091E+03</pdfrwt>
<totfact> 0.51946708E+02</totfact>
</mgrwt>
</event>
<event>
 4    1  0.5387486E-005  0.4105575E+03  0.7818608E-02  0.1040184E+00
         -2   -1    0    0    0  501 -0.00000000000E+00  0.00000000000E+00  0.43867942754E+02  0.43867942828E+02  0.25500000000E-02 0. -1.
          2   -1    0    0  501    0  0.00000000000E+00 -0.00000000000E+00 -0.96059598281E+03  0.96059598282E+03  0.25500000000E-02 0.  1.
    5000001    1    1    2    0    0  0.11918056367E+03 -0.22518511553E+02 -0.49324648183E+03  0.53406758182E+03  0.16500000000E+03 0.  0.
   -5000001    1    1    2    0    0 -0.11918056367E+03  0.22518511553E+02 -0.42348155823E+03  0.47039634382E+03  0.16500000000E+03 0.  0.
<mgrwt>
<rscale>  0 0.41055752E+03</rscale>
<asrwt>0</asrwt>
<pdfrwt beam="1">  1        2 0.13722798E+00 0.41055752E+03</pdfrwt>
<pdfrwt beam="2">  1       -2 0.62668496E-02 0.41055752E+03</pdfrwt>
<totfact> 0.42814065E+03</totfact>
</mgrwt>
</event>
<event>
 4    1  0.5387486E-005  0.5948273E+03  0.7818608E-02  0.9916196E-01
         -2   -1    0    0    0  501 -0.00000000000E+00  0.00000000000E+00  0.27012369452E+03  0.27012369453E+03  0.25500000000E-02 0. -1.
          2   -1    0    0  501    0  0.00000000000E+00 -0.00000000000E+00 -0.32746067166E+03  0.32746067167E+03  0.25500000000E-02 0.  1.
    5000001    1    1    2    0    0  0.78780966388E+02 -0.13902142067E+03 -0.21847935705E+03  0.31700414118E+03  0.16500000000E+03 0.  0.
   -5000001    1    1    2    0    0 -0.78780966388E+02  0.13902142067E+03  0.16114237990E+03  0.28058022502E+03  0.16500000000E+03 0.  0.
<mgrwt>
<rscale>  0 0.59482732E+03</rscale>
<asrwt>0</asrwt>
<pdfrwt beam="1">  1        2 0.46780096E-01 0.59482732E+03</pdfrwt>
<pdfrwt beam="2">  1       -2 0.38589099E-01 0.59482732E+03</pdfrwt>
<totfact> 0.69000344E+02</totfact>
</mgrwt>
</event>
<event>
 4    1  0.5387486E-005  0.4143706E+03  0.7818608E-02  0.1038914E+00
         -2   -1    0    0    0  501 -0.00000000000E+00  0.00000000000E+00  0.16684510839E+02  0.16684511034E+02  0.25500000000E-02 0.  1.
          2   -1    0    0  501    0  0.00000000000E+00 -0.00000000000E+00 -0.25727902126E+04  0.25727902126E+04  0.25500000000E-02 0. -1.
    5000001    1    1    2    0    0 -0.33617691762E+02  0.73782947265E+02 -0.18750592964E+04  0.18840505401E+04  0.16500000000E+03 0.  0.
   -5000001    1    1    2    0    0  0.33617691762E+02 -0.73782947265E+02 -0.68104640531E+03  0.70542418351E+03  0.16500000000E+03 0.  0.
<mgrwt>
<rscale>  0 0.41437059E+03</rscale>
<asrwt>0</asrwt>
<pdfrwt beam="1">  1        2 0.36754121E+00 0.41437059E+03</pdfrwt>
<pdfrwt beam="2">  1       -2 0.23835032E-02 0.41437059E+03</pdfrwt>
<totfact> 0.27248672E+03</totfact>
</mgrwt>
</event>
<event>
 4    1  0.5387486E-005  0.6590367E+03  0.7818608E-02  0.9789969E-01
         -2   -1    0    0    0  501 -0.00000000000E+00  0.00000000000E+00  0.44291373365E+02  0.44291373438E+02  0.25500000000E-02 0. -1.
          2   -1    0    0  501    0  0.00000000000E+00 -0.00000000000E+00 -0.24515462244E+04  0.24515462244E+04  0.25500000000E-02 0.  1.
    5000001    1    1    2    0    0  0.11384241834E+03  0.25363673990E+03 -0.14451023780E+04  0.14808232760E+04  0.16500000000E+03 0.  0.
   -5000001    1    1    2    0    0 -0.11384241834E+03 -0.25363673990E+03 -0.96215247310E+03  0.10150143218E+04  0.16500000000E+03 0.  0.
<mgrwt>
<rscale>  0 0.65903672E+03</rscale>
<asrwt>0</asrwt>
<pdfrwt beam="1">  1        2 0.35022080E+00 0.65903672E+03</pdfrwt>
<pdfrwt beam="2">  1       -2 0.63273406E-02 0.65903672E+03</pdfrwt>
<totfact> 0.69314490E+02</totfact>
</mgrwt>
</event>
<event>
 4    1  0.5387486E-005  0.4682535E+03  0.7818608E-02  0.1022414E+00
          2   -1    0    0  501    0  0.00000000000E+00  0.00000000000E+00  0.12924193330E+03  0.12924193333E+03  0.25500000000E-02 0.  1.
         -2   -1    0    0    0  501 -0.00000000000E+00 -0.00000000000E+00 -0.42412965076E+03  0.42412965077E+03  0.25500000000E-02 0. -1.
    5000001    1    1    2    0    0  0.15397575837E+03  0.16730611338E+02 -0.76518596252E+02  0.23889023231E+03  0.16500000000E+03 0.  0.
   -5000001    1    1    2    0    0 -0.15397575837E+03 -0.16730611338E+02 -0.21836912121E+03  0.31448135178E+03  0.16500000000E+03 0.  0.
<mgrwt>
<rscale>  0 0.46825350E+03</rscale>
<asrwt>0</asrwt>
<pdfrwt beam="1">  1        2 0.18463133E-01 0.46825350E+03</pdfrwt>
<pdfrwt beam="2">  1       -2 0.60589950E-01 0.46825350E+03</pdfrwt>
<totfact> 0.79572167E+02</totfact>
</mgrwt>
</event>
<event>
 4    1  0.5387486E-005  0.5583029E+03  0.7818608E-02  0.9995902E-01
         -2   -1    0    0    0  501 -0.00000000000E+00  0.00000000000E+00  0.34482780051E+03  0.34482780052E+03  0.25500000000E-02 0. -1.
          2   -1    0    0  501    0  0.00000000000E+00 -0.00000000000E+00 -0.22598387777E+03  0.22598387778E+03  0.25500000000E-02 0.  1.
    5000001    1    1    2    0    0 -0.50265391087E+02 -0.21838205381E+03  0.81896102811E+02  0.29008499207E+03  0.16500000000E+03 0.  0.
   -5000001    1    1    2    0    0  0.50265391087E+02  0.21838205381E+03  0.36947819932E+02  0.28072668624E+03  0.16500000000E+03 0.  0.
<mgrwt>
<rscale>  0 0.55830287E+03</rscale>
<asrwt>0</asrwt>
<pdfrwt beam="1">  1        2 0.32283411E-01 0.55830287E+03</pdfrwt>
<pdfrwt beam="2">  1       -2 0.49261114E-01 0.55830287E+03</pdfrwt>
<totfact> 0.64308929E+02</totfact>
</mgrwt>
</event>
<event>
 4    1  0.5387486E-005  0.4818506E+03  0.7818608E-02  0.1018628E+00
         -2   -1    0    0    0  501 -0.00000000000E+00  0.00000000000E+00  0.32927060108E+02  0.32927060207E+02  0.25500000000E-02 0. -1.
          2   -1    0    0  501    0  0.00000000000E+00 -0.00000000000E+00 -0.17628354971E+04  0.17628354971E+04  0.25500000000E-02 0.  1.
    5000001    1    1    2    0    0 -0.54186900480E+02 -0.16266236039E+03 -0.10056244948E+04  0.10333929011E+04  0.16500000000E+03 0.  0.
   -5000001    1    1    2    0    0  0.54186900480E+02  0.16266236039E+03 -0.72428394227E+03  0.76236965620E+03  0.16500000000E+03 0.  0.
<mgrwt>
<rscale>  0 0.48185056E+03</rscale>
<asrwt>0</asrwt>
<pdfrwt beam="1">  1        2 0.25183358E+00 0.48185056E+03</pdfrwt>
<pdfrwt beam="2">  1       -2 0.47038669E-02 0.48185056E+03</pdfrwt>
<totfact> 0.24669364E+03</totfact>
</mgrwt>
</event>
<event>
 4    1  0.5387486E-005  0.5056410E+03  0.7818608E-02  0.1012317E+00
          2   -1    0    0  501    0  0.00000000000E+00  0.00000000000E+00  0.92302750949E+03  0.92302750950E+03  0.25500000000E-02 0.  1.
         -2   -1    0    0    0  501 -0.00000000000E+00 -0.00000000000E+00 -0.69248421251E+02  0.69248421298E+02  0.25500000000E-02 0. -1.
    5000001    1    1    2    0    0 -0.52125192192E+02 -0.13556458445E+03  0.18179688416E+03  0.28525409604E+03  0.16500000000E+03 0.  0.
   -5000001    1    1    2    0    0  0.52125192192E+02  0.13556458445E+03  0.67198220408E+03  0.70702183475E+03  0.16500000000E+03 0.  0.
<mgrwt>
<rscale>  0 0.50564097E+03</rscale>
<asrwt>0</asrwt>
<pdfrwt beam="1">  1        2 0.13186107E+00 0.50564097E+03</pdfrwt>
<pdfrwt beam="2">  1       -2 0.98926317E-02 0.50564097E+03</pdfrwt>
<totfact> 0.21963290E+03</totfact>
</mgrwt>
</event>
<event>
 4    1  0.5387486E-005  0.7655661E+03  0.7818608E-02  0.9611241E-01
         -2   -1    0    0    0  501 -0.00000000000E+00  0.00000000000E+00  0.42517568703E+03  0.42517568704E+03  0.25500000000E-02 0. -1.
          2   -1    0    0  501    0  0.00000000000E+00 -0.00000000000E+00 -0.34461718321E+03  0.34461718322E+03  0.25500000000E-02 0.  1.
    5000001    1    1    2    0    0 -0.30503396612E+03 -0.14837312928E+03 -0.25176558490E+02  0.37804651179E+03  0.16500000000E+03 0.  0.
   -5000001    1    1    2    0    0  0.30503396612E+03  0.14837312928E+03  0.10573506231E+03  0.39174635847E+03  0.16500000000E+03 0.  0.
<mgrwt>
<rscale>  0 0.76556606E+03</rscale>
<asrwt>0</asrwt>
<pdfrwt beam="1">  1        2 0.49231026E-01 0.76556606E+03</pdfrwt>
<pdfrwt beam="2">  1       -2 0.60739384E-01 0.76556606E+03</pdfrwt>
<totfact> 0.25989100E+02</totfact>
</mgrwt>
</event>
<event>
 4    1  0.5387486E-005  0.6828730E+03  0.7818608E-02  0.9746978E-01
         -2   -1    0    0    0  501 -0.00000000000E+00  0.00000000000E+00  0.16390833633E+03  0.16390833635E+03  0.25500000000E-02 0. -1.
          2   -1    0    0  501    0  0.00000000000E+00 -0.00000000000E+00 -0.71124438541E+03  0.71124438541E+03  0.25500000000E-02 0.  1.
    5000001    1    1    2    0    0 -0.93362661455E+02  0.27511530481E+03 -0.18351158070E+03  0.38119092033E+03  0.16500000000E+03 0.  0.
   -5000001    1    1    2    0    0  0.93362661455E+02 -0.27511530481E+03 -0.36382446837E+03  0.49396180144E+03  0.16500000000E+03 0.  0.
<mgrwt>
<rscale>  0 0.68287300E+03</rscale>
<asrwt>0</asrwt>
<pdfrwt beam="1">  1        2 0.10160634E+00 0.68287300E+03</pdfrwt>
<pdfrwt beam="2">  1       -2 0.23415477E-01 0.68287300E+03</pdfrwt>
<totfact> 0.71416793E+02</totfact>
</mgrwt>
</event>
<event>
 4    1  0.5387486E-005  0.5307446E+03  0.7818608E-02  0.1006052E+00
          2   -1    0    0  501    0  0.00000000000E+00  0.00000000000E+00  0.14638622722E+03  0.14638622724E+03  0.25500000000E-02 0.  1.
         -2   -1    0    0    0  501 -0.00000000000E+00 -0.00000000000E+00 -0.48107290039E+03  0.48107290040E+03  0.25500000000E-02 0. -1.
    5000001    1    1    2    0    0 -0.41183602215E+02  0.19371822194E+03 -0.24187607164E+03  0.35348532167E+03  0.16500000000E+03 0.  0.
   -5000001    1    1    2    0    0  0.41183602215E+02 -0.19371822194E+03 -0.92810601533E+02  0.27397380598E+03  0.16500000000E+03 0.  0.
<mgrwt>
<rscale>  0 0.53074456E+03</rscale>
<asrwt>0</asrwt>
<pdfrwt beam="1">  1        2 0.20912319E-01 0.53074456E+03</pdfrwt>
<pdfrwt beam="2">  1       -2 0.68724699E-01 0.53074456E+03</pdfrwt>
<totfact> 0.52604869E+02</totfact>
</mgrwt>
</event>
<event>
 4    1  0.5387486E-005  0.3989968E+03  0.7818608E-02  0.1044128E+00
          2   -1    0    0  501    0  0.00000000000E+00  0.00000000000E+00  0.14819333452E+04  0.14819333452E+04  0.25500000000E-02 0.  1.
         -2   -1    0    0    0  501 -0.00000000000E+00 -0.00000000000E+00 -0.26856540036E+02  0.26856540157E+02  0.25500000000E-02 0. -1.
    5000001    1    1    2    0    0 -0.79799120778E+02  0.64428760285E+02  0.55609030685E+03  0.58905041737E+03  0.16500000000E+03 0.  0.
   -5000001    1    1    2    0    0  0.79799120778E+02 -0.64428760285E+02  0.89898649830E+03  0.91973946798E+03  0.16500000000E+03 0.  0.
<mgrwt>
<rscale>  0 0.39899675E+03</rscale>
<asrwt>0</asrwt>
<pdfrwt beam="1">  1        2 0.21170479E+00 0.39899675E+03</pdfrwt>
<pdfrwt beam="2">  1       -2 0.38366480E-02 0.39899675E+03</pdfrwt>
<totfact> 0.46800257E+03</totfact>
</mgrwt>
</event>
<event>
 4    1  0.5387486E-005  0.4930825E+03  0.7818608E-02  0.1015600E+00
         -2   -1    0    0    0  501 -0.00000000000E+00  0.00000000000E+00  0.70240195084E+03  0.70240195084E+03  0.25500000000E-02 0.  1.
          2   -1    0    0  501    0  0.00000000000E+00 -0.00000000000E+00 -0.86535348454E+02  0.86535348492E+02  0.25500000000E-02 0. -1.
    5000001    1    1    2    0    0 -0.16605473333E+03 -0.64045967516E+02  0.23853013772E+03  0.34029059202E+03  0.16500000000E+03 0.  0.
   -5000001    1    1    2    0    0  0.16605473333E+03  0.64045967516E+02  0.37733646467E+03  0.44864670731E+03  0.16500000000E+03 0.  0.
<mgrwt>
<rscale>  0 0.49308254E+03</rscale>
<asrwt>0</asrwt>
<pdfrwt beam="1">  1        2 0.12362193E-01 0.49308254E+03</pdfrwt>
<pdfrwt beam="2">  1       -2 0.10034313E+00 0.49308254E+03</pdfrwt>
<totfact> 0.42116793E+02</totfact>
</mgrwt>
</event>
<event>
 4    1  0.5387486E-005  0.9894871E+03  0.7818608E-02  0.9320151E-01
         -2   -1    0    0    0  501 -0.00000000000E+00  0.00000000000E+00  0.33797283944E+03  0.33797283945E+03  0.25500000000E-02 0. -1.
          2   -1    0    0  501    0  0.00000000000E+00 -0.00000000000E+00 -0.72423333115E+03  0.72423333115E+03  0.25500000000E-02 0.  1.
    5000001    1    1    2    0    0 -0.36052055815E+03  0.16290381420E+03  0.72075360318E+02  0.43466375866E+03  0.16500000000E+03 0.  0.
   -5000001    1    1    2    0    0  0.36052055815E+03 -0.16290381420E+03 -0.45833585202E+03  0.62754241194E+03  0.16500000000E+03 0.  0.
<mgrwt>
<rscale>  0 0.98948713E+03</rscale>
<asrwt>0</asrwt>
<pdfrwt beam="1">  1        2 0.10346190E+00 0.98948713E+03</pdfrwt>
<pdfrwt beam="2">  1       -2 0.48281834E-01 0.98948713E+03</pdfrwt>
<totfact> 0.17503733E+02</totfact>
</mgrwt>
</event>
<event>
 4    1  0.5387486E-005  0.3504009E+03  0.7818608E-02  0.1062451E+00
         -2   -1    0    0    0  501 -0.00000000000E+00  0.00000000000E+00  0.63528687185E+02  0.63528687236E+02  0.25500000000E-02 0. -1.
          2   -1    0    0  501    0  0.00000000000E+00 -0.00000000000E+00 -0.48317060840E+03  0.48317060841E+03  0.25500000000E-02 0.  1.
    5000001    1    1    2    0    0 -0.17165327995E+02 -0.50438378764E+02 -0.17061288973E+03  0.24325385234E+03  0.16500000000E+03 0.  0.
   -5000001    1    1    2    0    0  0.17165327995E+02  0.50438378764E+02 -0.24902903149E+03  0.30344544330E+03  0.16500000000E+03 0.  0.
<mgrwt>
<rscale>  0 0.35040088E+03</rscale>
<asrwt>0</asrwt>
<pdfrwt beam="1">  1        2 0.69024371E-01 0.35040088E+03</pdfrwt>
<pdfrwt beam="2">  1       -2 0.90755270E-02 0.35040088E+03</pdfrwt>
<totfact> 0.54687182E+03</totfact>
</mgrwt>
</event>
<event>
 4    1  0.5387486E-005  0.5962988E+03  0.7818608E-02  0.9913115E-01
         -2   -1    0    0    0  501 -0.00000000000E+00  0.00000000000E+00  0.15106643408E+03  0.15106643410E+03  0.25500000000E-02 0. -1.
          2   -1    0    0  501    0  0.00000000000E+00 -0.00000000000E+00 -0.58843700177E+03  0.58843700178E+03  0.25500000000E-02 0.  1.
    5000001    1    1    2    0    0  0.56405014163E+02 -0.33773185864E+02 -0.51566549312E+03  0.54539715300E+03  0.16500000000E+03 0.  0.
   -5000001    1    1    2    0    0 -0.56405014163E+02  0.33773185864E+02  0.78294925428E+02  0.19410628288E+03  0.16500000000E+03 0.  0.
<mgrwt>
<rscale>  0 0.59629885E+03</rscale>
<asrwt>0</asrwt>
<pdfrwt beam="1">  1        2 0.84062428E-01 0.59629885E+03</pdfrwt>
<pdfrwt beam="2">  1       -2 0.21580919E-01 0.59629885E+03</pdfrwt>
<totfact> 0.10379110E+03</totfact>
</mgrwt>
</event>
<event>
 4    1  0.5387486E-005  0.9215135E+03  0.7818608E-02  0.9399081E-01
          2   -1    0    0  501    0  0.00000000000E+00  0.00000000000E+00  0.19005371563E+04  0.19005371563E+04  0.25500000000E-02 0.  1.
         -2   -1    0    0    0  501 -0.00000000000E+00 -0.00000000000E+00 -0.11170355804E+03  0.11170355807E+03  0.25500000000E-02 0. -1.
    5000001    1    1    2    0    0 -0.40090222563E+03 -0.79774779135E+02  0.11872601145E+04  0.12664510213E+04  0.16500000000E+03 0.  0.
   -5000001    1    1    2    0    0  0.40090222563E+03  0.79774779135E+02  0.60157348374E+03  0.74578969303E+03  0.16500000000E+03 0.  0.
<mgrwt>
<rscale>  0 0.92151346E+03</rscale>
<asrwt>0</asrwt>
<pdfrwt beam="1">  1        2 0.27150533E+00 0.92151346E+03</pdfrwt>
<pdfrwt beam="2">  1       -2 0.15957650E-01 0.92151346E+03</pdfrwt>
<totfact> 0.28652583E+02</totfact>
</mgrwt>
</event>
<event>
 4    1  0.5387486E-005  0.4264500E+03  0.7818608E-02  0.1034987E+00
          2   -1    0    0  501    0  0.00000000000E+00  0.00000000000E+00  0.25087651179E+03  0.25087651181E+03  0.25500000000E-02 0.  1.
         -2   -1    0    0    0  501 -0.00000000000E+00 -0.00000000000E+00 -0.18122424822E+03  0.18122424824E+03  0.25500000000E-02 0. -1.
    5000001    1    1    2    0    0 -0.53169901083E+02  0.10423125594E+03 -0.33511701188E+02  0.20503469758E+03  0.16500000000E+03 0.  0.
   -5000001    1    1    2    0    0  0.53169901083E+02 -0.10423125594E+03  0.10316396476E+03  0.22706606246E+03  0.16500000000E+03 0.  0.
<mgrwt>
<rscale>  0 0.42645003E+03</rscale>
<asrwt>0</asrwt>
<pdfrwt beam="1">  1        2 0.35839502E-01 0.42645003E+03</pdfrwt>
<pdfrwt beam="2">  1       -2 0.25889178E-01 0.42645003E+03</pdfrwt>
<totfact> 0.19403102E+03</totfact>
</mgrwt>
</event>
<event>
 4    1  0.5387486E-005  0.5671841E+03  0.7818608E-02  0.9975929E-01
         -2   -1    0    0    0  501 -0.00000000000E+00  0.00000000000E+00  0.16590599761E+03  0.16590599763E+03  0.25500000000E-02 0. -1.
          2   -1    0    0  501    0  0.00000000000E+00 -0.00000000000E+00 -0.48475917182E+03  0.48475917183E+03  0.25500000000E-02 0.  1.
    5000001    1    1    2    0    0 -0.21009858461E+03 -0.78940737300E+02 -0.98437768750E+02  0.29544551033E+03  0.16500000000E+03 0.  0.
   -5000001    1    1    2    0    0  0.21009858461E+03  0.78940737300E+02 -0.22041540546E+03  0.35521965912E+03  0.16500000000E+03 0.  0.
<mgrwt>
<rscale>  0 0.56718411E+03</rscale>
<asrwt>0</asrwt>
<pdfrwt beam="1">  1        2 0.69251310E-01 0.56718411E+03</pdfrwt>
<pdfrwt beam="2">  1       -2 0.23700857E-01 0.56718411E+03</pdfrwt>
<totfact> 0.10991572E+03</totfact>
</mgrwt>
</event>
<event>
 4    1  0.5387486E-005  0.5109970E+03  0.7818608E-02  0.1010948E+00
          2   -1    0    0  501    0  0.00000000000E+00  0.00000000000E+00  0.29398999398E+04  0.29398999398E+04  0.25500000000E-02 0. -1.
         -2   -1    0    0    0  501 -0.00000000000E+00 -0.00000000000E+00 -0.22204658929E+02  0.22204659076E+02  0.25500000000E-02 0.  1.
    5000001    1    1    2    0    0  0.81782789358E+02 -0.14958469666E+03  0.20084812145E+04  0.20224454987E+04  0.16500000000E+03 0.  0.
   -5000001    1    1    2    0    0 -0.81782789358E+02  0.14958469666E+03  0.90921406640E+03  0.93965910023E+03  0.16500000000E+03 0.  0.
<mgrwt>
<rscale>  0 0.51099697E+03</rscale>
<asrwt>0</asrwt>
<pdfrwt beam="1">  1        2 0.41998499E+00 0.51099697E+03</pdfrwt>
<pdfrwt beam="2">  1       -2 0.31720995E-02 0.51099697E+03</pdfrwt>
<totfact> 0.11307904E+03</totfact>
</mgrwt>
</event>
<event>
 4    1  0.5387486E-005  0.1198278E+04  0.7818608E-02  0.9114365E-01
          2   -1    0    0  501    0  0.00000000000E+00  0.00000000000E+00  0.15243920637E+04  0.15243920637E+04  0.25500000000E-02 0.  1.
         -2   -1    0    0    0  501 -0.00000000000E+00 -0.00000000000E+00 -0.23548245092E+03  0.23548245094E+03  0.25500000000E-02 0. -1.
    5000001    1    1    2    0    0  0.26262780159E+03 -0.34798231603E+03  0.11972631303E+04  0.12848070118E+04  0.16500000000E+03 0.  0.
   -5000001    1    1    2    0    0 -0.26262780159E+03  0.34798231603E+03  0.91646482411E+02  0.47506750276E+03  0.16500000000E+03 0.  0.
<mgrwt>
<rscale>  0 0.11982781E+04</rscale>
<asrwt>0</asrwt>
<pdfrwt beam="1">  1        2 0.21777029E+00 0.11982781E+04</pdfrwt>
<pdfrwt beam="2">  1       -2 0.33640350E-01 0.11982781E+04</pdfrwt>
<totfact> 0.11558444E+02</totfact>
</mgrwt>
</event>
<event>
 4    1  0.5387486E-005  0.4590549E+03  0.7818608E-02  0.1025056E+00
         -2   -1    0    0    0  501 -0.00000000000E+00  0.00000000000E+00  0.67929660141E+02  0.67929660189E+02  0.25500000000E-02 0. -1.
          2   -1    0    0  501    0  0.00000000000E+00 -0.00000000000E+00 -0.77555020039E+03  0.77555020040E+03  0.25500000000E-02 0.  1.
    5000001    1    1    2    0    0  0.14990466543E+03 -0.20795568613E+02 -0.44666846764E+03  0.49964145582E+03  0.16500000000E+03 0.  0.
   -5000001    1    1    2    0    0 -0.14990466543E+03  0.20795568613E+02 -0.26095207261E+03  0.34383840477E+03  0.16500000000E+03 0.  0.
<mgrwt>
<rscale>  0 0.45905495E+03</rscale>
<asrwt>0</asrwt>
<pdfrwt beam="1">  1        2 0.11079288E+00 0.45905495E+03</pdfrwt>
<pdfrwt beam="2">  1       -2 0.97042376E-02 0.45905495E+03</pdfrwt>
<totfact> 0.28373685E+03</totfact>
</mgrwt>
</event>
<event>
 4    1  0.5387486E-005  0.5732048E+03  0.7818608E-02  0.9962612E-01
         -2   -1    0    0    0  501 -0.00000000000E+00  0.00000000000E+00  0.75182468866E+02  0.75182468909E+02  0.25500000000E-02 0. -1.
          2   -1    0    0  501    0  0.00000000000E+00 -0.00000000000E+00 -0.10925544336E+04  0.10925544336E+04  0.25500000000E-02 0.  1.
    5000001    1    1    2    0    0 -0.81501498913E+02  0.16199399070E+03 -0.81106813068E+03  0.84731402677E+03  0.16500000000E+03 0.  0.
   -5000001    1    1    2    0    0  0.81501498913E+02 -0.16199399070E+03 -0.20630383402E+03  0.32042287572E+03  0.16500000000E+03 0.  0.
<mgrwt>
<rscale>  0 0.57320481E+03</rscale>
<asrwt>0</asrwt>
<pdfrwt beam="1">  1        2 0.15607920E+00 0.57320481E+03</pdfrwt>
<pdfrwt beam="2">  1       -2 0.10740353E-01 0.57320481E+03</pdfrwt>
<totfact> 0.15165167E+03</totfact>
</mgrwt>
</event>
<event>
 4    1  0.5387486E-005  0.6675749E+03  0.7818608E-02  0.9774349E-01
          2   -1    0    0  501    0  0.00000000000E+00  0.00000000000E+00  0.38211142370E+04  0.38211142370E+04  0.25500000000E-02 0.  1.
         -2   -1    0    0    0  501 -0.00000000000E+00 -0.00000000000E+00 -0.29157476455E+02  0.29157476566E+02  0.25500000000E-02 0. -1.
    5000001    1    1    2    0    0  0.11599029977E+03 -0.20781300316E+03  0.28532710990E+04  0.28679297338E+04  0.16500000000E+03 0.  0.
   -5000001    1    1    2    0    0 -0.11599029977E+03  0.20781300316E+03  0.93868566157E+03  0.98234197974E+03  0.16500000000E+03 0.  0.
<mgrwt>
<rscale>  0 0.66757486E+03</rscale>
<asrwt>0</asrwt>
<pdfrwt beam="1">  1        2 0.54587302E+00 0.66757486E+03</pdfrwt>
<pdfrwt beam="2">  1       -2 0.41653572E-02 0.66757486E+03</pdfrwt>
<totfact> 0.22465266E+02</totfact>
</mgrwt>
</event>
<event>
 4    1  0.5387486E-005  0.7929969E+03  0.7818608E-02  0.9570209E-01
          2   -1    0    0  501    0  0.00000000000E+00  0.00000000000E+00  0.10806744917E+04  0.10806744917E+04  0.25500000000E-02 0.  1.
         -2   -1    0    0    0  501 -0.00000000000E+00 -0.00000000000E+00 -0.14547491283E+03  0.14547491285E+03  0.25500000000E-02 0. -1.
    5000001    1    1    2    0    0 -0.12927380097E+03 -0.20199150476E+03  0.51342126796E+02  0.29558974542E+03  0.16500000000E+03 0.  0.
   -5000001    1    1    2    0    0  0.12927380097E+03  0.20199150476E+03  0.88385745205E+03  0.93055965910E+03  0.16500000000E+03 0.  0.
<mgrwt>
<rscale>  0 0.79299692E+03</rscale>
<asrwt>0</asrwt>
<pdfrwt beam="1">  1        2 0.15438208E+00 0.79299692E+03</pdfrwt>
<pdfrwt beam="2">  1       -2 0.20782129E-01 0.79299692E+03</pdfrwt>
<totfact> 0.50189407E+02</totfact>
</mgrwt>
</event>
<event>
 4    1  0.5387486E-005  0.5992760E+03  0.7818608E-02  0.9906909E-01
         -2   -1    0    0    0  501 -0.00000000000E+00  0.00000000000E+00  0.36285631949E+02  0.36285632039E+02  0.25500000000E-02 0. -1.
          2   -1    0    0  501    0  0.00000000000E+00 -0.00000000000E+00 -0.24743384758E+04  0.24743384758E+04  0.25500000000E-02 0.  1.
    5000001    1    1    2    0    0 -0.19400843617E+02 -0.24935201122E+03 -0.12095494837E+04  0.12461090529E+04  0.16500000000E+03 0.  0.
   -5000001    1    1    2    0    0  0.19400843617E+02  0.24935201122E+03 -0.12285033602E+04  0.12645150550E+04  0.16500000000E+03 0.  0.
<mgrwt>
<rscale>  0 0.59927601E+03</rscale>
<asrwt>0</asrwt>
<pdfrwt beam="1">  1        2 0.35347682E+00 0.59927601E+03</pdfrwt>
<pdfrwt beam="2">  1       -2 0.51836633E-02 0.59927601E+03</pdfrwt>
<totfact> 0.92563032E+02</totfact>
</mgrwt>
</event>
<event>
 4    1  0.5387486E-005  0.7132522E+03  0.7818608E-02  0.9694834E-01
          2   -1    0    0  501    0  0.00000000000E+00  0.00000000000E+00  0.97032311956E+03  0.97032311956E+03  0.25500000000E-02 0.  1.
         -2   -1    0    0    0  501 -0.00000000000E+00 -0.00000000000E+00 -0.13107197309E+03  0.13107197311E+03  0.25500000000E-02 0. -1.
    5000001    1    1    2    0    0  0.18089163365E+03 -0.23525319328E+03  0.58801508022E+03  0.67900852914E+03  0.16500000000E+03 0.  0.
   -5000001    1    1    2    0    0 -0.18089163365E+03  0.23525319328E+03  0.25123606625E+03  0.42238656354E+03  0.16500000000E+03 0.  0.
<mgrwt>
<rscale>  0 0.71325217E+03</rscale>
<asrwt>0</asrwt>
<pdfrwt beam="1">  1        2 0.13861759E+00 0.71325217E+03</pdfrwt>
<pdfrwt beam="2">  1       -2 0.18724567E-01 0.71325217E+03</pdfrwt>
<totfact> 0.70454527E+02</totfact>
</mgrwt>
</event>
<event>
 4    1  0.5387486E-005  0.4407736E+03  0.7818608E-02  0.1030510E+00
          2   -1    0    0  501    0  0.00000000000E+00  0.00000000000E+00  0.17522730467E+04  0.17522730467E+04  0.25500000000E-02 0.  1.
         -2   -1    0    0    0  501 -0.00000000000E+00 -0.00000000000E+00 -0.27718473128E+02  0.27718473245E+02  0.25500000000E-02 0. -1.
    5000001    1    1    2    0    0 -0.24608347879E+02 -0.11385608022E+03  0.50615755477E+03  0.54496719905E+03  0.16500000000E+03 0.  0.
   -5000001    1    1    2    0    0  0.24608347879E+02  0.11385608022E+03  0.12183970188E+04  0.12350243209E+04  0.16500000000E+03 0.  0.
<mgrwt>
<rscale>  0 0.44077356E+03</rscale>
<asrwt>0</asrwt>
<pdfrwt beam="1">  1        2 0.25032479E+00 0.44077356E+03</pdfrwt>
<pdfrwt beam="2">  1       -2 0.39597807E-02 0.44077356E+03</pdfrwt>
<totfact> 0.32537399E+03</totfact>
</mgrwt>
</event>
<event>
 4    1  0.5387486E-005  0.1258370E+04  0.7818608E-02  0.9063245E-01
          2   -1    0    0  501    0  0.00000000000E+00  0.00000000000E+00  0.69355217554E+03  0.69355217554E+03  0.25500000000E-02 0.  1.
         -2   -1    0    0    0  501 -0.00000000000E+00 -0.00000000000E+00 -0.57079180179E+03  0.57079180179E+03  0.25500000000E-02 0. -1.
    5000001    1    1    2    0    0 -0.26871381150E+03  0.46998628520E+03 -0.21479680008E+03  0.60535682543E+03  0.16500000000E+03 0.  0.
   -5000001    1    1    2    0    0  0.26871381150E+03 -0.46998628520E+03  0.33755717384E+03  0.65898715190E+03  0.16500000000E+03 0.  0.
<mgrwt>
<rscale>  0 0.12583702E+04</rscale>
<asrwt>0</asrwt>
<pdfrwt beam="1">  1        2 0.99078882E-01 0.12583702E+04</pdfrwt>
<pdfrwt beam="2">  1       -2 0.81541686E-01 0.12583702E+04</pdfrwt>
<totfact> 0.59340702E+01</totfact>
</mgrwt>
</event>
<event>
 4    1  0.5387486E-005  0.4243943E+03  0.7818608E-02  0.1035646E+00
         -2   -1    0    0    0  501 -0.00000000000E+00  0.00000000000E+00  0.64328928198E+02  0.64328928248E+02  0.25500000000E-02 0. -1.
          2   -1    0    0  501    0  0.00000000000E+00 -0.00000000000E+00 -0.69995936528E+03  0.69995936528E+03  0.25500000000E-02 0.  1.
    5000001    1    1    2    0    0 -0.42107960293E+02 -0.10003915534E+03 -0.17806643977E+03  0.26592023220E+03  0.16500000000E+03 0.  0.
   -5000001    1    1    2    0    0  0.42107960293E+02  0.10003915534E+03 -0.45756399731E+03  0.49836806133E+03  0.16500000000E+03 0.  0.
<mgrwt>
<rscale>  0 0.42439432E+03</rscale>
<asrwt>0</asrwt>
<pdfrwt beam="1">  1        2 0.99994190E-01 0.42439432E+03</pdfrwt>
<pdfrwt beam="2">  1       -2 0.91898473E-02 0.42439432E+03</pdfrwt>
<totfact> 0.35092090E+03</totfact>
</mgrwt>
</event>
<event>
 4    1  0.5387486E-005  0.8007564E+03  0.7818608E-02  0.9558923E-01
         -2   -1    0    0    0  501 -0.00000000000E+00  0.00000000000E+00  0.19749390197E+04  0.19749390197E+04  0.25500000000E-02 0. -1.
          2   -1    0    0  501    0  0.00000000000E+00 -0.00000000000E+00 -0.81168429113E+02  0.81168429153E+02  0.25500000000E-02 0.  1.
    5000001    1    1    2    0    0  0.34754853854E+03  0.10947698700E+03  0.90222634912E+03  0.98692075790E+03  0.16500000000E+03 0.  0.
   -5000001    1    1    2    0    0 -0.34754853854E+03 -0.10947698700E+03  0.99154424142E+03  0.10691866909E+04  0.16500000000E+03 0.  0.
<mgrwt>
<rscale>  0 0.80075639E+03</rscale>
<asrwt>0</asrwt>
<pdfrwt beam="1">  1        2 0.11595490E-01 0.80075639E+03</pdfrwt>
<pdfrwt beam="2">  1       -2 0.28213414E+00 0.80075639E+03</pdfrwt>
<totfact> 0.23245290E+01</totfact>
</mgrwt>
</event>
<event>
 4    1  0.5387486E-005  0.4260238E+03  0.7818608E-02  0.1035123E+00
         -2   -1    0    0    0  501 -0.00000000000E+00  0.00000000000E+00  0.14544927327E+03  0.14544927329E+03  0.25500000000E-02 0. -1.
          2   -1    0    0  501    0  0.00000000000E+00 -0.00000000000E+00 -0.31195805467E+03  0.31195805468E+03  0.25500000000E-02 0.  1.
    5000001    1    1    2    0    0 -0.12192598971E+03  0.91147088094E+01 -0.14399056781E+03  0.25081329411E+03  0.16500000000E+03 0.  0.
   -5000001    1    1    2    0    0  0.12192598971E+03 -0.91147088094E+01 -0.22518213593E+02  0.20659403386E+03  0.16500000000E+03 0.  0.
<mgrwt>
<rscale>  0 0.42602381E+03</rscale>
<asrwt>0</asrwt>
<pdfrwt beam="1">  1        2 0.44565436E-01 0.42602381E+03</pdfrwt>
<pdfrwt beam="2">  1       -2 0.20778468E-01 0.42602381E+03</pdfrwt>
<totfact> 0.22525502E+03</totfact>
</mgrwt>
</event>
<event>
 4    1  0.5387486E-005  0.5035067E+03  0.7818608E-02  0.1012868E+00
         -2   -1    0    0    0  501 -0.00000000000E+00  0.00000000000E+00  0.51645524637E+02  0.51645524700E+02  0.25500000000E-02 0. -1.
          2   -1    0    0  501    0  0.00000000000E+00 -0.00000000000E+00 -0.12272069491E+04  0.12272069491E+04  0.25500000000E-02 0.  1.
    5000001    1    1    2    0    0  0.92056781009E+02  0.10614862217E+03 -0.26238929814E+03  0.34031621280E+03  0.16500000000E+03 0.  0.
   -5000001    1    1    2    0    0 -0.92056781009E+02 -0.10614862217E+03 -0.91317212630E+03  0.93853626098E+03  0.16500000000E+03 0.  0.
<mgrwt>
<rscale>  0 0.50350669E+03</rscale>
<asrwt>0</asrwt>
<pdfrwt beam="1">  1        2 0.17531526E+00 0.50350669E+03</pdfrwt>
<pdfrwt beam="2">  1       -2 0.73779328E-02 0.50350669E+03</pdfrwt>
<totfact> 0.23250388E+03</totfact>
</mgrwt>
</event>
<event>
 4    1  0.5387486E-005  0.4994948E+03  0.7818608E-02  0.1013911E+00
         -2   -1    0    0    0  501 -0.00000000000E+00  0.00000000000E+00  0.75851014241E+02  0.75851014284E+02  0.25500000000E-02 0. -1.
          2   -1    0    0  501    0  0.00000000000E+00 -0.00000000000E+00 -0.82231935359E+03  0.82231935359E+03  0.25500000000E-02 0.  1.
    5000001    1    1    2    0    0 -0.15460437296E+03  0.10148627323E+03 -0.31790519859E+03  0.40310134096E+03  0.16500000000E+03 0.  0.
   -5000001    1    1    2    0    0  0.15460437296E+03 -0.10148627323E+03 -0.42856314076E+03  0.49506902691E+03  0.16500000000E+03 0.  0.
<mgrwt>
<rscale>  0 0.49949477E+03</rscale>
<asrwt>0</asrwt>
<pdfrwt beam="1">  1        2 0.11747419E+00 0.49949477E+03</pdfrwt>
<pdfrwt beam="2">  1       -2 0.10835860E-01 0.49949477E+03</pdfrwt>
<totfact> 0.22054100E+03</totfact>
</mgrwt>
</event>
<event>
 4    1  0.5387486E-005  0.5258110E+03  0.7818608E-02  0.1007253E+00
          2   -1    0    0  501    0  0.00000000000E+00  0.00000000000E+00  0.44791924510E+03  0.44791924511E+03  0.25500000000E-02 0.  1.
         -2   -1    0    0    0  501 -0.00000000000E+00 -0.00000000000E+00 -0.15431197950E+03  0.15431197952E+03  0.25500000000E-02 0. -1.
    5000001    1    1    2    0    0 -0.13003934440E+03  0.15738164740E+03  0.13000611692E+03  0.29292627821E+03  0.16500000000E+03 0.  0.
   -5000001    1    1    2    0    0  0.13003934440E+03 -0.15738164740E+03  0.16360114868E+03  0.30930494642E+03  0.16500000000E+03 0.  0.
<mgrwt>
<rscale>  0 0.52581101E+03</rscale>
<asrwt>0</asrwt>
<pdfrwt beam="1">  1        2 0.63988464E-01 0.52581101E+03</pdfrwt>
<pdfrwt beam="2">  1       -2 0.22044568E-01 0.52581101E+03</pdfrwt>
<totfact> 0.13657296E+03</totfact>
</mgrwt>
</event>
<event>
 4    1  0.5387486E-005  0.5953176E+03  0.7818608E-02  0.9915168E-01
         -2   -1    0    0    0  501 -0.00000000000E+00  0.00000000000E+00  0.33710590457E+02  0.33710590554E+02  0.25500000000E-02 0. -1.
          2   -1    0    0  501    0  0.00000000000E+00 -0.00000000000E+00 -0.26282770802E+04  0.26282770802E+04  0.25500000000E-02 0.  1.
    5000001    1    1    2    0    0 -0.12193264750E+03  0.14484826450E+03 -0.20117116749E+04  0.20273276630E+04  0.16500000000E+03 0.  0.
   -5000001    1    1    2    0    0  0.12193264750E+03 -0.14484826450E+03 -0.58285481485E+03  0.63466000776E+03  0.16500000000E+03 0.  0.
<mgrwt>
<rscale>  0 0.59531764E+03</rscale>
<asrwt>0</asrwt>
<pdfrwt beam="1">  1        2 0.37546802E+00 0.59531764E+03</pdfrwt>
<pdfrwt beam="2">  1       -2 0.48158003E-02 0.59531764E+03</pdfrwt>
<totfact> 0.86457831E+02</totfact>
</mgrwt>
</event>
<event>
 4    1  0.5387486E-005  0.4823375E+03  0.7818608E-02  0.1018495E+00
          2   -1    0    0  501    0  0.00000000000E+00  0.00000000000E+00  0.73866828398E+03  0.73866828399E+03  0.25500000000E-02 0.  1.
         -2   -1    0    0    0  501 -0.00000000000E+00 -0.00000000000E+00 -0.78739482100E+02  0.78739482142E+02  0.25500000000E-02 0. -1.
    5000001    1    1    2    0    0  0.15233636645E+03 -0.43336504252E+01  0.47878983506E+03  0.52885712175E+03  0.16500000000E+03 0.  0.
   -5000001    1    1    2    0    0 -0.15233636645E+03  0.43336504252E+01  0.18113896682E+03  0.28855064437E+03  0.16500000000E+03 0.  0.
<mgrwt>
<rscale>  0 0.48233747E+03</rscale>
<asrwt>0</asrwt>
<pdfrwt beam="1">  1        2 0.10552404E+00 0.48233747E+03</pdfrwt>
<pdfrwt beam="2">  1       -2 0.11248497E-01 0.48233747E+03</pdfrwt>
<totfact> 0.23746798E+03</totfact>
</mgrwt>
</event>
<event>
 4    1  0.5387486E-005  0.4701859E+03  0.7818608E-02  0.1021868E+00
         -2   -1    0    0    0  501 -0.00000000000E+00  0.00000000000E+00  0.45204933690E+02  0.45204933762E+02  0.25500000000E-02 0. -1.
          2   -1    0    0  501    0  0.00000000000E+00 -0.00000000000E+00 -0.12226255403E+04  0.12226255403E+04  0.25500000000E-02 0.  1.
    5000001    1    1    2    0    0 -0.13395422463E+03 -0.13192480172E+02 -0.32006629442E+03  0.38442841811E+03  0.16500000000E+03 0.  0.
   -5000001    1    1    2    0    0  0.13395422463E+03  0.13192480172E+02 -0.85735431218E+03  0.88340205594E+03  0.16500000000E+03 0.  0.
<mgrwt>
<rscale>  0 0.47018595E+03</rscale>
<asrwt>0</asrwt>
<pdfrwt beam="1">  1        2 0.17466077E+00 0.47018595E+03</pdfrwt>
<pdfrwt beam="2">  1       -2 0.64578485E-02 0.47018595E+03</pdfrwt>
<totfact> 0.28836236E+03</totfact>
</mgrwt>
</event>
<event>
 4    1  0.5387486E-005  0.4981337E+03  0.7818608E-02  0.1014267E+00
          2   -1    0    0  501    0  0.00000000000E+00  0.00000000000E+00  0.15299581942E+04  0.15299581942E+04  0.25500000000E-02 0.  1.
         -2   -1    0    0    0  501 -0.00000000000E+00 -0.00000000000E+00 -0.40546403380E+02  0.40546403461E+02  0.25500000000E-02 0. -1.
    5000001    1    1    2    0    0  0.16173798690E+03 -0.81210852961E+02  0.60178653804E+03  0.64971256445E+03  0.16500000000E+03 0.  0.
   -5000001    1    1    2    0    0 -0.16173798690E+03  0.81210852961E+02  0.88762525281E+03  0.92079203323E+03  0.16500000000E+03 0.  0.
<mgrwt>
<rscale>  0 0.49813373E+03</rscale>
<asrwt>0</asrwt>
<pdfrwt beam="1">  1        2 0.21856543E+00 0.49813373E+03</pdfrwt>
<pdfrwt beam="2">  1       -2 0.57923441E-02 0.49813373E+03</pdfrwt>
<totfact> 0.23462258E+03</totfact>
</mgrwt>
</event>
<event>
 4    1  0.5387486E-005  0.4179282E+03  0.7818608E-02  0.1037743E+00
          2   -1    0    0  501    0  0.00000000000E+00  0.00000000000E+00  0.17099441550E+04  0.17099441550E+04  0.25500000000E-02 0.  1.
         -2   -1    0    0    0  501 -0.00000000000E+00 -0.00000000000E+00 -0.25536500455E+02  0.25536500583E+02  0.25500000000E-02 0. -1.
    5000001    1    1    2    0    0  0.80486568319E+02  0.83545834320E+02  0.10690045532E+04  0.10878665951E+04  0.16500000000E+03 0.  0.
   -5000001    1    1    2    0    0 -0.80486568319E+02 -0.83545834320E+02  0.61540310139E+03  0.64761406047E+03  0.16500000000E+03 0.  0.
<mgrwt>
<rscale>  0 0.41792817E+03</rscale>
<asrwt>0</asrwt>
<pdfrwt beam="1">  1        2 0.24427776E+00 0.41792817E+03</pdfrwt>
<pdfrwt beam="2">  1       -2 0.36480711E-02 0.41792817E+03</pdfrwt>
<totfact> 0.38712641E+03</totfact>
</mgrwt>
</event>
<event>
 4    1  0.5387486E-005  0.4003177E+03  0.7818608E-02  0.1043670E+00
         -2   -1    0    0    0  501 -0.00000000000E+00  0.00000000000E+00  0.41280362515E+02  0.41280362594E+02  0.25500000000E-02 0. -1.
          2   -1    0    0  501    0  0.00000000000E+00 -0.00000000000E+00 -0.97052337574E+03  0.97052337574E+03  0.25500000000E-02 0.  1.
    5000001    1    1    2    0    0 -0.62769609279E+02 -0.66344494646E+02 -0.63411386683E+03  0.66156406487E+03  0.16500000000E+03 0.  0.
   -5000001    1    1    2    0    0  0.62769609279E+02  0.66344494646E+02 -0.29512914639E+03  0.35023967346E+03  0.16500000000E+03 0.  0.
<mgrwt>
<rscale>  0 0.40031766E+03</rscale>
<asrwt>0</asrwt>
<pdfrwt beam="1">  1        2 0.13864618E+00 0.40031766E+03</pdfrwt>
<pdfrwt beam="2">  1       -2 0.58971953E-02 0.40031766E+03</pdfrwt>
<totfact> 0.46382236E+03</totfact>
</mgrwt>
</event>
<event>
 4    1  0.5387486E-005  0.6619638E+03  0.7818608E-02  0.9784585E-01
          2   -1    0    0  501    0  0.00000000000E+00  0.00000000000E+00  0.31014502370E+03  0.31014502371E+03  0.25500000000E-02 0.  1.
         -2   -1    0    0    0  501 -0.00000000000E+00 -0.00000000000E+00 -0.35321873380E+03  0.35321873381E+03  0.25500000000E-02 0. -1.
    5000001    1    1    2    0    0 -0.10249274127E+03  0.19275048550E+03  0.16504637222E+03  0.31956660754E+03  0.16500000000E+03 0.  0.
   -5000001    1    1    2    0    0  0.10249274127E+03 -0.19275048550E+03 -0.20812008232E+03  0.34379714999E+03  0.16500000000E+03 0.  0.
<mgrwt>
<rscale>  0 0.66196384E+03</rscale>
<asrwt>0</asrwt>
<pdfrwt beam="1">  1        2 0.44306432E-01 0.66196384E+03</pdfrwt>
<pdfrwt beam="2">  1       -2 0.50459819E-01 0.66196384E+03</pdfrwt>
<totfact> 0.43034125E+02</totfact>
</mgrwt>
</event>
<event>
 4    1  0.5387486E-005  0.4922992E+03  0.7818608E-02  0.1015809E+00
         -2   -1    0    0    0  501 -0.00000000000E+00  0.00000000000E+00  0.19922162976E+02  0.19922163139E+02  0.25500000000E-02 0. -1.
          2   -1    0    0  501    0  0.00000000000E+00 -0.00000000000E+00 -0.30413181722E+04  0.30413181722E+04  0.25500000000E-02 0.  1.
    5000001    1    1    2    0    0  0.17309276431E+03 -0.55458744083E+02 -0.13981048630E+04  0.14194925098E+04  0.16500000000E+03 0.  0.
   -5000001    1    1    2    0    0 -0.17309276431E+03  0.55458744083E+02 -0.16232911462E+04  0.16417478255E+04  0.16500000000E+03 0.  0.
<mgrwt>
<rscale>  0 0.49229924E+03</rscale>
<asrwt>0</asrwt>
<pdfrwt beam="1">  1        2 0.43447373E+00 0.49229924E+03</pdfrwt>
<pdfrwt beam="2">  1       -2 0.28460252E-02 0.49229924E+03</pdfrwt>
<totfact> 0.11766080E+03</totfact>
</mgrwt>
</event>
<event>
 4    1  0.5387486E-005  0.4334013E+03  0.7818608E-02  0.1032791E+00
          2   -1    0    0  501    0  0.00000000000E+00  0.00000000000E+00  0.10551118621E+04  0.10551118621E+04  0.25500000000E-02 0.  1.
         -2   -1    0    0    0  501 -0.00000000000E+00 -0.00000000000E+00 -0.44506349419E+02  0.44506349492E+02  0.25500000000E-02 0. -1.
    5000001    1    1    2    0    0 -0.90400253967E+02  0.10620558725E+03  0.46267019655E+03  0.51062759763E+03  0.16500000000E+03 0.  0.
   -5000001    1    1    2    0    0  0.90400253967E+02 -0.10620558725E+03  0.54793531612E+03  0.58899061396E+03  0.16500000000E+03 0.  0.
<mgrwt>
<rscale>  0 0.43340133E+03</rscale>
<asrwt>0</asrwt>
<pdfrwt beam="1">  1        2 0.15073026E+00 0.43340133E+03</pdfrwt>
<pdfrwt beam="2">  1       -2 0.63580501E-02 0.43340133E+03</pdfrwt>
<totfact> 0.36762815E+03</totfact>
</mgrwt>
</event>
<event>
 4    1  0.5387486E-005  0.4403013E+03  0.7818608E-02  0.1030654E+00
         -2   -1    0    0    0  501 -0.00000000000E+00  0.00000000000E+00  0.55728818976E+02  0.55728819035E+02  0.25500000000E-02 0. -1.
          2   -1    0    0  501    0  0.00000000000E+00 -0.00000000000E+00 -0.86968128916E+03  0.86968128917E+03  0.25500000000E-02 0.  1.
    5000001    1    1    2    0    0  0.40000724995E+01  0.14331391881E+03 -0.46204214058E+03  0.51113874787E+03  0.16500000000E+03 0.  0.
   -5000001    1    1    2    0    0 -0.40000724995E+01 -0.14331391881E+03 -0.35191032960E+03  0.41427136033E+03  0.16500000000E+03 0.  0.
<mgrwt>
<rscale>  0 0.44030131E+03</rscale>
<asrwt>0</asrwt>
<pdfrwt beam="1">  1        2 0.12424018E+00 0.44030131E+03</pdfrwt>
<pdfrwt beam="2">  1       -2 0.79612604E-02 0.44030131E+03</pdfrwt>
<totfact> 0.33597424E+03</totfact>
</mgrwt>
</event>
<event>
 4    1  0.5387486E-005  0.3802537E+03  0.7818608E-02  0.1050840E+00
          2   -1    0    0  501    0  0.00000000000E+00  0.00000000000E+00  0.52399954500E+03  0.52399954501E+03  0.25500000000E-02 0.  1.
         -2   -1    0    0    0  501 -0.00000000000E+00 -0.00000000000E+00 -0.68985223364E+02  0.68985223411E+02  0.25500000000E-02 0. -1.
    5000001    1    1    2    0    0 -0.59150725322E+02  0.31775458749E+01  0.11275997777E+03  0.20844355996E+03  0.16500000000E+03 0.  0.
   -5000001    1    1    2    0    0  0.59150725322E+02 -0.31775458749E+01  0.34225434387E+03  0.38454120846E+03  0.16500000000E+03 0.  0.
<mgrwt>
<rscale>  0 0.38025373E+03</rscale>
<asrwt>0</asrwt>
<pdfrwt beam="1">  1        2 0.74857074E-01 0.38025373E+03</pdfrwt>
<pdfrwt beam="2">  1       -2 0.98550324E-02 0.38025373E+03</pdfrwt>
<totfact> 0.43875889E+03</totfact>
</mgrwt>
</event>
<event>
 4    1  0.5387486E-005  0.4749879E+03  0.7818608E-02  0.1020522E+00
          2   -1    0    0  501    0  0.00000000000E+00  0.00000000000E+00  0.81707154901E+03  0.81707154902E+03  0.25500000000E-02 0.  1.
         -2   -1    0    0    0  501 -0.00000000000E+00 -0.00000000000E+00 -0.69031137317E+02  0.69031137364E+02  0.25500000000E-02 0. -1.
    5000001    1    1    2    0    0  0.16478569290E+03 -0.18284127207E+02  0.29733492537E+03  0.37831427641E+03  0.16500000000E+03 0.  0.
   -5000001    1    1    2    0    0 -0.16478569290E+03  0.18284127207E+02  0.45070548633E+03  0.50778840997E+03  0.16500000000E+03 0.  0.
<mgrwt>
<rscale>  0 0.47498791E+03</rscale>
<asrwt>0</asrwt>
<pdfrwt beam="1">  1        2 0.11672450E+00 0.47498791E+03</pdfrwt>
<pdfrwt beam="2">  1       -2 0.98615915E-02 0.47498791E+03</pdfrwt>
<totfact> 0.25891176E+03</totfact>
</mgrwt>
</event>
<event>
 4    1  0.5387486E-005  0.4244150E+03  0.7818608E-02  0.1035639E+00
         -2   -1    0    0    0  501 -0.00000000000E+00  0.00000000000E+00  0.58497463898E+02  0.58497463953E+02  0.25500000000E-02 0. -1.
          2   -1    0    0  501    0  0.00000000000E+00 -0.00000000000E+00 -0.76981143251E+03  0.76981143252E+03  0.25500000000E-02 0.  1.
    5000001    1    1    2    0    0 -0.10218877339E+03  0.39698493581E+02 -0.50414270054E+03  0.54166722100E+03  0.16500000000E+03 0.  0.
   -5000001    1    1    2    0    0  0.10218877339E+03 -0.39698493581E+02 -0.20717126807E+03  0.28664167547E+03  0.16500000000E+03 0.  0.
<mgrwt>
<rscale>  0 0.42441497E+03</rscale>
<asrwt>0</asrwt>
<pdfrwt beam="1">  1        2 0.10997306E+00 0.42441497E+03</pdfrwt>
<pdfrwt beam="2">  1       -2 0.83567810E-02 0.42441497E+03</pdfrwt>
<totfact> 0.36327060E+03</totfact>
</mgrwt>
</event>
<event>
 4    1  0.5387486E-005  0.1240684E+04  0.7818608E-02  0.9077973E-01
          2   -1    0    0  501    0  0.00000000000E+00  0.00000000000E+00  0.23344237776E+04  0.23344237776E+04  0.25500000000E-02 0.  1.
         -2   -1    0    0    0  501 -0.00000000000E+00 -0.00000000000E+00 -0.16484751471E+03  0.16484751473E+03  0.25500000000E-02 0. -1.
    5000001    1    1    2    0    0 -0.53780391593E+03 -0.16199536625E+03  0.14982296632E+04  0.16085374333E+04  0.16500000000E+03 0.  0.
   -5000001    1    1    2    0    0  0.53780391593E+03  0.16199536625E+03  0.67134659969E+03  0.89073385901E+03  0.16500000000E+03 0.  0.
<mgrwt>
<rscale>  0 0.12406836E+04</rscale>
<asrwt>0</asrwt>
<pdfrwt beam="1">  1        2 0.33348909E+00 0.12406836E+04</pdfrwt>
<pdfrwt beam="2">  1       -2 0.23549646E-01 0.12406836E+04</pdfrwt>
<totfact> 0.84927192E+01</totfact>
</mgrwt>
</event>
<event>
 4    1  0.5387486E-005  0.7298212E+03  0.7818608E-02  0.9667551E-01
          2   -1    0    0  501    0  0.00000000000E+00  0.00000000000E+00  0.21594626448E+04  0.21594626448E+04  0.25500000000E-02 0.  1.
         -2   -1    0    0    0  501 -0.00000000000E+00 -0.00000000000E+00 -0.61663367347E+02  0.61663367400E+02  0.25500000000E-02 0. -1.
    5000001    1    1    2    0    0 -0.23507124714E+03  0.21096802329E+03  0.80986822500E+03  0.88480367311E+03  0.16500000000E+03 0.  0.
   -5000001    1    1    2    0    0  0.23507124714E+03 -0.21096802329E+03  0.12879310524E+04  0.13363223391E+04  0.16500000000E+03 0.  0.
<mgrwt>
<rscale>  0 0.72982118E+03</rscale>
<asrwt>0</asrwt>
<pdfrwt beam="1">  1        2 0.30849461E+00 0.72982118E+03</pdfrwt>
<pdfrwt beam="2">  1       -2 0.88090539E-02 0.72982118E+03</pdfrwt>
<totfact> 0.57349807E+02</totfact>
</mgrwt>
</event>
<event>
 4    1  0.5387486E-005  0.5602652E+03  0.7818608E-02  0.9991455E-01
          2   -1    0    0  501    0  0.00000000000E+00  0.00000000000E+00  0.17036673592E+04  0.17036673592E+04  0.25500000000E-02 0.  1.
         -2   -1    0    0    0  501 -0.00000000000E+00 -0.00000000000E+00 -0.46061968032E+02  0.46061968103E+02  0.25500000000E-02 0. -1.
    5000001    1    1    2    0    0 -0.22233685556E+03  0.34003262612E+02  0.90899682487E+03  0.95083654055E+03  0.16500000000E+03 0.  0.
   -5000001    1    1    2    0    0  0.22233685556E+03 -0.34003262612E+02  0.74860856632E+03  0.79889278679E+03  0.16500000000E+03 0.  0.
<mgrwt>
<rscale>  0 0.56026519E+03</rscale>
<asrwt>0</asrwt>
<pdfrwt beam="1">  1        2 0.24338099E+00 0.56026519E+03</pdfrwt>
<pdfrwt beam="2">  1       -2 0.65802828E-02 0.56026519E+03</pdfrwt>
<totfact> 0.15638611E+03</totfact>
</mgrwt>
</event>
<event>
 4    1  0.5387486E-005  0.6878132E+03  0.7818608E-02  0.9738303E-01
         -2   -1    0    0    0  501 -0.00000000000E+00  0.00000000000E+00  0.14350538516E+03  0.14350538518E+03  0.25500000000E-02 0. -1.
          2   -1    0    0  501    0  0.00000000000E+00 -0.00000000000E+00 -0.82416241979E+03  0.82416241980E+03  0.25500000000E-02 0.  1.
    5000001    1    1    2    0    0  0.19736464303E+03 -0.19290010507E+03 -0.51196445290E+03  0.60456253100E+03  0.16500000000E+03 0.  0.
   -5000001    1    1    2    0    0 -0.19736464303E+03  0.19290010507E+03 -0.16869258174E+03  0.36310527397E+03  0.16500000000E+03 0.  0.
<mgrwt>
<rscale>  0 0.68781319E+03</rscale>
<asrwt>0</asrwt>
<pdfrwt beam="1">  1        2 0.11773749E+00 0.68781319E+03</pdfrwt>
<pdfrwt beam="2">  1       -2 0.20500770E-01 0.68781319E+03</pdfrwt>
<totfact> 0.74961972E+02</totfact>
</mgrwt>
</event>
<event>
 4    1  0.5387486E-005  0.7220166E+03  0.7818608E-02  0.9680304E-01
         -2   -1    0    0    0  501 -0.00000000000E+00  0.00000000000E+00  0.29949525770E+03  0.29949525771E+03  0.25500000000E-02 0. -1.
          2   -1    0    0  501    0  0.00000000000E+00 -0.00000000000E+00 -0.43515541891E+03  0.43515541892E+03  0.25500000000E-02 0.  1.
    5000001    1    1    2    0    0 -0.27769479913E+03 -0.13649877147E+03  0.19435861411E+02  0.35121086086E+03  0.16500000000E+03 0.  0.
   -5000001    1    1    2    0    0  0.27769479913E+03  0.13649877147E+03 -0.15509602262E+03  0.38343981576E+03  0.16500000000E+03 0.  0.
<mgrwt>
<rscale>  0 0.72201658E+03</rscale>
<asrwt>0</asrwt>
<pdfrwt beam="1">  1        2 0.62165059E-01 0.72201658E+03</pdfrwt>
<pdfrwt beam="2">  1       -2 0.42785037E-01 0.72201658E+03</pdfrwt>
<totfact> 0.41015630E+02</totfact>
</mgrwt>
</event>
<event>
 4    1  0.5387486E-005  0.5388706E+03  0.7818608E-02  0.1004103E+00
         -2   -1    0    0    0  501 -0.00000000000E+00  0.00000000000E+00  0.86971403020E+02  0.86971403058E+02  0.25500000000E-02 0. -1.
          2   -1    0    0  501    0  0.00000000000E+00 -0.00000000000E+00 -0.83470396022E+03  0.83470396023E+03  0.25500000000E-02 0.  1.
    5000001    1    1    2    0    0 -0.21161678514E+03  0.18392373830E+02 -0.34679941831E+03  0.43887900349E+03  0.16500000000E+03 0.  0.
   -5000001    1    1    2    0    0  0.21161678514E+03 -0.18392373830E+02 -0.40093313889E+03  0.48279635979E+03  0.16500000000E+03 0.  0.
<mgrwt>
<rscale>  0 0.53887058E+03</rscale>
<asrwt>0</asrwt>
<pdfrwt beam="1">  1        2 0.11924342E+00 0.53887058E+03</pdfrwt>
<pdfrwt beam="2">  1       -2 0.12424487E-01 0.53887058E+03</pdfrwt>
<totfact> 0.17293830E+03</totfact>
</mgrwt>
</event>
<event>
 4    1  0.5387486E-005  0.5854839E+03  0.7818608E-02  0.9935988E-01
         -2   -1    0    0    0  501 -0.00000000000E+00  0.00000000000E+00  0.41832506814E+02  0.41832506891E+02  0.25500000000E-02 0. -1.
          2   -1    0    0  501    0  0.00000000000E+00 -0.00000000000E+00 -0.20485947894E+04  0.20485947894E+04  0.25500000000E-02 0.  1.
    5000001    1    1    2    0    0  0.21195778062E+03  0.48469076782E+01 -0.14185844736E+04  0.14437993289E+04  0.16500000000E+03 0.  0.
   -5000001    1    1    2    0    0 -0.21195778062E+03 -0.48469076782E+01 -0.58817780896E+03  0.64662796740E+03  0.16500000000E+03 0.  0.
<mgrwt>
<rscale>  0 0.58548392E+03</rscale>
<asrwt>0</asrwt>
<pdfrwt beam="1">  1        2 0.29265634E+00 0.58548392E+03</pdfrwt>
<pdfrwt beam="2">  1       -2 0.59760737E-02 0.58548392E+03</pdfrwt>
<totfact> 0.12182364E+03</totfact>
</mgrwt>
</event>
<event>
 4    1  0.5387486E-005  0.5586230E+03  0.7818608E-02  0.9995175E-01
         -2   -1    0    0    0  501 -0.00000000000E+00  0.00000000000E+00  0.98152362870E+02  0.98152362903E+02  0.25500000000E-02 0. -1.
          2   -1    0    0  501    0  0.00000000000E+00 -0.00000000000E+00 -0.79483477113E+03  0.79483477113E+03  0.25500000000E-02 0.  1.
    5000001    1    1    2    0    0  0.14484347845E+03  0.10466945182E+03 -0.12884102992E+03  0.27524595980E+03  0.16500000000E+03 0.  0.
   -5000001    1    1    2    0    0 -0.14484347845E+03 -0.10466945182E+03 -0.56784137833E+03  0.61774117423E+03  0.16500000000E+03 0.  0.
<mgrwt>
<rscale>  0 0.55862299E+03</rscale>
<asrwt>0</asrwt>
<pdfrwt beam="1">  1        2 0.11354782E+00 0.55862299E+03</pdfrwt>
<pdfrwt beam="2">  1       -2 0.14021767E-01 0.55862299E+03</pdfrwt>
<totfact> 0.15065104E+03</totfact>
</mgrwt>
</event>
<event>
 4    1  0.5387486E-005  0.4369943E+03  0.7818608E-02  0.1031673E+00
         -2   -1    0    0    0  501 -0.00000000000E+00  0.00000000000E+00  0.35119989929E+02  0.35119990021E+02  0.25500000000E-02 0. -1.
          2   -1    0    0  501    0  0.00000000000E+00 -0.00000000000E+00 -0.13593683966E+04  0.13593683966E+04  0.25500000000E-02 0.  1.
    5000001    1    1    2    0    0  0.91138211532E+02 -0.69830802130E+02 -0.38885261554E+03  0.43773721699E+03  0.16500000000E+03 0.  0.
   -5000001    1    1    2    0    0 -0.91138211532E+02  0.69830802130E+02 -0.93539579114E+03  0.95675116964E+03  0.16500000000E+03 0.  0.
<mgrwt>
<rscale>  0 0.43699430E+03</rscale>
<asrwt>0</asrwt>
<pdfrwt beam="1">  1        2 0.19419545E+00 0.43699430E+03</pdfrwt>
<pdfrwt beam="2">  1       -2 0.50171423E-02 0.43699430E+03</pdfrwt>
<totfact> 0.35991823E+03</totfact>
</mgrwt>
</event>
<event>
 4    1  0.5387486E-005  0.5791961E+03  0.7818608E-02  0.9949533E-01
          2   -1    0    0  501    0  0.00000000000E+00  0.00000000000E+00  0.12494654330E+04  0.12494654330E+04  0.25500000000E-02 0.  1.
         -2   -1    0    0    0  501 -0.00000000000E+00 -0.00000000000E+00 -0.67122331783E+02  0.67122331832E+02  0.25500000000E-02 0. -1.
    5000001    1    1    2    0    0 -0.21001810686E+03  0.93035236998E+02  0.44959968662E+03  0.53115726366E+03  0.16500000000E+03 0.  0.
   -5000001    1    1    2    0    0  0.21001810686E+03 -0.93035236998E+02  0.73274341455E+03  0.78543050112E+03  0.16500000000E+03 0.  0.
<mgrwt>
<rscale>  0 0.57919611E+03</rscale>
<asrwt>0</asrwt>
<pdfrwt beam="1">  1        2 0.17849505E+00 0.57919611E+03</pdfrwt>
<pdfrwt beam="2">  1       -2 0.95889053E-02 0.57919611E+03</pdfrwt>
<totfact> 0.14854959E+03</totfact>
</mgrwt>
</event>
<event>
 4    1  0.5387486E-005  0.3398798E+03  0.7818608E-02  0.1066847E+00
         -2   -1    0    0    0  501 -0.00000000000E+00  0.00000000000E+00  0.58736001181E+02  0.58736001237E+02  0.25500000000E-02 0. -1.
          2   -1    0    0  501    0  0.00000000000E+00 -0.00000000000E+00 -0.49168418666E+03  0.49168418667E+03  0.25500000000E-02 0.  1.
    5000001    1    1    2    0    0  0.28385933773E+02 -0.18957385776E+02 -0.25230102185E+03  0.30339075355E+03  0.16500000000E+03 0.  0.
   -5000001    1    1    2    0    0 -0.28385933773E+02  0.18957385776E+02 -0.18064716364E+03  0.24702943436E+03  0.16500000000E+03 0.  0.
<mgrwt>
<rscale>  0 0.33987976E+03</rscale>
<asrwt>0</asrwt>
<pdfrwt beam="1">  1        2 0.70240595E-01 0.33987976E+03</pdfrwt>
<pdfrwt beam="2">  1       -2 0.83908576E-02 0.33987976E+03</pdfrwt>
<totfact> 0.60671792E+03</totfact>
</mgrwt>
</event>
<event>
 4    1  0.5387486E-005  0.4406106E+03  0.7818608E-02  0.1030560E+00
          2   -1    0    0  501    0  0.00000000000E+00  0.00000000000E+00  0.18489044850E+04  0.18489044850E+04  0.25500000000E-02 0.  1.
         -2   -1    0    0    0  501 -0.00000000000E+00 -0.00000000000E+00 -0.26250373074E+02  0.26250373198E+02  0.25500000000E-02 0. -1.
    5000001    1    1    2    0    0  0.77762433498E+02 -0.11455042911E+03  0.11082306090E+04  0.11289680596E+04  0.16500000000E+03 0.  0.
   -5000001    1    1    2    0    0 -0.77762433498E+02  0.11455042911E+03  0.71442350295E+03  0.74618679863E+03  0.16500000000E+03 0.  0.
<mgrwt>
<rscale>  0 0.44061063E+03</rscale>
<asrwt>0</asrwt>
<pdfrwt beam="1">  1        2 0.26412929E+00 0.44061063E+03</pdfrwt>
<pdfrwt beam="2">  1       -2 0.37500521E-02 0.44061063E+03</pdfrwt>
<totfact> 0.31630820E+03</totfact>
</mgrwt>
</event>
<event>
 4    1  0.5387486E-005  0.7219955E+03  0.7818608E-02  0.9680339E-01
         -2   -1    0    0    0  501 -0.00000000000E+00  0.00000000000E+00  0.54705835856E+02  0.54705835915E+02  0.25500000000E-02 0. -1.
          2   -1    0    0  501    0  0.00000000000E+00 -0.00000000000E+00 -0.23821841936E+04  0.23821841936E+04  0.25500000000E-02 0.  1.
    5000001    1    1    2    0    0 -0.32007888235E+03 -0.15568267116E+02 -0.10961071070E+04  0.11538494928E+04  0.16500000000E+03 0.  0.
   -5000001    1    1    2    0    0  0.32007888235E+03  0.15568267116E+02 -0.12313712507E+04  0.12830405368E+04  0.16500000000E+03 0.  0.
<mgrwt>
<rscale>  0 0.72199551E+03</rscale>
<asrwt>0</asrwt>
<pdfrwt beam="1">  1        2 0.34031196E+00 0.72199551E+03</pdfrwt>
<pdfrwt beam="2">  1       -2 0.78151209E-02 0.72199551E+03</pdfrwt>
<totfact> 0.53565237E+02</totfact>
</mgrwt>
</event>
<event>
 4    1  0.5387486E-005  0.6235550E+03  0.7818608E-02  0.9857707E-01
         -2   -1    0    0    0  501 -0.00000000000E+00  0.00000000000E+00  0.60353983305E+03  0.60353983306E+03  0.25500000000E-02 0. -1.
          2   -1    0    0  501    0  0.00000000000E+00 -0.00000000000E+00 -0.16105845717E+03  0.16105845719E+03  0.25500000000E-02 0.  1.
    5000001    1    1    2    0    0  0.25974621793E+03  0.13557221979E+02  0.16207391168E+03  0.34805868592E+03  0.16500000000E+03 0.  0.
   -5000001    1    1    2    0    0 -0.25974621793E+03 -0.13557221979E+02  0.28040746420E+03  0.41653960433E+03  0.16500000000E+03 0.  0.
<mgrwt>
<rscale>  0 0.62355495E+03</rscale>
<asrwt>0</asrwt>
<pdfrwt beam="1">  1        2 0.23008351E-01 0.62355495E+03</pdfrwt>
<pdfrwt beam="2">  1       -2 0.86219975E-01 0.62355495E+03</pdfrwt>
<totfact> 0.28432403E+02</totfact>
</mgrwt>
</event>
<event>
 4    1  0.5387486E-005  0.4239015E+03  0.7818608E-02  0.1035804E+00
          2   -1    0    0  501    0  0.00000000000E+00  0.00000000000E+00  0.13073112949E+04  0.13073112949E+04  0.25500000000E-02 0.  1.
         -2   -1    0    0    0  501 -0.00000000000E+00 -0.00000000000E+00 -0.34362984906E+02  0.34362985000E+02  0.25500000000E-02 0. -1.
    5000001    1    1    2    0    0 -0.89525010607E+02 -0.92750685557E+02  0.53242586177E+03  0.57211862011E+03  0.16500000000E+03 0.  0.
   -5000001    1    1    2    0    0  0.89525010607E+02  0.92750685557E+02  0.74052244825E+03  0.76955565982E+03  0.16500000000E+03 0.  0.
<mgrwt>
<rscale>  0 0.42390149E+03</rscale>
<asrwt>0</asrwt>
<pdfrwt beam="1">  1        2 0.18675876E+00 0.42390149E+03</pdfrwt>
<pdfrwt beam="2">  1       -2 0.49089976E-02 0.42390149E+03</pdfrwt>
<totfact> 0.39668300E+03</totfact>
</mgrwt>
</event>
<event>
 4    1  0.5387486E-005  0.4752686E+03  0.7818608E-02  0.1020444E+00
         -2   -1    0    0    0  501 -0.00000000000E+00  0.00000000000E+00  0.11983450220E+03  0.11983450222E+03  0.25500000000E-02 0. -1.
          2   -1    0    0  501    0  0.00000000000E+00 -0.00000000000E+00 -0.47123365183E+03  0.47123365183E+03  0.25500000000E-02 0.  1.
    5000001    1    1    2    0    0 -0.16950106926E+03 -0.84802097727E+01 -0.20186132085E+03  0.31108763925E+03  0.16500000000E+03 0.  0.
   -5000001    1    1    2    0    0  0.16950106926E+03  0.84802097727E+01 -0.14953782878E+03  0.27998051481E+03  0.16500000000E+03 0.  0.
<mgrwt>
<rscale>  0 0.47526856E+03</rscale>
<asrwt>0</asrwt>
<pdfrwt beam="1">  1        2 0.67319092E-01 0.47526856E+03</pdfrwt>
<pdfrwt beam="2">  1       -2 0.17119215E-01 0.47526856E+03</pdfrwt>
<totfact> 0.19969820E+03</totfact>
</mgrwt>
</event>
<event>
 4    1  0.5387486E-005  0.4600564E+03  0.7818608E-02  0.1024765E+00
         -2   -1    0    0    0  501 -0.00000000000E+00  0.00000000000E+00  0.40829394164E+03  0.40829394165E+03  0.25500000000E-02 0. -1.
          2   -1    0    0  501    0  0.00000000000E+00 -0.00000000000E+00 -0.12959528681E+03  0.12959528684E+03  0.25500000000E-02 0.  1.
    5000001    1    1    2    0    0 -0.10392634208E+03  0.12045289154E+03  0.16209243373E+03  0.28072858908E+03  0.16500000000E+03 0.  0.
   -5000001    1    1    2    0    0  0.10392634208E+03 -0.12045289154E+03  0.11660622110E+03  0.25716063940E+03  0.16500000000E+03 0.  0.
<mgrwt>
<rscale>  0 0.46005639E+03</rscale>
<asrwt>0</asrwt>
<pdfrwt beam="1">  1        2 0.18513612E-01 0.46005639E+03</pdfrwt>
<pdfrwt beam="2">  1       -2 0.58327706E-01 0.46005639E+03</pdfrwt>
<totfact> 0.85874400E+02</totfact>
</mgrwt>
</event>
<event>
 4    1  0.5387486E-005  0.7249122E+03  0.7818608E-02  0.9675553E-01
          2   -1    0    0  501    0  0.00000000000E+00  0.00000000000E+00  0.61312492879E+03  0.61312492879E+03  0.25500000000E-02 0.  1.
         -2   -1    0    0    0  501 -0.00000000000E+00 -0.00000000000E+00 -0.21427025606E+03  0.21427025607E+03  0.25500000000E-02 0. -1.
    5000001    1    1    2    0    0  0.11186537623E+02 -0.32251454837E+03  0.19606794482E+03  0.41207816191E+03  0.16500000000E+03 0.  0.
   -5000001    1    1    2    0    0 -0.11186537623E+02  0.32251454837E+03  0.20278672791E+03  0.41531702295E+03  0.16500000000E+03 0.  0.
<mgrwt>
<rscale>  0 0.72491223E+03</rscale>
<asrwt>0</asrwt>
<pdfrwt beam="1">  1        2 0.87589276E-01 0.72491223E+03</pdfrwt>
<pdfrwt beam="2">  1       -2 0.30610036E-01 0.72491223E+03</pdfrwt>
<totfact> 0.52432523E+02</totfact>
</mgrwt>
</event>
<event>
 4    1  0.5387486E-005  0.4373805E+03  0.7818608E-02  0.1031554E+00
          2   -1    0    0  501    0  0.00000000000E+00  0.00000000000E+00  0.41459615842E+03  0.41459615843E+03  0.25500000000E-02 0. -1.
         -2   -1    0    0    0  501 -0.00000000000E+00 -0.00000000000E+00 -0.11535421765E+03  0.11535421768E+03  0.25500000000E-02 0.  1.
    5000001    1    1    2    0    0  0.70143301710E+02 -0.25118006551E+01  0.30131415926E+03  0.35063031028E+03  0.16500000000E+03 0.  0.
   -5000001    1    1    2    0    0 -0.70143301710E+02  0.25118006551E+01 -0.20722184900E+01  0.17932006582E+03  0.16500000000E+03 0.  0.
<mgrwt>
<rscale>  0 0.43738045E+03</rscale>
<asrwt>0</asrwt>
<pdfrwt beam="1">  1        2 0.59228024E-01 0.43738045E+03</pdfrwt>
<pdfrwt beam="2">  1       -2 0.16479174E-01 0.43738045E+03</pdfrwt>
<totfact> 0.24537214E+03</totfact>
</mgrwt>
</event>
<event>
 4    1  0.5387486E-005  0.4891477E+03  0.7818608E-02  0.1016651E+00
         -2   -1    0    0    0  501 -0.00000000000E+00  0.00000000000E+00  0.50858696391E+02  0.50858696455E+02  0.25500000000E-02 0. -1.
          2   -1    0    0  501    0  0.00000000000E+00 -0.00000000000E+00 -0.11761284069E+04  0.11761284069E+04  0.25500000000E-02 0.  1.
    5000001    1    1    2    0    0 -0.61400389013E+02 -0.16958055148E+03 -0.58266868813E+03  0.63186657716E+03  0.16500000000E+03 0.  0.
   -5000001    1    1    2    0    0  0.61400389013E+02  0.16958055148E+03 -0.54260102240E+03  0.59512052622E+03  0.16500000000E+03 0.  0.
<mgrwt>
<rscale>  0 0.48914766E+03</rscale>
<asrwt>0</asrwt>
<pdfrwt beam="1">  1        2 0.16801833E+00 0.48914766E+03</pdfrwt>
<pdfrwt beam="2">  1       -2 0.72655288E-02 0.48914766E+03</pdfrwt>
<totfact> 0.25433625E+03</totfact>
</mgrwt>
</event>
<event>
 4    1  0.5387486E-005  0.5462130E+03  0.7818608E-02  0.1002374E+00
         -2   -1    0    0    0  501 -0.00000000000E+00  0.00000000000E+00  0.10284282655E+04  0.10284282655E+04  0.25500000000E-02 0. -1.
          2   -1    0    0  501    0  0.00000000000E+00 -0.00000000000E+00 -0.72525381464E+02  0.72525381509E+02  0.25500000000E-02 0.  1.
    5000001    1    1    2    0    0 -0.17046854438E+03  0.13321546804E+03  0.43041260268E+03  0.50920123143E+03  0.16500000000E+03 0.  0.
   -5000001    1    1    2    0    0  0.17046854438E+03 -0.13321546804E+03  0.52549028139E+03  0.59175241561E+03  0.16500000000E+03 0.  0.
<mgrwt>
<rscale>  0 0.54621297E+03</rscale>
<asrwt>0</asrwt>
<pdfrwt beam="1">  1        2 0.10360770E-01 0.54621297E+03</pdfrwt>
<pdfrwt beam="2">  1       -2 0.14691830E+00 0.54621297E+03</pdfrwt>
<totfact> 0.20444030E+02</totfact>
</mgrwt>
</event>
<event>
 4    1  0.5387486E-005  0.6349359E+03  0.7818608E-02  0.9835464E-01
          2   -1    0    0  501    0  0.00000000000E+00  0.00000000000E+00  0.17201814420E+04  0.17201814420E+04  0.25500000000E-02 0.  1.
         -2   -1    0    0    0  501 -0.00000000000E+00 -0.00000000000E+00 -0.58590277035E+02  0.58590277090E+02  0.25500000000E-02 0. -1.
    5000001    1    1    2    0    0 -0.26281610907E+03  0.63246630101E+02  0.89271210289E+03  0.94722349108E+03  0.16500000000E+03 0.  0.
   -5000001    1    1    2    0    0  0.26281610907E+03 -0.63246630101E+02  0.76887906205E+03  0.83154822799E+03  0.16500000000E+03 0.  0.
<mgrwt>
<rscale>  0 0.63493593E+03</rscale>
<asrwt>0</asrwt>
<pdfrwt beam="1">  1        2 0.24574023E+00 0.63493593E+03</pdfrwt>
<pdfrwt beam="2">  1       -2 0.83700387E-02 0.63493593E+03</pdfrwt>
<totfact> 0.10439874E+03</totfact>
</mgrwt>
</event>
<event>
 4    1  0.5387486E-005  0.4618119E+03  0.7818608E-02  0.1024257E+00
          2   -1    0    0  501    0  0.00000000000E+00  0.00000000000E+00  0.91281362367E+02  0.91281362403E+02  0.25500000000E-02 0.  1.
         -2   -1    0    0    0  501 -0.00000000000E+00 -0.00000000000E+00 -0.58410131626E+03  0.58410131626E+03  0.25500000000E-02 0. -1.
    5000001    1    1    2    0    0  0.10269594310E+03  0.11215196605E+03 -0.32608458198E+03  0.39582909800E+03  0.16500000000E+03 0.  0.
   -5000001    1    1    2    0    0 -0.10269594310E+03 -0.11215196605E+03 -0.16673537191E+03  0.27955358067E+03  0.16500000000E+03 0.  0.
<mgrwt>
<rscale>  0 0.46181193E+03</rscale>
<asrwt>0</asrwt>
<pdfrwt beam="1">  1        2 0.13040195E-01 0.46181193E+03</pdfrwt>
<pdfrwt beam="2">  1       -2 0.83443043E-01 0.46181193E+03</pdfrwt>
<totfact> 0.60258011E+02</totfact>
</mgrwt>
</event>
<event>
 4    1  0.5387486E-005  0.3593028E+03  0.7818608E-02  0.1058860E+00
         -2   -1    0    0    0  501 -0.00000000000E+00  0.00000000000E+00  0.56496226362E+02  0.56496226419E+02  0.25500000000E-02 0. -1.
          2   -1    0    0  501    0  0.00000000000E+00 -0.00000000000E+00 -0.57127039745E+03  0.57127039746E+03  0.25500000000E-02 0.  1.
    5000001    1    1    2    0    0 -0.41075749169E+01  0.69950364049E+02 -0.27803754868E+03  0.33081687393E+03  0.16500000000E+03 0.  0.
   -5000001    1    1    2    0    0  0.41075749169E+01 -0.69950364049E+02 -0.23673662241E+03  0.29694974995E+03  0.16500000000E+03 0.  0.
<mgrwt>
<rscale>  0 0.35930278E+03</rscale>
<asrwt>0</asrwt>
<pdfrwt beam="1">  1        2 0.81610053E-01 0.35930278E+03</pdfrwt>
<pdfrwt beam="2">  1       -2 0.80708898E-02 0.35930278E+03</pdfrwt>
<totfact> 0.54547688E+03</totfact>
</mgrwt>
</event>
<event>
 4    1  0.5387486E-005  0.4063733E+03  0.7818608E-02  0.1041595E+00
          2   -1    0    0  501    0  0.00000000000E+00  0.00000000000E+00  0.19446654748E+04  0.19446654748E+04  0.25500000000E-02 0.  1.
         -2   -1    0    0    0  501 -0.00000000000E+00 -0.00000000000E+00 -0.21229773758E+02  0.21229773911E+02  0.25500000000E-02 0. -1.
    5000001    1    1    2    0    0  0.11779301366E+03 -0.86713640517E+00  0.89612122514E+03  0.91876775963E+03  0.16500000000E+03 0.  0.
   -5000001    1    1    2    0    0 -0.11779301366E+03  0.86713640517E+00  0.10273144759E+04  0.10471274891E+04  0.16500000000E+03 0.  0.
<mgrwt>
<rscale>  0 0.40637327E+03</rscale>
<asrwt>0</asrwt>
<pdfrwt beam="1">  1        2 0.27780923E+00 0.40637327E+03</pdfrwt>
<pdfrwt beam="2">  1       -2 0.30328262E-02 0.40637327E+03</pdfrwt>
<totfact> 0.39115357E+03</totfact>
</mgrwt>
</event>
<event>
 4    1  0.5387486E-005  0.5628229E+03  0.7818608E-02  0.9985687E-01
          2   -1    0    0  501    0  0.00000000000E+00  0.00000000000E+00  0.80958517576E+03  0.80958517576E+03  0.25500000000E-02 0.  1.
         -2   -1    0    0    0  501 -0.00000000000E+00 -0.00000000000E+00 -0.97818512944E+02  0.97818512978E+02  0.25500000000E-02 0. -1.
    5000001    1    1    2    0    0  0.22764005012E+03  0.78797171099E+01  0.34098992638E+03  0.44201947045E+03  0.16500000000E+03 0.  0.
   -5000001    1    1    2    0    0 -0.22764005012E+03 -0.78797171099E+01  0.37077673643E+03  0.46538421829E+03  0.16500000000E+03 0.  0.
<mgrwt>
<rscale>  0 0.56282295E+03</rscale>
<asrwt>0</asrwt>
<pdfrwt beam="1">  1        2 0.11565503E+00 0.56282295E+03</pdfrwt>
<pdfrwt beam="2">  1       -2 0.13974073E-01 0.56282295E+03</pdfrwt>
<totfact> 0.14799174E+03</totfact>
</mgrwt>
</event>
<event>
 4    1  0.5387486E-005  0.6859020E+03  0.7818608E-02  0.9741650E-01
          2   -1    0    0  501    0  0.00000000000E+00  0.00000000000E+00  0.50379200883E+03  0.50379200884E+03  0.25500000000E-02 0.  1.
         -2   -1    0    0    0  501 -0.00000000000E+00 -0.00000000000E+00 -0.23346022419E+03  0.23346022420E+03  0.25500000000E-02 0. -1.
    5000001    1    1    2    0    0 -0.79301115805E+02 -0.25581158548E+03 -0.11670931458E+02  0.31478475959E+03  0.16500000000E+03 0.  0.
   -5000001    1    1    2    0    0  0.79301115805E+02  0.25581158548E+03  0.28200271610E+03  0.42246747345E+03  0.16500000000E+03 0.  0.
<mgrwt>
<rscale>  0 0.68590202E+03</rscale>
<asrwt>0</asrwt>
<pdfrwt beam="1">  1        2 0.71970285E-01 0.68590202E+03</pdfrwt>
<pdfrwt beam="2">  1       -2 0.33351461E-01 0.68590202E+03</pdfrwt>
<totfact> 0.56193097E+02</totfact>
</mgrwt>
</event>
<event>
 4    1  0.5387486E-005  0.6132935E+03  0.7818608E-02  0.9878204E-01
          2   -1    0    0  501    0  0.00000000000E+00  0.00000000000E+00  0.11971458524E+04  0.11971458524E+04  0.25500000000E-02 0.  1.
         -2   -1    0    0    0  501 -0.00000000000E+00 -0.00000000000E+00 -0.78547012342E+02  0.78547012384E+02  0.25500000000E-02 0. -1.
    5000001    1    1    2    0    0  0.18151745265E+03 -0.96039702782E+02  0.23282119405E+03  0.35157206733E+03  0.16500000000E+03 0.  0.
   -5000001    1    1    2    0    0 -0.18151745265E+03  0.96039702782E+02  0.88577764605E+03  0.92412079750E+03  0.16500000000E+03 0.  0.
<mgrwt>
<rscale>  0 0.61329350E+03</rscale>
<asrwt>0</asrwt>
<pdfrwt beam="1">  1        2 0.17102082E+00 0.61329350E+03</pdfrwt>
<pdfrwt beam="2">  1       -2 0.11221003E-01 0.61329350E+03</pdfrwt>
<totfact> 0.12291624E+03</totfact>
</mgrwt>
</event>
<event>
 4    1  0.5387486E-005  0.3549557E+03  0.7818608E-02  0.1060599E+00
          2   -1    0    0  501    0  0.00000000000E+00  0.00000000000E+00  0.52562439688E+03  0.52562439689E+03  0.25500000000E-02 0.  1.
         -2   -1    0    0    0  501 -0.00000000000E+00 -0.00000000000E+00 -0.59925664341E+02  0.59925664396E+02  0.25500000000E-02 0. -1.
    5000001    1    1    2    0    0 -0.13308001747E+02  0.61465183086E+02  0.26228148364E+03  0.31618293487E+03  0.16500000000E+03 0.  0.
   -5000001    1    1    2    0    0  0.13308001747E+02 -0.61465183086E+02  0.20341724890E+03  0.26936712641E+03  0.16500000000E+03 0.  0.
<mgrwt>
<rscale>  0 0.35495572E+03</rscale>
<asrwt>0</asrwt>
<pdfrwt beam="1">  1        2 0.75089199E-01 0.35495572E+03</pdfrwt>
<pdfrwt beam="2">  1       -2 0.85608092E-02 0.35495572E+03</pdfrwt>
<totfact> 0.54612401E+03</totfact>
</mgrwt>
</event>
<event>
 4    1  0.5387486E-005  0.6250953E+03  0.7818608E-02  0.9854667E-01
          2   -1    0    0  501    0  0.00000000000E+00  0.00000000000E+00  0.55681315127E+03  0.55681315127E+03  0.25500000000E-02 0.  1.
         -2   -1    0    0    0  501 -0.00000000000E+00 -0.00000000000E+00 -0.17543769989E+03  0.17543769991E+03  0.25500000000E-02 0. -1.
    5000001    1    1    2    0    0 -0.25420196042E+03 -0.29017411951E+02  0.10785254435E+03  0.32298269025E+03  0.16500000000E+03 0.  0.
   -5000001    1    1    2    0    0  0.25420196042E+03  0.29017411951E+02  0.27352290703E+03  0.40926816093E+03  0.16500000000E+03 0.  0.
<mgrwt>
<rscale>  0 0.62509525E+03</rscale>
<asrwt>0</asrwt>
<pdfrwt beam="1">  1        2 0.79544736E-01 0.62509525E+03</pdfrwt>
<pdfrwt beam="2">  1       -2 0.25062529E-01 0.62509525E+03</pdfrwt>
<totfact> 0.84811973E+02</totfact>
</mgrwt>
</event>
<event>
 4    1  0.5387486E-005  0.3857155E+03  0.7818608E-02  0.1048841E+00
          2   -1    0    0  501    0  0.00000000000E+00  0.00000000000E+00  0.15843765495E+04  0.15843765495E+04  0.25500000000E-02 0. -1.
         -2   -1    0    0    0  501 -0.00000000000E+00 -0.00000000000E+00 -0.23475551730E+02  0.23475551869E+02  0.25500000000E-02 0.  1.
    5000001    1    1    2    0    0  0.87715654812E+02  0.43633443735E+02  0.70013800271E+03  0.72595877042E+03  0.16500000000E+03 0.  0.
   -5000001    1    1    2    0    0 -0.87715654812E+02 -0.43633443735E+02  0.86076299505E+03  0.88189333094E+03  0.16500000000E+03 0.  0.
<mgrwt>
<rscale>  0 0.38571551E+03</rscale>
<asrwt>0</asrwt>
<pdfrwt beam="1">  1        2 0.22633954E+00 0.38571551E+03</pdfrwt>
<pdfrwt beam="2">  1       -2 0.33536498E-02 0.38571551E+03</pdfrwt>
<totfact> 0.50856733E+03</totfact>
</mgrwt>
</event>
<event>
 4    1  0.5387486E-005  0.7464464E+03  0.7818608E-02  0.9640942E-01
          2   -1    0    0  501    0  0.00000000000E+00  0.00000000000E+00  0.77829865142E+03  0.77829865143E+03  0.25500000000E-02 0.  1.
         -2   -1    0    0    0  501 -0.00000000000E+00 -0.00000000000E+00 -0.17897444387E+03  0.17897444388E+03  0.25500000000E-02 0. -1.
    5000001    1    1    2    0    0 -0.20959846977E+03 -0.13007666309E+03  0.94248020974E+01  0.29692639442E+03  0.16500000000E+03 0.  0.
   -5000001    1    1    2    0    0  0.20959846977E+03  0.13007666309E+03  0.58989940546E+03  0.66034670089E+03  0.16500000000E+03 0.  0.
<mgrwt>
<rscale>  0 0.74644643E+03</rscale>
<asrwt>0</asrwt>
<pdfrwt beam="1">  1        2 0.11118552E+00 0.74644643E+03</pdfrwt>
<pdfrwt beam="2">  1       -2 0.25567777E-01 0.74644643E+03</pdfrwt>
<totfact> 0.54370087E+02</totfact>
</mgrwt>
</event>
<event>
 4    1  0.5387486E-005  0.4290364E+03  0.7818608E-02  0.1034165E+00
         -2   -1    0    0    0  501 -0.00000000000E+00  0.00000000000E+00  0.66127915130E+02  0.66127915180E+02  0.25500000000E-02 0. -1.
          2   -1    0    0  501    0  0.00000000000E+00 -0.00000000000E+00 -0.69589447434E+03  0.69589447434E+03  0.25500000000E-02 0.  1.
    5000001    1    1    2    0    0  0.83248493673E+02 -0.30237626693E+02 -0.12903889188E+03  0.22742176981E+03  0.16500000000E+03 0.  0.
   -5000001    1    1    2    0    0 -0.83248493673E+02  0.30237626693E+02 -0.50072766733E+03  0.53460061971E+03  0.16500000000E+03 0.  0.
<mgrwt>
<rscale>  0 0.42903637E+03</rscale>
<asrwt>0</asrwt>
<pdfrwt beam="1">  1        2 0.99413492E-01 0.42903637E+03</pdfrwt>
<pdfrwt beam="2">  1       -2 0.94468454E-02 0.42903637E+03</pdfrwt>
<totfact> 0.33819584E+03</totfact>
</mgrwt>
</event>
<event>
 4    1  0.5387486E-005  0.6583594E+03  0.7818608E-02  0.9791219E-01
         -2   -1    0    0    0  501 -0.00000000000E+00  0.00000000000E+00  0.80285020405E+02  0.80285020445E+02  0.25500000000E-02 0. -1.
          2   -1    0    0  501    0  0.00000000000E+00 -0.00000000000E+00 -0.13496823710E+04  0.13496823710E+04  0.25500000000E-02 0.  1.
    5000001    1    1    2    0    0  0.86213458952E+02  0.26586373104E+03 -0.75402113153E+03  0.82090751658E+03  0.16500000000E+03 0.  0.
   -5000001    1    1    2    0    0 -0.86213458952E+02 -0.26586373104E+03 -0.51537621905E+03  0.60905987485E+03  0.16500000000E+03 0.  0.
<mgrwt>
<rscale>  0 0.65835941E+03</rscale>
<asrwt>0</asrwt>
<pdfrwt beam="1">  1        2 0.19281175E+00 0.65835941E+03</pdfrwt>
<pdfrwt beam="2">  1       -2 0.11469289E-01 0.65835941E+03</pdfrwt>
<totfact> 0.97627798E+02</totfact>
</mgrwt>
</event>
<event>
 4    1  0.5387486E-005  0.4050409E+03  0.7818608E-02  0.1042048E+00
         -2   -1    0    0    0  501 -0.00000000000E+00  0.00000000000E+00  0.45883932750E+02  0.45883932821E+02  0.25500000000E-02 0. -1.
          2   -1    0    0  501    0  0.00000000000E+00 -0.00000000000E+00 -0.89387560198E+03  0.89387560198E+03  0.25500000000E-02 0.  1.
    5000001    1    1    2    0    0 -0.71083088219E+02  0.16472964370E+02 -0.63746772984E+03  0.66250605323E+03  0.16500000000E+03 0.  0.
   -5000001    1    1    2    0    0  0.71083088219E+02 -0.16472964370E+02 -0.21052393939E+03  0.27725348157E+03  0.16500000000E+03 0.  0.
<mgrwt>
<rscale>  0 0.40504088E+03</rscale>
<asrwt>0</asrwt>
<pdfrwt beam="1">  1        2 0.12769650E+00 0.40504088E+03</pdfrwt>
<pdfrwt beam="2">  1       -2 0.65548481E-02 0.40504088E+03</pdfrwt>
<totfact> 0.43939484E+03</totfact>
</mgrwt>
</event>
<event>
 4    1  0.5387486E-005  0.5395421E+03  0.7818608E-02  0.1003944E+00
          2   -1    0    0  501    0  0.00000000000E+00  0.00000000000E+00  0.52639073503E+03  0.52639073504E+03  0.25500000000E-02 0.  1.
         -2   -1    0    0    0  501 -0.00000000000E+00 -0.00000000000E+00 -0.13825551795E+03  0.13825551797E+03  0.25500000000E-02 0. -1.
    5000001    1    1    2    0    0  0.14405934746E+03 -0.15032011903E+03  0.13625898910E+03  0.29856447526E+03  0.16500000000E+03 0.  0.
   -5000001    1    1    2    0    0 -0.14405934746E+03  0.15032011903E+03  0.25187622798E+03  0.36608177775E+03  0.16500000000E+03 0.  0.
<mgrwt>
<rscale>  0 0.53954212E+03</rscale>
<asrwt>0</asrwt>
<pdfrwt beam="1">  1        2 0.75198677E-01 0.53954212E+03</pdfrwt>
<pdfrwt beam="2">  1       -2 0.19750788E-01 0.53954212E+03</pdfrwt>
<totfact> 0.13789267E+03</totfact>
</mgrwt>
</event>
<event>
 4    1  0.5387486E-005  0.9170329E+03  0.7818608E-02  0.9404536E-01
          2   -1    0    0  501    0  0.00000000000E+00  0.00000000000E+00  0.14740852490E+04  0.14740852490E+04  0.25500000000E-02 0.  1.
         -2   -1    0    0    0  501 -0.00000000000E+00 -0.00000000000E+00 -0.14262222894E+03  0.14262222897E+03  0.25500000000E-02 0. -1.
    5000001    1    1    2    0    0 -0.17548395350E+03 -0.27598694824E+03  0.17955604371E+03  0.40795684376E+03  0.16500000000E+03 0.  0.
   -5000001    1    1    2    0    0  0.17548395350E+03  0.27598694824E+03  0.11519069763E+04  0.12087506342E+04  0.16500000000E+03 0.  0.
<mgrwt>
<rscale>  0 0.91703288E+03</rscale>
<asrwt>0</asrwt>
<pdfrwt beam="1">  1        2 0.21058361E+00 0.91703288E+03</pdfrwt>
<pdfrwt beam="2">  1       -2 0.20374603E-01 0.91703288E+03</pdfrwt>
<totfact> 0.31208131E+02</totfact>
</mgrwt>
</event>
<event>
 4    1  0.5387486E-005  0.3726589E+03  0.7818608E-02  0.1053681E+00
         -2   -1    0    0    0  501 -0.00000000000E+00  0.00000000000E+00  0.59761863432E+02  0.59761863486E+02  0.25500000000E-02 0. -1.
          2   -1    0    0  501    0  0.00000000000E+00 -0.00000000000E+00 -0.58095010903E+03  0.58095010903E+03  0.25500000000E-02 0.  1.
    5000001    1    1    2    0    0 -0.10194964753E+02  0.81326679585E+02 -0.21270941418E+03  0.28140408845E+03  0.16500000000E+03 0.  0.
   -5000001    1    1    2    0    0  0.10194964753E+02 -0.81326679585E+02 -0.30847883142E+03  0.35930788406E+03  0.16500000000E+03 0.  0.
<mgrwt>
<rscale>  0 0.37265888E+03</rscale>
<asrwt>0</asrwt>
<pdfrwt beam="1">  1        2 0.82992869E-01 0.37265888E+03</pdfrwt>
<pdfrwt beam="2">  1       -2 0.85374094E-02 0.37265888E+03</pdfrwt>
<totfact> 0.49007009E+03</totfact>
</mgrwt>
</event>
<event>
 4    1  0.5387486E-005  0.3887304E+03  0.7818608E-02  0.1047753E+00
          2   -1    0    0  501    0  0.00000000000E+00  0.00000000000E+00  0.16280653873E+04  0.16280653873E+04  0.25500000000E-02 0.  1.
         -2   -1    0    0    0  501 -0.00000000000E+00 -0.00000000000E+00 -0.23204121717E+02  0.23204121857E+02  0.25500000000E-02 0. -1.
    5000001    1    1    2    0    0 -0.96473176232E+02 -0.30450768873E+02  0.87824076280E+03  0.89931427238E+03  0.16500000000E+03 0.  0.
   -5000001    1    1    2    0    0  0.96473176232E+02  0.30450768873E+02  0.72662050273E+03  0.75195523673E+03  0.16500000000E+03 0.  0.
<mgrwt>
<rscale>  0 0.38873038E+03</rscale>
<asrwt>0</asrwt>
<pdfrwt beam="1">  1        2 0.23258076E+00 0.38873038E+03</pdfrwt>
<pdfrwt beam="2">  1       -2 0.33148747E-02 0.38873038E+03</pdfrwt>
<totfact> 0.49195135E+03</totfact>
</mgrwt>
</event>
<event>
 4    1  0.5387486E-005  0.4213221E+03  0.7818608E-02  0.1036637E+00
          2   -1    0    0  501    0  0.00000000000E+00  0.00000000000E+00  0.10523362665E+03  0.10523362668E+03  0.25500000000E-02 0.  1.
         -2   -1    0    0    0  501 -0.00000000000E+00 -0.00000000000E+00 -0.42171014412E+03  0.42171014413E+03  0.25500000000E-02 0. -1.
    5000001    1    1    2    0    0 -0.46133652732E+02  0.12045612366E+03 -0.12985291405E+03  0.24642396582E+03  0.16500000000E+03 0.  0.
   -5000001    1    1    2    0    0  0.46133652732E+02 -0.12045612366E+03 -0.18662360342E+03  0.28051980499E+03  0.16500000000E+03 0.  0.
<mgrwt>
<rscale>  0 0.42132215E+03</rscale>
<asrwt>0</asrwt>
<pdfrwt beam="1">  1        2 0.15033375E-01 0.42132215E+03</pdfrwt>
<pdfrwt beam="2">  1       -2 0.60244306E-01 0.42132215E+03</pdfrwt>
<totfact> 0.10274530E+03</totfact>
</mgrwt>
</event>
<event>
 4    1  0.5387486E-005  0.1152144E+04  0.7818608E-02  0.9155808E-01
          2   -1    0    0  501    0  0.00000000000E+00  0.00000000000E+00  0.70661566478E+03  0.70661566478E+03  0.25500000000E-02 0.  1.
         -2   -1    0    0    0  501 -0.00000000000E+00 -0.00000000000E+00 -0.46964559354E+03  0.46964559355E+03  0.25500000000E-02 0. -1.
    5000001    1    1    2    0    0 -0.44614672060E+03  0.83925911141E+02  0.43897245431E+03  0.65269615481E+03  0.16500000000E+03 0.  0.
   -5000001    1    1    2    0    0  0.44614672060E+03 -0.83925911141E+02 -0.20200238308E+03  0.52356510352E+03  0.16500000000E+03 0.  0.
<mgrwt>
<rscale>  0 0.11521440E+04</rscale>
<asrwt>0</asrwt>
<pdfrwt beam="1">  1        2 0.10094509E+00 0.11521440E+04</pdfrwt>
<pdfrwt beam="2">  1       -2 0.67092228E-01 0.11521440E+04</pdfrwt>
<totfact> 0.89858111E+01</totfact>
</mgrwt>
</event>
<event>
 4    1  0.5387486E-005  0.4371681E+03  0.7818608E-02  0.1031619E+00
          2   -1    0    0  501    0  0.00000000000E+00  0.00000000000E+00  0.11733639180E+03  0.11733639182E+03  0.25500000000E-02 0.  1.
         -2   -1    0    0    0  501 -0.00000000000E+00 -0.00000000000E+00 -0.40719660161E+03  0.40719660161E+03  0.25500000000E-02 0. -1.
    5000001    1    1    2    0    0 -0.76812361588E+02 -0.50086769098E+02 -0.12701340815E+02  0.18919605543E+03  0.16500000000E+03 0.  0.
   -5000001    1    1    2    0    0  0.76812361588E+02  0.50086769098E+02 -0.27715886899E+03  0.33533693801E+03  0.16500000000E+03 0.  0.
<mgrwt>
<rscale>  0 0.43716807E+03</rscale>
<asrwt>0</asrwt>
<pdfrwt beam="1">  1        2 0.16762342E-01 0.43716807E+03</pdfrwt>
<pdfrwt beam="2">  1       -2 0.58170942E-01 0.43716807E+03</pdfrwt>
<totfact> 0.97080212E+02</totfact>
</mgrwt>
</event>
<event>
 4    1  0.5387486E-005  0.3831981E+03  0.7818608E-02  0.1049758E+00
          2   -1    0    0  501    0  0.00000000000E+00  0.00000000000E+00  0.40899405845E+03  0.40899405846E+03  0.25500000000E-02 0.  1.
         -2   -1    0    0    0  501 -0.00000000000E+00 -0.00000000000E+00 -0.89757270173E+02  0.89757270209E+02  0.25500000000E-02 0. -1.
    5000001    1    1    2    0    0  0.21063927502E+01 -0.97296538378E+02  0.16451210738E+03  0.25250799343E+03  0.16500000000E+03 0.  0.
   -5000001    1    1    2    0    0 -0.21063927502E+01  0.97296538378E+02  0.15472468090E+03  0.24624333524E+03  0.16500000000E+03 0.  0.
<mgrwt>
<rscale>  0 0.38319807E+03</rscale>
<asrwt>0</asrwt>
<pdfrwt beam="1">  1        2 0.58427722E-01 0.38319807E+03</pdfrwt>
<pdfrwt beam="2">  1       -2 0.12822467E-01 0.38319807E+03</pdfrwt>
<totfact> 0.37725793E+03</totfact>
</mgrwt>
</event>
<event>
 4    1  0.5387486E-005  0.4202556E+03  0.7818608E-02  0.1036983E+00
          2   -1    0    0  501    0  0.00000000000E+00  0.00000000000E+00  0.96624168822E+03  0.96624168823E+03  0.25500000000E-02 0.  1.
         -2   -1    0    0    0  501 -0.00000000000E+00 -0.00000000000E+00 -0.45696327342E+02  0.45696327413E+02  0.25500000000E-02 0. -1.
    5000001    1    1    2    0    0  0.12643378883E+03 -0.16539366586E+02  0.52258329274E+03  0.56265206963E+03  0.16500000000E+03 0.  0.
   -5000001    1    1    2    0    0 -0.12643378883E+03  0.16539366586E+02  0.39796206814E+03  0.44928594601E+03  0.16500000000E+03 0.  0.
<mgrwt>
<rscale>  0 0.42025562E+03</rscale>
<asrwt>0</asrwt>
<pdfrwt beam="1">  1        2 0.13803451E+00 0.42025562E+03</pdfrwt>
<pdfrwt beam="2">  1       -2 0.65280474E-02 0.42025562E+03</pdfrwt>
<totfact> 0.39866534E+03</totfact>
</mgrwt>
</event>
<event>
 4    1  0.5387486E-005  0.4737004E+03  0.7818608E-02  0.1020881E+00
         -2   -1    0    0    0  501 -0.00000000000E+00  0.00000000000E+00  0.10372752563E+02  0.10372752876E+02  0.25500000000E-02 0. -1.
          2   -1    0    0  501    0  0.00000000000E+00 -0.00000000000E+00 -0.54082081298E+04  0.54082081298E+04  0.25500000000E-02 0.  1.
    5000001    1    1    2    0    0 -0.38027889450E+02 -0.12657959189E+03 -0.39204918247E+04  0.39261876752E+04  0.16500000000E+03 0.  0.
   -5000001    1    1    2    0    0  0.38027889450E+02  0.12657959189E+03 -0.14773435526E+04  0.14923932075E+04  0.16500000000E+03 0.  0.
<mgrwt>
<rscale>  0 0.47370035E+03</rscale>
<asrwt>0</asrwt>
<pdfrwt beam="1">  1        2 0.77259936E+00 0.47370035E+03</pdfrwt>
<pdfrwt beam="2">  1       -2 0.14818253E-02 0.47370035E+03</pdfrwt>
<totfact> 0.52975416E+01</totfact>
</mgrwt>
</event>
<event>
 4    1  0.5387486E-005  0.1019635E+04  0.7818608E-02  0.9287267E-01
          2   -1    0    0  501    0  0.00000000000E+00  0.00000000000E+00  0.40480834758E+03  0.40480834759E+03  0.25500000000E-02 0.  1.
         -2   -1    0    0    0  501 -0.00000000000E+00 -0.00000000000E+00 -0.64206691755E+03  0.64206691755E+03  0.25500000000E-02 0. -1.
    5000001    1    1    2    0    0  0.47132901010E+03 -0.98341762755E+02 -0.88399361991E+02  0.51658647414E+03  0.16500000000E+03 0.  0.
   -5000001    1    1    2    0    0 -0.47132901010E+03  0.98341762755E+02 -0.14885920798E+03  0.53028879100E+03  0.16500000000E+03 0.  0.
<mgrwt>
<rscale>  0 0.10196353E+04</rscale>
<asrwt>0</asrwt>
<pdfrwt beam="1">  1        2 0.57829764E-01 0.10196353E+04</pdfrwt>
<pdfrwt beam="2">  1       -2 0.91723845E-01 0.10196353E+04</pdfrwt>
<totfact> 0.86148819E+01</totfact>
</mgrwt>
</event>
<event>
 4    1  0.5387486E-005  0.3589509E+03  0.7818608E-02  0.1059000E+00
         -2   -1    0    0    0  501 -0.00000000000E+00  0.00000000000E+00  0.67799248994E+02  0.67799249042E+02  0.25500000000E-02 0. -1.
          2   -1    0    0  501    0  0.00000000000E+00 -0.00000000000E+00 -0.47510022153E+03  0.47510022153E+03  0.25500000000E-02 0.  1.
    5000001    1    1    2    0    0 -0.62244611468E+02  0.32849521754E+02 -0.19496791642E+03  0.26493578688E+03  0.16500000000E+03 0.  0.
   -5000001    1    1    2    0    0  0.62244611468E+02 -0.32849521754E+02 -0.21233305611E+03  0.27796368370E+03  0.16500000000E+03 0.  0.
<mgrwt>
<rscale>  0 0.35895091E+03</rscale>
<asrwt>0</asrwt>
<pdfrwt beam="1">  1        2 0.67871458E-01 0.35895091E+03</pdfrwt>
<pdfrwt beam="2">  1       -2 0.96856073E-02 0.35895091E+03</pdfrwt>
<totfact> 0.50267772E+03</totfact>
</mgrwt>
</event>
<event>
 4    1  0.5387486E-005  0.4128359E+03  0.7818608E-02  0.1039424E+00
          2   -1    0    0  501    0  0.00000000000E+00  0.00000000000E+00  0.11099774706E+04  0.11099774706E+04  0.25500000000E-02 0.  1.
         -2   -1    0    0    0  501 -0.00000000000E+00 -0.00000000000E+00 -0.38386694801E+02  0.38386694886E+02  0.25500000000E-02 0. -1.
    5000001    1    1    2    0    0 -0.10842398213E+03 -0.53498506043E+02  0.61275793707E+03  0.64599933397E+03  0.16500000000E+03 0.  0.
   -5000001    1    1    2    0    0  0.10842398213E+03  0.53498506043E+02  0.45883283874E+03  0.50236483153E+03  0.16500000000E+03 0.  0.
<mgrwt>
<rscale>  0 0.41283588E+03</rscale>
<asrwt>0</asrwt>
<pdfrwt beam="1">  1        2 0.15856819E+00 0.41283588E+03</pdfrwt>
<pdfrwt beam="2">  1       -2 0.54838142E-02 0.41283588E+03</pdfrwt>
<totfact> 0.42971057E+03</totfact>
</mgrwt>
</event>
<event>
 4    1  0.5387486E-005  0.3812497E+03  0.7818608E-02  0.1050473E+00
          2   -1    0    0  501    0  0.00000000000E+00  0.00000000000E+00  0.29466753960E+04  0.29466753960E+04  0.25500000000E-02 0. -1.
         -2   -1    0    0    0  501 -0.00000000000E+00 -0.00000000000E+00 -0.12331805561E+02  0.12331805825E+02  0.25500000000E-02 0.  1.
    5000001    1    1    2    0    0 -0.12605811155E+02  0.89676682327E+02  0.17015609087E+04  0.17119390584E+04  0.16500000000E+03 0.  0.
   -5000001    1    1    2    0    0  0.12605811155E+02 -0.89676682327E+02  0.12327826818E+04  0.12470681434E+04  0.16500000000E+03 0.  0.
<mgrwt>
<rscale>  0 0.38124967E+03</rscale>
<asrwt>0</asrwt>
<pdfrwt beam="1">  1        2 0.42095332E+00 0.38124967E+03</pdfrwt>
<pdfrwt beam="2">  1       -2 0.17616878E-02 0.38124967E+03</pdfrwt>
<totfact> 0.27365453E+03</totfact>
</mgrwt>
</event>
<event>
 4    1  0.5387486E-005  0.5227023E+03  0.7818608E-02  0.1008017E+00
          2   -1    0    0  501    0  0.00000000000E+00  0.00000000000E+00  0.22734347542E+04  0.22734347542E+04  0.25500000000E-02 0.  1.
         -2   -1    0    0    0  501 -0.00000000000E+00 -0.00000000000E+00 -0.30044598080E+02  0.30044598188E+02  0.25500000000E-02 0. -1.
    5000001    1    1    2    0    0 -0.19304626416E+03 -0.24915704250E+02  0.87272541370E+03  0.90926470301E+03  0.16500000000E+03 0.  0.
   -5000001    1    1    2    0    0  0.19304626416E+03  0.24915704250E+02  0.13706647424E+04  0.13942146493E+04  0.16500000000E+03 0.  0.
<mgrwt>
<rscale>  0 0.52270234E+03</rscale>
<asrwt>0</asrwt>
<pdfrwt beam="1">  1        2 0.32477638E+00 0.52270234E+03</pdfrwt>
<pdfrwt beam="2">  1       -2 0.42920856E-02 0.52270234E+03</pdfrwt>
<totfact> 0.15746638E+03</totfact>
</mgrwt>
</event>
<event>
 4    1  0.5387486E-005  0.6171285E+03  0.7818608E-02  0.9870493E-01
         -2   -1    0    0    0  501 -0.00000000000E+00  0.00000000000E+00  0.10165440606E+04  0.10165440606E+04  0.25500000000E-02 0. -1.
          2   -1    0    0  501    0  0.00000000000E+00 -0.00000000000E+00 -0.93662351503E+02  0.93662351538E+02  0.25500000000E-02 0.  1.
    5000001    1    1    2    0    0 -0.23139082966E+03 -0.75632489203E+02  0.62947934536E+03  0.69478862664E+03  0.16500000000E+03 0.  0.
   -5000001    1    1    2    0    0  0.23139082966E+03  0.75632489203E+02  0.29340236376E+03  0.41541778553E+03  0.16500000000E+03 0.  0.
<mgrwt>
<rscale>  0 0.61712853E+03</rscale>
<asrwt>0</asrwt>
<pdfrwt beam="1">  1        2 0.13380336E-01 0.61712853E+03</pdfrwt>
<pdfrwt beam="2">  1       -2 0.14522058E+00 0.61712853E+03</pdfrwt>
<totfact> 0.15286249E+02</totfact>
</mgrwt>
</event>
<event>
 4    1  0.5387486E-005  0.5700272E+03  0.7818608E-02  0.9969618E-01
         -2   -1    0    0    0  501 -0.00000000000E+00  0.00000000000E+00  0.69445964961E+02  0.69445965007E+02  0.25500000000E-02 0. -1.
          2   -1    0    0  501    0  0.00000000000E+00 -0.00000000000E+00 -0.11697261372E+04  0.11697261372E+04  0.25500000000E-02 0.  1.
    5000001    1    1    2    0    0  0.15968509172E+03  0.16872309861E+03 -0.56405086884E+03  0.63193765132E+03  0.16500000000E+03 0.  0.
   -5000001    1    1    2    0    0 -0.15968509172E+03 -0.16872309861E+03 -0.53622930343E+03  0.60723445092E+03  0.16500000000E+03 0.  0.
<mgrwt>
<rscale>  0 0.57002723E+03</rscale>
<asrwt>0</asrwt>
<pdfrwt beam="1">  1        2 0.16710372E+00 0.57002723E+03</pdfrwt>
<pdfrwt beam="2">  1       -2 0.99208528E-02 0.57002723E+03</pdfrwt>
<totfact> 0.15579752E+03</totfact>
</mgrwt>
</event>
<event>
 4    1  0.5387486E-005  0.4994024E+03  0.7818608E-02  0.1013935E+00
          2   -1    0    0  501    0  0.00000000000E+00  0.00000000000E+00  0.10740368303E+03  0.10740368306E+03  0.25500000000E-02 0.  1.
         -2   -1    0    0    0  501 -0.00000000000E+00 -0.00000000000E+00 -0.58052646304E+03  0.58052646304E+03  0.25500000000E-02 0. -1.
    5000001    1    1    2    0    0 -0.10383907949E+02 -0.18707960545E+03 -0.23054499321E+03  0.33982730646E+03  0.16500000000E+03 0.  0.
   -5000001    1    1    2    0    0  0.10383907949E+02  0.18707960545E+03 -0.24257778680E+03  0.34810283965E+03  0.16500000000E+03 0.  0.
<mgrwt>
<rscale>  0 0.49940236E+03</rscale>
<asrwt>0</asrwt>
<pdfrwt beam="1">  1        2 0.15343384E-01 0.49940236E+03</pdfrwt>
<pdfrwt beam="2">  1       -2 0.82932350E-01 0.49940236E+03</pdfrwt>
<totfact> 0.50146333E+02</totfact>
</mgrwt>
</event>
<event>
 4    1  0.5387486E-005  0.5545448E+03  0.7818608E-02  0.1000447E+00
          2   -1    0    0  501    0  0.00000000000E+00  0.00000000000E+00  0.31593859556E+04  0.31593859556E+04  0.25500000000E-02 0.  1.
         -2   -1    0    0    0  501 -0.00000000000E+00 -0.00000000000E+00 -0.24333833622E+02  0.24333833755E+02  0.25500000000E-02 0. -1.
    5000001    1    1    2    0    0 -0.17103669284E+03 -0.14283229704E+03  0.15640956062E+04  0.15884818792E+04  0.16500000000E+03 0.  0.
   -5000001    1    1    2    0    0  0.17103669284E+03  0.14283229704E+03  0.15709565158E+04  0.15952379102E+04  0.16500000000E+03 0.  0.
<mgrwt>
<rscale>  0 0.55454476E+03</rscale>
<asrwt>0</asrwt>
<pdfrwt beam="1">  1        2 0.45134071E+00 0.55454476E+03</pdfrwt>
<pdfrwt beam="2">  1       -2 0.34762630E-02 0.55454476E+03</pdfrwt>
<totfact> 0.74333852E+02</totfact>
</mgrwt>
</event>
<event>
 4    1  0.5387486E-005  0.6942587E+03  0.7818608E-02  0.9727101E-01
         -2   -1    0    0    0  501 -0.00000000000E+00  0.00000000000E+00  0.48099638098E+03  0.48099638099E+03  0.25500000000E-02 0. -1.
          2   -1    0    0  501    0  0.00000000000E+00 -0.00000000000E+00 -0.25051908119E+03  0.25051908120E+03  0.25500000000E-02 0.  1.
    5000001    1    1    2    0    0 -0.20797566213E+03 -0.17720294423E+03  0.25901270447E+03  0.41105637151E+03  0.16500000000E+03 0.  0.
   -5000001    1    1    2    0    0  0.20797566213E+03  0.17720294423E+03 -0.28535404680E+02  0.32045909068E+03  0.16500000000E+03 0.  0.
<mgrwt>
<rscale>  0 0.69425866E+03</rscale>
<asrwt>0</asrwt>
<pdfrwt beam="1">  1        2 0.35788440E-01 0.69425866E+03</pdfrwt>
<pdfrwt beam="2">  1       -2 0.68713768E-01 0.69425866E+03</pdfrwt>
<totfact> 0.28499592E+02</totfact>
</mgrwt>
</event>
<event>
 4    1  0.5387486E-005  0.4394212E+03  0.7818608E-02  0.1030925E+00
          2   -1    0    0  501    0  0.00000000000E+00  0.00000000000E+00  0.14959472649E+04  0.14959472649E+04  0.25500000000E-02 0.  1.
         -2   -1    0    0    0  501 -0.00000000000E+00 -0.00000000000E+00 -0.32269023884E+02  0.32269023985E+02  0.25500000000E-02 0. -1.
    5000001    1    1    2    0    0  0.47771430260E+02 -0.11939291866E+03  0.96542102755E+03  0.98782566226E+03  0.16500000000E+03 0.  0.
   -5000001    1    1    2    0    0 -0.47771430260E+02  0.11939291866E+03  0.49825721342E+03  0.54039062659E+03  0.16500000000E+03 0.  0.
<mgrwt>
<rscale>  0 0.43942125E+03</rscale>
<asrwt>0</asrwt>
<pdfrwt beam="1">  1        2 0.21370682E+00 0.43942125E+03</pdfrwt>
<pdfrwt beam="2">  1       -2 0.46098591E-02 0.43942125E+03</pdfrwt>
<totfact> 0.34787424E+03</totfact>
</mgrwt>
</event>
<event>
 4    1  0.5387486E-005  0.6675194E+03  0.7818608E-02  0.9774449E-01
          2   -1    0    0  501    0  0.00000000000E+00  0.00000000000E+00  0.12972338930E+04  0.12972338930E+04  0.25500000000E-02 0.  1.
         -2   -1    0    0    0  501 -0.00000000000E+00 -0.00000000000E+00 -0.85871597669E+02  0.85871597707E+02  0.25500000000E-02 0. -1.
    5000001    1    1    2    0    0  0.22339516647E+03  0.17815469372E+03  0.70981993359E+03  0.78276039337E+03  0.16500000000E+03 0.  0.
   -5000001    1    1    2    0    0 -0.22339516647E+03 -0.17815469372E+03  0.50154236176E+03  0.60034509737E+03  0.16500000000E+03 0.  0.
<mgrwt>
<rscale>  0 0.66751943E+03</rscale>
<asrwt>0</asrwt>
<pdfrwt beam="1">  1        2 0.18531912E+00 0.66751943E+03</pdfrwt>
<pdfrwt beam="2">  1       -2 0.12267372E-01 0.66751943E+03</pdfrwt>
<totfact> 0.93269659E+02</totfact>
</mgrwt>
</event>
<event>
 4    1  0.5387486E-005  0.6012839E+03  0.7818608E-02  0.9902746E-01
          2   -1    0    0  501    0  0.00000000000E+00  0.00000000000E+00  0.20071077288E+04  0.20071077288E+04  0.25500000000E-02 0.  1.
         -2   -1    0    0    0  501 -0.00000000000E+00 -0.00000000000E+00 -0.45032746497E+02  0.45032746569E+02  0.25500000000E-02 0. -1.
    5000001    1    1    2    0    0  0.18575497992E+03  0.16586835588E+03  0.10964404777E+04  0.11364083532E+04  0.16500000000E+03 0.  0.
   -5000001    1    1    2    0    0 -0.18575497992E+03 -0.16586835588E+03  0.86563450465E+03  0.91573212223E+03  0.16500000000E+03 0.  0.
<mgrwt>
<rscale>  0 0.60128387E+03</rscale>
<asrwt>0</asrwt>
<pdfrwt beam="1">  1        2 0.28672968E+00 0.60128387E+03</pdfrwt>
<pdfrwt beam="2">  1       -2 0.64332494E-02 0.60128387E+03</pdfrwt>
<totfact> 0.11375231E+03</totfact>
</mgrwt>
</event>
<event>
 4    1  0.5387486E-005  0.5069421E+03  0.7818608E-02  0.1011983E+00
         -2   -1    0    0    0  501 -0.00000000000E+00  0.00000000000E+00  0.10829657999E+03  0.10829658002E+03  0.25500000000E-02 0. -1.
          2   -1    0    0  501    0  0.00000000000E+00 -0.00000000000E+00 -0.59325572216E+03  0.59325572217E+03  0.25500000000E-02 0.  1.
    5000001    1    1    2    0    0  0.17204445213E+03 -0.49908809756E+02 -0.14528766149E+03  0.28359070397E+03  0.16500000000E+03 0.  0.
   -5000001    1    1    2    0    0 -0.17204445213E+03  0.49908809756E+02 -0.33967148068E+03  0.41796159822E+03  0.16500000000E+03 0.  0.
<mgrwt>
<rscale>  0 0.50694207E+03</rscale>
<asrwt>0</asrwt>
<pdfrwt beam="1">  1        2 0.84750816E-01 0.50694207E+03</pdfrwt>
<pdfrwt beam="2">  1       -2 0.15470940E-01 0.50694207E+03</pdfrwt>
<totfact> 0.18226492E+03</totfact>
</mgrwt>
</event>
<event>
 4    1  0.5387486E-005  0.7997337E+03  0.7818608E-02  0.9560403E-01
          2   -1    0    0  501    0  0.00000000000E+00  0.00000000000E+00  0.36801920185E+04  0.36801920185E+04  0.25500000000E-02 0.  1.
         -2   -1    0    0    0  501 -0.00000000000E+00 -0.00000000000E+00 -0.43447055414E+02  0.43447055489E+02  0.25500000000E-02 0. -1.
    5000001    1    1    2    0    0  0.30540285573E+02 -0.34807595527E+03  0.13394745291E+04  0.13940970532E+04  0.16500000000E+03 0.  0.
   -5000001    1    1    2    0    0 -0.30540285573E+02  0.34807595527E+03  0.22972704341E+04  0.23295420208E+04  0.16500000000E+03 0.  0.
<mgrwt>
<rscale>  0 0.79973372E+03</rscale>
<asrwt>0</asrwt>
<pdfrwt beam="1">  1        2 0.52574173E+00 0.79973372E+03</pdfrwt>
<pdfrwt beam="2">  1       -2 0.62067221E-02 0.79973372E+03</pdfrwt>
<totfact> 0.14558558E+02</totfact>
</mgrwt>
</event>
<event>
 4    1  0.5387486E-005  0.6390151E+03  0.7818608E-02  0.9827613E-01
         -2   -1    0    0    0  501 -0.00000000000E+00  0.00000000000E+00  0.28731098595E+02  0.28731098708E+02  0.25500000000E-02 0. -1.
          2   -1    0    0  501    0  0.00000000000E+00 -0.00000000000E+00 -0.35531212832E+04  0.35531212832E+04  0.25500000000E-02 0.  1.
    5000001    1    1    2    0    0  0.74621323078E+01 -0.19535889227E+03 -0.68926821050E+03  0.73521183765E+03  0.16500000000E+03 0.  0.
   -5000001    1    1    2    0    0 -0.74621323078E+01  0.19535889227E+03 -0.28351219741E+04  0.28466405443E+04  0.16500000000E+03 0.  0.
<mgrwt>
<rscale>  0 0.63901511E+03</rscale>
<asrwt>0</asrwt>
<pdfrwt beam="1">  1        2 0.50758848E+00 0.63901511E+03</pdfrwt>
<pdfrwt beam="2">  1       -2 0.41044449E-02 0.63901511E+03</pdfrwt>
<totfact> 0.33808630E+02</totfact>
</mgrwt>
</event>
<event>
 4    1  0.5387486E-005  0.3821478E+03  0.7818608E-02  0.1050143E+00
         -2   -1    0    0    0  501 -0.00000000000E+00  0.00000000000E+00  0.26739688348E+02  0.26739688469E+02  0.25500000000E-02 0. -1.
          2   -1    0    0  501    0  0.00000000000E+00 -0.00000000000E+00 -0.13653574198E+04  0.13653574198E+04  0.25500000000E-02 0.  1.
    5000001    1    1    2    0    0  0.62650781554E+02  0.63677945108E+01 -0.40364326112E+03  0.44058886900E+03  0.16500000000E+03 0.  0.
   -5000001    1    1    2    0    0 -0.62650781554E+02 -0.63677945108E+01 -0.93497447035E+03  0.95150823929E+03  0.16500000000E+03 0.  0.
<mgrwt>
<rscale>  0 0.38214778E+03</rscale>
<asrwt>0</asrwt>
<pdfrwt beam="1">  1        2 0.19505102E+00 0.38214778E+03</pdfrwt>
<pdfrwt beam="2">  1       -2 0.38199563E-02 0.38214778E+03</pdfrwt>
<totfact> 0.54148882E+03</totfact>
</mgrwt>
</event>
<event>
 4    1  0.5387486E-005  0.7030302E+03  0.7818608E-02  0.9712064E-01
         -2   -1    0    0    0  501 -0.00000000000E+00  0.00000000000E+00  0.17137884211E+03  0.17137884213E+03  0.25500000000E-02 0. -1.
          2   -1    0    0  501    0  0.00000000000E+00 -0.00000000000E+00 -0.72099259211E+03  0.72099259211E+03  0.25500000000E-02 0.  1.
    5000001    1    1    2    0    0 -0.13501063924E+03  0.23634743914E+02  0.78674460132E+02  0.22847569785E+03  0.16500000000E+03 0.  0.
   -5000001    1    1    2    0    0  0.13501063924E+03 -0.23634743914E+02 -0.62828821013E+03  0.66389573640E+03  0.16500000000E+03 0.  0.
<mgrwt>
<rscale>  0 0.70303023E+03</rscale>
<asrwt>0</asrwt>
<pdfrwt beam="1">  1        2 0.10299894E+00 0.70303023E+03</pdfrwt>
<pdfrwt beam="2">  1       -2 0.24482692E-01 0.70303023E+03</pdfrwt>
<totfact> 0.64807128E+02</totfact>
</mgrwt>
</event>
<event>
 4    1  0.5387486E-005  0.4817775E+03  0.7818608E-02  0.1018648E+00
         -2   -1    0    0    0  501 -0.00000000000E+00  0.00000000000E+00  0.28061292065E+02  0.28061292180E+02  0.25500000000E-02 0. -1.
          2   -1    0    0  501    0  0.00000000000E+00 -0.00000000000E+00 -0.20678804898E+04  0.20678804898E+04  0.25500000000E-02 0.  1.
    5000001    1    1    2    0    0 -0.10763868397E+03 -0.13273093930E+03 -0.11938622663E+04  0.12172656651E+04  0.16500000000E+03 0.  0.
   -5000001    1    1    2    0    0  0.10763868397E+03  0.13273093930E+03 -0.84595693142E+03  0.87867611687E+03  0.16500000000E+03 0.  0.
<mgrwt>
<rscale>  0 0.48177754E+03</rscale>
<asrwt>0</asrwt>
<pdfrwt beam="1">  1        2 0.29541140E+00 0.48177754E+03</pdfrwt>
<pdfrwt beam="2">  1       -2 0.40087573E-02 0.48177754E+03</pdfrwt>
<totfact> 0.22200412E+03</totfact>
</mgrwt>
</event>
<event>
 4    1  0.5387486E-005  0.4183122E+03  0.7818608E-02  0.1037617E+00
         -2   -1    0    0    0  501 -0.00000000000E+00  0.00000000000E+00  0.14034147819E+03  0.14034147821E+03  0.25500000000E-02 0. -1.
          2   -1    0    0  501    0  0.00000000000E+00 -0.00000000000E+00 -0.31171305180E+03  0.31171305181E+03  0.25500000000E-02 0.  1.
    5000001    1    1    2    0    0 -0.94332819876E+02 -0.74044438255E+02 -0.13567753085E+03  0.24497888097E+03  0.16500000000E+03 0.  0.
   -5000001    1    1    2    0    0  0.94332819876E+02  0.74044438255E+02 -0.35694042766E+02  0.20707564905E+03  0.16500000000E+03 0.  0.
<mgrwt>
<rscale>  0 0.41831218E+03</rscale>
<asrwt>0</asrwt>
<pdfrwt beam="1">  1        2 0.44530436E-01 0.41831218E+03</pdfrwt>
<pdfrwt beam="2">  1       -2 0.20048783E-01 0.41831218E+03</pdfrwt>
<totfact> 0.23979965E+03</totfact>
</mgrwt>
</event>
<event>
 4    1  0.5387486E-005  0.6590121E+03  0.7818608E-02  0.9790014E-01
         -2   -1    0    0    0  501 -0.00000000000E+00  0.00000000000E+00  0.84089950959E+02  0.84089950998E+02  0.25500000000E-02 0.  1.
          2   -1    0    0  501    0  0.00000000000E+00 -0.00000000000E+00 -0.12911677508E+04  0.12911677508E+04  0.25500000000E-02 0. -1.
    5000001    1    1    2    0    0 -0.10692871314E+03 -0.16475551844E+03 -0.10351234874E+04  0.10664350729E+04  0.16500000000E+03 0.  0.
   -5000001    1    1    2    0    0  0.10692871314E+03  0.16475551844E+03 -0.17195431243E+03  0.30882262889E+03  0.16500000000E+03 0.  0.
<mgrwt>
<rscale>  0 0.65901209E+03</rscale>
<asrwt>0</asrwt>
<pdfrwt beam="1">  1        2 0.18445252E+00 0.65901209E+03</pdfrwt>
<pdfrwt beam="2">  1       -2 0.12012851E-01 0.65901209E+03</pdfrwt>
<totfact> 0.97325377E+02</totfact>
</mgrwt>
</event>
<event>
 4    1  0.5387486E-005  0.5292516E+03  0.7818608E-02  0.1006414E+00
          2   -1    0    0  501    0  0.00000000000E+00  0.00000000000E+00  0.33147325019E+03  0.33147325020E+03  0.25500000000E-02 0.  1.
         -2   -1    0    0    0  501 -0.00000000000E+00 -0.00000000000E+00 -0.21125930644E+03  0.21125930646E+03  0.25500000000E-02 0. -1.
    5000001    1    1    2    0    0 -0.13302780795E+03 -0.15355018888E+03  0.20024918366E+02  0.26248820078E+03  0.16500000000E+03 0.  0.
   -5000001    1    1    2    0    0  0.13302780795E+03  0.15355018888E+03  0.10018902538E+03  0.28024435588E+03  0.16500000000E+03 0.  0.
<mgrwt>
<rscale>  0 0.52925158E+03</rscale>
<asrwt>0</asrwt>
<pdfrwt beam="1">  1        2 0.47353321E-01 0.52925158E+03</pdfrwt>
<pdfrwt beam="2">  1       -2 0.30179901E-01 0.52925158E+03</pdfrwt>
<totfact> 0.10825747E+03</totfact>
</mgrwt>
</event>
<event>
 4    1  0.5387486E-005  0.4339461E+03  0.7818608E-02  0.1032621E+00
          2   -1    0    0  501    0  0.00000000000E+00  0.00000000000E+00  0.41857448995E+03  0.41857448996E+03  0.25500000000E-02 0.  1.
         -2   -1    0    0    0  501 -0.00000000000E+00 -0.00000000000E+00 -0.11247054346E+03  0.11247054349E+03  0.25500000000E-02 0. -1.
    5000001    1    1    2    0    0 -0.74728375256E+02 -0.97678719819E+02  0.23718779477E+03  0.31401992351E+03  0.16500000000E+03 0.  0.
   -5000001    1    1    2    0    0  0.74728375256E+02  0.97678719819E+02  0.68916151727E+02  0.21702510994E+03  0.16500000000E+03 0.  0.
<mgrwt>
<rscale>  0 0.43394608E+03</rscale>
<asrwt>0</asrwt>
<pdfrwt beam="1">  1        2 0.59796355E-01 0.43394608E+03</pdfrwt>
<pdfrwt beam="2">  1       -2 0.16067221E-01 0.43394608E+03</pdfrwt>
<totfact> 0.25336621E+03</totfact>
</mgrwt>
</event>
<event>
 4    1  0.5387486E-005  0.5395855E+03  0.7818608E-02  0.1003934E+00
         -2   -1    0    0    0  501 -0.00000000000E+00  0.00000000000E+00  0.20299258999E+03  0.20299259000E+03  0.25500000000E-02 0. -1.
          2   -1    0    0  501    0  0.00000000000E+00 -0.00000000000E+00 -0.35857531877E+03  0.35857531878E+03  0.25500000000E-02 0.  1.
    5000001    1    1    2    0    0 -0.84194351784E+02  0.88953779174E+02 -0.25973234485E+03  0.33119081307E+03  0.16500000000E+03 0.  0.
   -5000001    1    1    2    0    0  0.84194351784E+02 -0.88953779174E+02  0.10414961607E+03  0.23037709571E+03  0.16500000000E+03 0.  0.
<mgrwt>
<rscale>  0 0.53958552E+03</rscale>
<asrwt>0</asrwt>
<pdfrwt beam="1">  1        2 0.51225045E-01 0.53958552E+03</pdfrwt>
<pdfrwt beam="2">  1       -2 0.28998942E-01 0.53958552E+03</pdfrwt>
<totfact> 0.10684184E+03</totfact>
</mgrwt>
</event>
<event>
 4    1  0.5387486E-005  0.8392945E+03  0.7818608E-02  0.9504819E-01
         -2   -1    0    0    0  501 -0.00000000000E+00  0.00000000000E+00  0.31924867093E+03  0.31924867094E+03  0.25500000000E-02 0.  1.
          2   -1    0    0  501    0  0.00000000000E+00 -0.00000000000E+00 -0.55161961570E+03  0.55161961570E+03  0.25500000000E-02 0. -1.
    5000001    1    1    2    0    0 -0.82676057073E+02  0.28772040156E+03 -0.36877807256E+03  0.50283260305E+03  0.16500000000E+03 0.  0.
   -5000001    1    1    2    0    0  0.82676057073E+02 -0.28772040156E+03  0.13640712779E+03  0.36803568359E+03  0.16500000000E+03 0.  0.
<mgrwt>
<rscale>  0 0.83929454E+03</rscale>
<asrwt>0</asrwt>
<pdfrwt beam="1">  1        2 0.78802802E-01 0.83929454E+03</pdfrwt>
<pdfrwt beam="2">  1       -2 0.45606953E-01 0.83929454E+03</pdfrwt>
<totfact> 0.27439062E+02</totfact>
</mgrwt>
</event>
<event>
 4    1  0.5387486E-005  0.3999823E+03  0.7818608E-02  0.1043786E+00
          2   -1    0    0  501    0  0.00000000000E+00  0.00000000000E+00  0.79298873028E+03  0.79298873029E+03  0.25500000000E-02 0.  1.
         -2   -1    0    0    0  501 -0.00000000000E+00 -0.00000000000E+00 -0.50437617506E+02  0.50437617570E+02  0.25500000000E-02 0. -1.
    5000001    1    1    2    0    0 -0.10239579022E+03  0.24043035955E+02  0.45843480370E+03  0.49844802605E+03  0.16500000000E+03 0.  0.
   -5000001    1    1    2    0    0  0.10239579022E+03 -0.24043035955E+02  0.28411630908E+03  0.34497832181E+03  0.16500000000E+03 0.  0.
<mgrwt>
<rscale>  0 0.39998231E+03</rscale>
<asrwt>0</asrwt>
<pdfrwt beam="1">  1        2 0.11328409E+00 0.39998231E+03</pdfrwt>
<pdfrwt beam="2">  1       -2 0.72053748E-02 0.39998231E+03</pdfrwt>
<totfact> 0.44183685E+03</totfact>
</mgrwt>
</event>
<event>
 4    1  0.5387486E-005  0.3834730E+03  0.7818608E-02  0.1049658E+00
          2   -1    0    0  501    0  0.00000000000E+00  0.00000000000E+00  0.18451916681E+03  0.18451916683E+03  0.25500000000E-02 0.  1.
         -2   -1    0    0    0  501 -0.00000000000E+00 -0.00000000000E+00 -0.19923614779E+03  0.19923614780E+03  0.25500000000E-02 0. -1.
    5000001    1    1    2    0    0 -0.52241402683E+02  0.82322192447E+02 -0.17169232940E+01  0.19166130373E+03  0.16500000000E+03 0.  0.
   -5000001    1    1    2    0    0  0.52241402683E+02 -0.82322192447E+02 -0.13000057681E+02  0.19209401090E+03  0.16500000000E+03 0.  0.
<mgrwt>
<rscale>  0 0.38347301E+03</rscale>
<asrwt>0</asrwt>
<pdfrwt beam="1">  1        2 0.26359881E-01 0.38347301E+03</pdfrwt>
<pdfrwt beam="2">  1       -2 0.28462307E-01 0.38347301E+03</pdfrwt>
<totfact> 0.22967518E+03</totfact>
</mgrwt>
</event>
<event>
 4    1  0.5387486E-005  0.3945903E+03  0.7818608E-02  0.1045669E+00
          2   -1    0    0  501    0  0.00000000000E+00  0.00000000000E+00  0.58686846131E+03  0.58686846131E+03  0.25500000000E-02 0.  1.
         -2   -1    0    0    0  501 -0.00000000000E+00 -0.00000000000E+00 -0.66327264150E+02  0.66327264199E+02  0.25500000000E-02 0. -1.
    5000001    1    1    2    0    0 -0.64623096695E+02  0.86572594409E+02  0.26924951085E+03  0.33375328885E+03  0.16500000000E+03 0.  0.
   -5000001    1    1    2    0    0  0.64623096695E+02 -0.86572594409E+02  0.25129168631E+03  0.31944243666E+03  0.16500000000E+03 0.  0.
<mgrwt>
<rscale>  0 0.39459032E+03</rscale>
<asrwt>0</asrwt>
<pdfrwt beam="1">  1        2 0.83838351E-01 0.39459032E+03</pdfrwt>
<pdfrwt beam="2">  1       -2 0.94753235E-02 0.39459032E+03</pdfrwt>
<totfact> 0.41089123E+03</totfact>
</mgrwt>
</event>
<event>
 4    1  0.5387486E-005  0.5832894E+03  0.7818608E-02  0.9940695E-01
          2   -1    0    0  501    0  0.00000000000E+00  0.00000000000E+00  0.51834706562E+03  0.51834706563E+03  0.25500000000E-02 0.  1.
         -2   -1    0    0    0  501 -0.00000000000E+00 -0.00000000000E+00 -0.16409206164E+03  0.16409206166E+03  0.25500000000E-02 0. -1.
    5000001    1    1    2    0    0 -0.19078123306E+03  0.49818353567E+02  0.33819602568E+03  0.42483043562E+03  0.16500000000E+03 0.  0.
   -5000001    1    1    2    0    0  0.19078123306E+03 -0.49818353567E+02  0.16058978301E+02  0.25760869167E+03  0.16500000000E+03 0.  0.
<mgrwt>
<rscale>  0 0.58328943E+03</rscale>
<asrwt>0</asrwt>
<pdfrwt beam="1">  1        2 0.74049581E-01 0.58328943E+03</pdfrwt>
<pdfrwt beam="2">  1       -2 0.23441723E-01 0.58328943E+03</pdfrwt>
<totfact> 0.10385257E+03</totfact>
</mgrwt>
</event>
<event>
 4    1  0.5387486E-005  0.5060742E+03  0.7818608E-02  0.1012206E+00
          2   -1    0    0  501    0  0.00000000000E+00  0.00000000000E+00  0.10934479456E+04  0.10934479456E+04  0.25500000000E-02 0.  1.
         -2   -1    0    0    0  501 -0.00000000000E+00 -0.00000000000E+00 -0.58555844511E+02  0.58555844566E+02  0.25500000000E-02 0. -1.
    5000001    1    1    2    0    0 -0.17177280352E+03  0.46482470186E+02  0.35430513821E+03  0.42944574398E+03  0.16500000000E+03 0.  0.
   -5000001    1    1    2    0    0  0.17177280352E+03 -0.46482470186E+02  0.68058696285E+03  0.72255804616E+03  0.16500000000E+03 0.  0.
<mgrwt>
<rscale>  0 0.50607418E+03</rscale>
<asrwt>0</asrwt>
<pdfrwt beam="1">  1        2 0.15620685E+00 0.50607418E+03</pdfrwt>
<pdfrwt beam="2">  1       -2 0.83651208E-02 0.50607418E+03</pdfrwt>
<totfact> 0.22672975E+03</totfact>
</mgrwt>
</event>
<event>
 4    1  0.5387486E-005  0.6376842E+03  0.7818608E-02  0.9830167E-01
         -2   -1    0    0    0  501 -0.00000000000E+00  0.00000000000E+00  0.54405785581E+02  0.54405785641E+02  0.25500000000E-02 0.  1.
          2   -1    0    0  501    0  0.00000000000E+00 -0.00000000000E+00 -0.18685564279E+04  0.18685564279E+04  0.25500000000E-02 0. -1.
    5000001    1    1    2    0    0  0.25756687130E+03 -0.16366875498E+02 -0.64029438220E+03  0.70979607190E+03  0.16500000000E+03 0.  0.
   -5000001    1    1    2    0    0 -0.25756687130E+03  0.16366875498E+02 -0.11738562601E+04  0.12131661416E+04  0.16500000000E+03 0.  0.
<mgrwt>
<rscale>  0 0.63768419E+03</rscale>
<asrwt>0</asrwt>
<pdfrwt beam="1">  1        2 0.26693659E+00 0.63768419E+03</pdfrwt>
<pdfrwt beam="2">  1       -2 0.77722562E-02 0.63768419E+03</pdfrwt>
<totfact> 0.98829099E+02</totfact>
</mgrwt>
</event>
<event>
 4    1  0.5387486E-005  0.4212512E+03  0.7818608E-02  0.1036660E+00
          2   -1    0    0  501    0  0.00000000000E+00  0.00000000000E+00  0.97684669100E+03  0.97684669100E+03  0.25500000000E-02 0.  1.
         -2   -1    0    0    0  501 -0.00000000000E+00 -0.00000000000E+00 -0.45414652500E+02  0.45414652571E+02  0.25500000000E-02 0. -1.
    5000001    1    1    2    0    0 -0.12083949630E+03 -0.16061165498E+02  0.58153997062E+03  0.61666350819E+03  0.16500000000E+03 0.  0.
   -5000001    1    1    2    0    0  0.12083949630E+03  0.16061165498E+02  0.34989206789E+03  0.40559783539E+03  0.16500000000E+03 0.  0.
<mgrwt>
<rscale>  0 0.42125125E+03</rscale>
<asrwt>0</asrwt>
<pdfrwt beam="1">  1        2 0.13954953E+00 0.42125125E+03</pdfrwt>
<pdfrwt beam="2">  1       -2 0.64878074E-02 0.42125125E+03</pdfrwt>
<totfact> 0.39658393E+03</totfact>
</mgrwt>
</event>
<event>
 4    1  0.5387486E-005  0.5639173E+03  0.7818608E-02  0.9983230E-01
         -2   -1    0    0    0  501 -0.00000000000E+00  0.00000000000E+00  0.14582604501E+03  0.14582604503E+03  0.25500000000E-02 0. -1.
          2   -1    0    0  501    0  0.00000000000E+00 -0.00000000000E+00 -0.54517474171E+03  0.54517474172E+03  0.25500000000E-02 0.  1.
    5000001    1    1    2    0    0 -0.13347151072E+03 -0.17719548954E+03 -0.13185996808E+03  0.30630856480E+03  0.16500000000E+03 0.  0.
   -5000001    1    1    2    0    0  0.13347151072E+03  0.17719548954E+03 -0.26748872862E+03  0.38469222195E+03  0.16500000000E+03 0.  0.
<mgrwt>
<rscale>  0 0.56391729E+03</rscale>
<asrwt>0</asrwt>
<pdfrwt beam="1">  1        2 0.77882105E-01 0.56391729E+03</pdfrwt>
<pdfrwt beam="2">  1       -2 0.20832292E-01 0.56391729E+03</pdfrwt>
<totfact> 0.12069672E+03</totfact>
</mgrwt>
</event>
<event>
 4    1  0.5387486E-005  0.5249406E+03  0.7818608E-02  0.1007467E+00
         -2   -1    0    0    0  501 -0.00000000000E+00  0.00000000000E+00  0.46040404003E+02  0.46040404073E+02  0.25500000000E-02 0. -1.
          2   -1    0    0  501    0  0.00000000000E+00 -0.00000000000E+00 -0.14963086554E+04  0.14963086554E+04  0.25500000000E-02 0.  1.
    5000001    1    1    2    0    0  0.19199327709E+03 -0.99442772775E+01 -0.92667743855E+03  0.96068537108E+03  0.16500000000E+03 0.  0.
   -5000001    1    1    2    0    0 -0.19199327709E+03  0.99442772775E+01 -0.52359081288E+03  0.58166368842E+03  0.16500000000E+03 0.  0.
<mgrwt>
<rscale>  0 0.52494059E+03</rscale>
<asrwt>0</asrwt>
<pdfrwt beam="1">  1        2 0.21375835E+00 0.52494059E+03</pdfrwt>
<pdfrwt beam="2">  1       -2 0.65772015E-02 0.52494059E+03</pdfrwt>
<totfact> 0.20010350E+03</totfact>
</mgrwt>
</event>
<event>
 4    1  0.5387486E-005  0.8252382E+03  0.7818608E-02  0.9524188E-01
         -2   -1    0    0    0  501 -0.00000000000E+00  0.00000000000E+00  0.62882839579E+03  0.62882839579E+03  0.25500000000E-02 0. -1.
          2   -1    0    0  501    0  0.00000000000E+00 -0.00000000000E+00 -0.27074876716E+03  0.27074876717E+03  0.25500000000E-02 0.  1.
    5000001    1    1    2    0    0  0.33256033786E+03 -0.16333196872E+03  0.26174106077E+03  0.48270808282E+03  0.16500000000E+03 0.  0.
   -5000001    1    1    2    0    0 -0.33256033786E+03  0.16333196872E+03  0.96338567859E+02  0.41686908014E+03  0.16500000000E+03 0.  0.
<mgrwt>
<rscale>  0 0.82523818E+03</rscale>
<asrwt>0</asrwt>
<pdfrwt beam="1">  1        2 0.38678395E-01 0.82523818E+03</pdfrwt>
<pdfrwt beam="2">  1       -2 0.89832630E-01 0.82523818E+03</pdfrwt>
<totfact> 0.14285071E+02</totfact>
</mgrwt>
</event>
<event>
 4    1  0.5387486E-005  0.7065286E+03  0.7818608E-02  0.9706132E-01
         -2   -1    0    0    0  501 -0.00000000000E+00  0.00000000000E+00  0.46906129318E+03  0.46906129319E+03  0.25500000000E-02 0. -1.
          2   -1    0    0  501    0  0.00000000000E+00 -0.00000000000E+00 -0.26605404508E+03  0.26605404509E+03  0.25500000000E-02 0.  1.
    5000001    1    1    2    0    0  0.90441817150E+02 -0.27953165631E+03 -0.88685590656E+01  0.33707761793E+03  0.16500000000E+03 0.  0.
   -5000001    1    1    2    0    0 -0.90441817150E+02  0.27953165631E+03  0.21187580717E+03  0.39803772036E+03  0.16500000000E+03 0.  0.
<mgrwt>
<rscale>  0 0.70652857E+03</rscale>
<asrwt>0</asrwt>
<pdfrwt beam="1">  1        2 0.38007721E-01 0.70652857E+03</pdfrwt>
<pdfrwt beam="2">  1       -2 0.67008756E-01 0.70652857E+03</pdfrwt>
<totfact> 0.28131133E+02</totfact>
</mgrwt>
</event>
<event>
 4    1  0.5387486E-005  0.6008760E+03  0.7818608E-02  0.9903590E-01
          2   -1    0    0  501    0  0.00000000000E+00  0.00000000000E+00  0.99414575167E+03  0.99414575168E+03  0.25500000000E-02 0.  1.
         -2   -1    0    0    0  501 -0.00000000000E+00 -0.00000000000E+00 -0.90794516084E+02  0.90794516120E+02  0.25500000000E-02 0. -1.
    5000001    1    1    2    0    0  0.24993632797E+03  0.23870697418E+02  0.45155819687E+03  0.54237236600E+03  0.16500000000E+03 0.  0.
   -5000001    1    1    2    0    0 -0.24993632797E+03 -0.23870697418E+02  0.45179303872E+03  0.54256790180E+03  0.16500000000E+03 0.  0.
<mgrwt>
<rscale>  0 0.60087597E+03</rscale>
<asrwt>0</asrwt>
<pdfrwt beam="1">  1        2 0.14202081E+00 0.60087597E+03</pdfrwt>
<pdfrwt beam="2">  1       -2 0.12970646E-01 0.60087597E+03</pdfrwt>
<totfact> 0.12724939E+03</totfact>
</mgrwt>
</event>
<event>
 4    1  0.5387486E-005  0.3692372E+03  0.7818608E-02  0.1054985E+00
          2   -1    0    0  501    0  0.00000000000E+00  0.00000000000E+00  0.14871832110E+04  0.14871832110E+04  0.25500000000E-02 0.  1.
         -2   -1    0    0    0  501 -0.00000000000E+00 -0.00000000000E+00 -0.22918509590E+02  0.22918509731E+02  0.25500000000E-02 0. -1.
    5000001    1    1    2    0    0 -0.60583033319E+02  0.46822469510E+02  0.60303651271E+03  0.62987354544E+03  0.16500000000E+03 0.  0.
   -5000001    1    1    2    0    0  0.60583033319E+02 -0.46822469510E+02  0.86122818868E+03  0.88022817528E+03  0.16500000000E+03 0.  0.
<mgrwt>
<rscale>  0 0.36923717E+03</rscale>
<asrwt>0</asrwt>
<pdfrwt beam="1">  1        2 0.21245468E+00 0.36923717E+03</pdfrwt>
<pdfrwt beam="2">  1       -2 0.32740738E-02 0.36923717E+03</pdfrwt>
<totfact> 0.59078197E+03</totfact>
</mgrwt>
</event>
<event>
 4    1  0.5387486E-005  0.6152207E+03  0.7818608E-02  0.9874322E-01
          2   -1    0    0  501    0  0.00000000000E+00  0.00000000000E+00  0.16314598720E+03  0.16314598722E+03  0.25500000000E-02 0.  1.
         -2   -1    0    0    0  501 -0.00000000000E+00 -0.00000000000E+00 -0.57999657392E+03  0.57999657393E+03  0.25500000000E-02 0. -1.
    5000001    1    1    2    0    0 -0.11225745545E+03 -0.32005056667E+02  0.71681458224E+02  0.21445113991E+03  0.16500000000E+03 0.  0.
   -5000001    1    1    2    0    0  0.11225745545E+03  0.32005056667E+02 -0.48853204494E+03  0.52869142124E+03  0.16500000000E+03 0.  0.
<mgrwt>
<rscale>  0 0.61522066E+03</rscale>
<asrwt>0</asrwt>
<pdfrwt beam="1">  1        2 0.23306570E-01 0.61522066E+03</pdfrwt>
<pdfrwt beam="2">  1       -2 0.82856653E-01 0.61522066E+03</pdfrwt>
<totfact> 0.30661884E+02</totfact>
</mgrwt>
</event>
<event>
 4    1  0.5387486E-005  0.4685497E+03  0.7818608E-02  0.1022330E+00
          2   -1    0    0  501    0  0.00000000000E+00  0.00000000000E+00  0.43090153812E+04  0.43090153812E+04  0.25500000000E-02 0.  1.
         -2   -1    0    0    0  501 -0.00000000000E+00 -0.00000000000E+00 -0.12737180587E+02  0.12737180842E+02  0.25500000000E-02 0. -1.
    5000001    1    1    2    0    0 -0.14773726487E+03  0.61984593011E+02  0.17365398455E+04  0.17517031781E+04  0.16500000000E+03 0.  0.
   -5000001    1    1    2    0    0  0.14773726487E+03 -0.61984593011E+02  0.25597383551E+04  0.25700493840E+04  0.16500000000E+03 0.  0.
<mgrwt>
<rscale>  0 0.46854971E+03</rscale>
<asrwt>0</asrwt>
<pdfrwt beam="1">  1        2 0.61557359E+00 0.46854971E+03</pdfrwt>
<pdfrwt beam="2">  1       -2 0.18195974E-02 0.46854971E+03</pdfrwt>
<totfact> 0.37861822E+02</totfact>
</mgrwt>
</event>
<event>
 4    1  0.5387486E-005  0.4136189E+03  0.7818608E-02  0.1039163E+00
          2   -1    0    0  501    0  0.00000000000E+00  0.00000000000E+00  0.15529668017E+04  0.15529668017E+04  0.25500000000E-02 0.  1.
         -2   -1    0    0    0  501 -0.00000000000E+00 -0.00000000000E+00 -0.27540928252E+02  0.27540928370E+02  0.25500000000E-02 0. -1.
    5000001    1    1    2    0    0  0.58174415473E+02  0.10609165052E+03  0.87769434848E+03  0.90122809004E+03  0.16500000000E+03 0.  0.
   -5000001    1    1    2    0    0 -0.58174415473E+02 -0.10609165052E+03  0.64773152501E+03  0.67927964007E+03  0.16500000000E+03 0.  0.
<mgrwt>
<rscale>  0 0.41361889E+03</rscale>
<asrwt>0</asrwt>
<pdfrwt beam="1">  1        2 0.22185241E+00 0.41361889E+03</pdfrwt>
<pdfrwt beam="2">  1       -2 0.39344181E-02 0.41361889E+03</pdfrwt>
<totfact> 0.41429453E+03</totfact>
</mgrwt>
</event>
<event>
 4    1  0.5387486E-005  0.5557788E+03  0.7818608E-02  0.1000165E+00
         -2   -1    0    0    0  501 -0.00000000000E+00  0.00000000000E+00  0.39252678709E+03  0.39252678710E+03  0.25500000000E-02 0. -1.
          2   -1    0    0  501    0  0.00000000000E+00 -0.00000000000E+00 -0.19673186601E+03  0.19673186603E+03  0.25500000000E-02 0.  1.
    5000001    1    1    2    0    0 -0.17716909602E+03  0.12205054423E+03  0.33298475150E+02  0.27316480809E+03  0.16500000000E+03 0.  0.
   -5000001    1    1    2    0    0  0.17716909602E+03 -0.12205054423E+03  0.16249644593E+03  0.31609384504E+03  0.16500000000E+03 0.  0.
<mgrwt>
<rscale>  0 0.55577883E+03</rscale>
<asrwt>0</asrwt>
<pdfrwt beam="1">  1        2 0.28104552E-01 0.55577883E+03</pdfrwt>
<pdfrwt beam="2">  1       -2 0.56075255E-01 0.55577883E+03</pdfrwt>
<totfact> 0.57648341E+02</totfact>
</mgrwt>
</event>
<event>
 4    1  0.5387486E-005  0.4516074E+03  0.7818608E-02  0.1027244E+00
         -2   -1    0    0    0  501 -0.00000000000E+00  0.00000000000E+00  0.79540975665E+02  0.79540975706E+02  0.25500000000E-02 0. -1.
          2   -1    0    0  501    0  0.00000000000E+00 -0.00000000000E+00 -0.64101949132E+03  0.64101949132E+03  0.25500000000E-02 0.  1.
    5000001    1    1    2    0    0 -0.90431927496E+02 -0.10953241726E+03 -0.18517907402E+03  0.28581737770E+03  0.16500000000E+03 0.  0.
   -5000001    1    1    2    0    0  0.90431927496E+02  0.10953241726E+03 -0.37629944164E+03  0.43474308933E+03  0.16500000000E+03 0.  0.
<mgrwt>
<rscale>  0 0.45160742E+03</rscale>
<asrwt>0</asrwt>
<pdfrwt beam="1">  1        2 0.91574210E-01 0.45160742E+03</pdfrwt>
<pdfrwt beam="2">  1       -2 0.11362997E-01 0.45160742E+03</pdfrwt>
<totfact> 0.27706183E+03</totfact>
</mgrwt>
</event>
<event>
 4    1  0.5387486E-005  0.4366594E+03  0.7818608E-02  0.1031777E+00
          2   -1    0    0  501    0  0.00000000000E+00  0.00000000000E+00  0.12419786485E+04  0.12419786486E+04  0.25500000000E-02 0.  1.
         -2   -1    0    0    0  501 -0.00000000000E+00 -0.00000000000E+00 -0.38380586328E+02  0.38380586413E+02  0.25500000000E-02 0. -1.
    5000001    1    1    2    0    0  0.88470520698E+02 -0.96300069810E+02  0.43228689571E+03  0.48083021607E+03  0.16500000000E+03 0.  0.
   -5000001    1    1    2    0    0 -0.88470520698E+02  0.96300069810E+02  0.77131116651E+03  0.79952901890E+03  0.16500000000E+03 0.  0.
<mgrwt>
<rscale>  0 0.43665945E+03</rscale>
<asrwt>0</asrwt>
<pdfrwt beam="1">  1        2 0.17742552E+00 0.43665945E+03</pdfrwt>
<pdfrwt beam="2">  1       -2 0.54829410E-02 0.43665945E+03</pdfrwt>
<totfact> 0.36290006E+03</totfact>
</mgrwt>
</event>
<event>
 4    1  0.5387486E-005  0.5915766E+03  0.7818608E-02  0.9923038E-01
          2   -1    0    0  501    0  0.00000000000E+00  0.00000000000E+00  0.88292691732E+03  0.88292691733E+03  0.25500000000E-02 0.  1.
         -2   -1    0    0    0  501 -0.00000000000E+00 -0.00000000000E+00 -0.99091703806E+02  0.99091703839E+02  0.25500000000E-02 0. -1.
    5000001    1    1    2    0    0  0.15499008811E+03 -0.12673757301E+03  0.62773957954E+03  0.67923951560E+03  0.16500000000E+03 0.  0.
   -5000001    1    1    2    0    0 -0.15499008811E+03  0.12673757301E+03  0.15609563397E+03  0.30277910557E+03  0.16500000000E+03 0.  0.
<mgrwt>
<rscale>  0 0.59157665E+03</rscale>
<asrwt>0</asrwt>
<pdfrwt beam="1">  1        2 0.12613242E+00 0.59157665E+03</pdfrwt>
<pdfrwt beam="2">  1       -2 0.14155958E-01 0.59157665E+03</pdfrwt>
<totfact> 0.12930840E+03</totfact>
</mgrwt>
</event>
<event>
 4    1  0.5387486E-005  0.5220361E+03  0.7818608E-02  0.1008182E+00
          2   -1    0    0  501    0  0.00000000000E+00  0.00000000000E+00  0.23646857264E+04  0.23646857264E+04  0.25500000000E-02 0.  1.
         -2   -1    0    0    0  501 -0.00000000000E+00 -0.00000000000E+00 -0.28811622746E+02  0.28811622859E+02  0.25500000000E-02 0. -1.
    5000001    1    1    2    0    0 -0.64438067259E+02 -0.18760654535E+03  0.98702391352E+03  0.10201910048E+04  0.16500000000E+03 0.  0.
   -5000001    1    1    2    0    0  0.64438067259E+02  0.18760654535E+03  0.13488501901E+04  0.13733063445E+04  0.16500000000E+03 0.  0.
<mgrwt>
<rscale>  0 0.52203614E+03</rscale>
<asrwt>0</asrwt>
<pdfrwt beam="1">  1        2 0.33781240E+00 0.52203614E+03</pdfrwt>
<pdfrwt beam="2">  1       -2 0.41159442E-02 0.52203614E+03</pdfrwt>
<totfact> 0.15104786E+03</totfact>
</mgrwt>
</event>
<event>
 4    1  0.5387486E-005  0.5294075E+03  0.7818608E-02  0.1006376E+00
         -2   -1    0    0    0  501 -0.00000000000E+00  0.00000000000E+00  0.56265989209E+02  0.56265989267E+02  0.25500000000E-02 0. -1.
          2   -1    0    0  501    0  0.00000000000E+00 -0.00000000000E+00 -0.12453008101E+04  0.12453008101E+04  0.25500000000E-02 0.  1.
    5000001    1    1    2    0    0 -0.14894779366E+03 -0.58714746026E+01 -0.24145296604E+03  0.32824450378E+03  0.16500000000E+03 0.  0.
   -5000001    1    1    2    0    0  0.14894779366E+03  0.58714746026E+01 -0.94758185484E+03  0.97332229558E+03  0.16500000000E+03 0.  0.
<mgrwt>
<rscale>  0 0.52940753E+03</rscale>
<asrwt>0</asrwt>
<pdfrwt beam="1">  1        2 0.17790010E+00 0.52940753E+03</pdfrwt>
<pdfrwt beam="2">  1       -2 0.80379992E-02 0.52940753E+03</pdfrwt>
<totfact> 0.19831050E+03</totfact>
</mgrwt>
</event>
<event>
 4    1  0.5387486E-005  0.5471610E+03  0.7818608E-02  0.1002153E+00
         -2   -1    0    0    0  501 -0.00000000000E+00  0.00000000000E+00  0.32704428013E+03  0.32704428014E+03  0.25500000000E-02 0. -1.
          2   -1    0    0  501    0  0.00000000000E+00 -0.00000000000E+00 -0.22885676002E+03  0.22885676003E+03  0.25500000000E-02 0.  1.
    5000001    1    1    2    0    0 -0.16576067362E+03  0.12374498672E+03 -0.21528243716E+02  0.26547671825E+03  0.16500000000E+03 0.  0.
   -5000001    1    1    2    0    0  0.16576067362E+03 -0.12374498672E+03  0.11971576383E+03  0.29042432192E+03  0.16500000000E+03 0.  0.
<mgrwt>
<rscale>  0 0.54716102E+03</rscale>
<asrwt>0</asrwt>
<pdfrwt beam="1">  1        2 0.32693823E-01 0.54716102E+03</pdfrwt>
<pdfrwt beam="2">  1       -2 0.46720611E-01 0.54716102E+03</pdfrwt>
<totfact> 0.70524629E+02</totfact>
</mgrwt>
</event>
<event>
 4    1  0.5387486E-005  0.4510259E+03  0.7818608E-02  0.1027417E+00
          2   -1    0    0  501    0  0.00000000000E+00  0.00000000000E+00  0.32236877132E+02  0.32236877233E+02  0.25500000000E-02 0.  1.
         -2   -1    0    0    0  501 -0.00000000000E+00 -0.00000000000E+00 -0.15775746233E+04  0.15775746233E+04  0.25500000000E-02 0. -1.
    5000001    1    1    2    0    0 -0.14280561485E+03  0.56883908697E+02 -0.76780544928E+03  0.80023710901E+03  0.16500000000E+03 0.  0.
   -5000001    1    1    2    0    0  0.14280561485E+03 -0.56883908697E+02 -0.77753229688E+03  0.80957439151E+03  0.16500000000E+03 0.  0.
<mgrwt>
<rscale>  0 0.45102585E+03</rscale>
<asrwt>0</asrwt>
<pdfrwt beam="1">  1        2 0.46052692E-02 0.45102585E+03</pdfrwt>
<pdfrwt beam="2">  1       -2 0.22536775E+00 0.45102585E+03</pdfrwt>
<totfact> 0.17529623E+02</totfact>
</mgrwt>
</event>
<event>
 4    1  0.5387486E-005  0.6352368E+03  0.7818608E-02  0.9834883E-01
         -2   -1    0    0    0  501 -0.00000000000E+00  0.00000000000E+00  0.35438312032E+02  0.35438312124E+02  0.25500000000E-02 0. -1.
          2   -1    0    0  501    0  0.00000000000E+00 -0.00000000000E+00 -0.28466775151E+04  0.28466775151E+04  0.25500000000E-02 0.  1.
    5000001    1    1    2    0    0 -0.77078002632E+02 -0.19968727935E+03 -0.21626505979E+04  0.21794721005E+04  0.16500000000E+03 0.  0.
   -5000001    1    1    2    0    0  0.77078002632E+02  0.19968727935E+03 -0.64858860513E+03  0.70264372674E+03  0.16500000000E+03 0.  0.
<mgrwt>
<rscale>  0 0.63523679E+03</rscale>
<asrwt>0</asrwt>
<pdfrwt beam="1">  1        2 0.40666807E+00 0.63523679E+03</pdfrwt>
<pdfrwt beam="2">  1       -2 0.50626178E-02 0.63523679E+03</pdfrwt>
<totfact> 0.61204832E+02</totfact>
</mgrwt>
</event>
<event>
 4    1  0.5387486E-005  0.5678498E+03  0.7818608E-02  0.9974448E-01
          2   -1    0    0  501    0  0.00000000000E+00  0.00000000000E+00  0.28393700165E+03  0.28393700166E+03  0.25500000000E-02 0.  1.
         -2   -1    0    0    0  501 -0.00000000000E+00 -0.00000000000E+00 -0.28391276154E+03  0.28391276155E+03  0.25500000000E-02 0. -1.
    5000001    1    1    2    0    0  0.81884156253E+02  0.77121781041E+02  0.20184262857E+03  0.28393349726E+03  0.16500000000E+03 0.  0.
   -5000001    1    1    2    0    0 -0.81884156253E+02 -0.77121781041E+02 -0.20181838846E+03  0.28391626596E+03  0.16500000000E+03 0.  0.
<mgrwt>
<rscale>  0 0.56784976E+03</rscale>
<asrwt>0</asrwt>
<pdfrwt beam="1">  1        2 0.40562429E-01 0.56784976E+03</pdfrwt>
<pdfrwt beam="2">  1       -2 0.40558966E-01 0.56784976E+03</pdfrwt>
<totfact> 0.73353121E+02</totfact>
</mgrwt>
</event>
<event>
 4    1  0.5387486E-005  0.8078416E+03  0.7818608E-02  0.9548736E-01
          2   -1    0    0  501    0  0.00000000000E+00  0.00000000000E+00  0.72838469892E+03  0.72838469892E+03  0.25500000000E-02 0.  1.
         -2   -1    0    0    0  501 -0.00000000000E+00 -0.00000000000E+00 -0.22399153936E+03  0.22399153938E+03  0.25500000000E-02 0. -1.
    5000001    1    1    2    0    0  0.29970291586E+03 -0.21331965631E+03  0.28107147901E+03  0.49148071158E+03  0.16500000000E+03 0.  0.
   -5000001    1    1    2    0    0 -0.29970291586E+03  0.21331965631E+03  0.22332168055E+03  0.46089552672E+03  0.16500000000E+03 0.  0.
<mgrwt>
<rscale>  0 0.80784159E+03</rscale>
<asrwt>0</asrwt>
<pdfrwt beam="1">  1        2 0.10405496E+00 0.80784159E+03</pdfrwt>
<pdfrwt beam="2">  1       -2 0.31998791E-01 0.80784159E+03</pdfrwt>
<totfact> 0.39022653E+02</totfact>
</mgrwt>
</event>
<event>
 4    1  0.5387486E-005  0.3656649E+03  0.7818608E-02  0.1056363E+00
          2   -1    0    0  501    0  0.00000000000E+00  0.00000000000E+00  0.75237831229E+03  0.75237831229E+03  0.25500000000E-02 0.  1.
         -2   -1    0    0    0  501 -0.00000000000E+00 -0.00000000000E+00 -0.44429377368E+02  0.44429377442E+02  0.25500000000E-02 0. -1.
    5000001    1    1    2    0    0  0.67319151290E+02 -0.37704935508E+02  0.31957767967E+03  0.36784293338E+03  0.16500000000E+03 0.  0.
   -5000001    1    1    2    0    0 -0.67319151290E+02  0.37704935508E+02  0.38837125525E+03  0.42896475636E+03  0.16500000000E+03 0.  0.
<mgrwt>
<rscale>  0 0.36566487E+03</rscale>
<asrwt>0</asrwt>
<pdfrwt beam="1">  1        2 0.10748262E+00 0.36566487E+03</pdfrwt>
<pdfrwt beam="2">  1       -2 0.63470536E-02 0.36566487E+03</pdfrwt>
<totfact> 0.57378090E+03</totfact>
</mgrwt>
</event>
<event>
 4    1  0.5387486E-005  0.9186540E+03  0.7818608E-02  0.9402559E-01
          2   -1    0    0  501    0  0.00000000000E+00  0.00000000000E+00  0.42018224680E+03  0.42018224681E+03  0.25500000000E-02 0.  1.
         -2   -1    0    0    0  501 -0.00000000000E+00 -0.00000000000E+00 -0.50211852754E+03  0.50211852754E+03  0.25500000000E-02 0. -1.
    5000001    1    1    2    0    0  0.34186427864E+03  0.34418038467E+02  0.21637047368E+03  0.43828868142E+03  0.16500000000E+03 0.  0.
   -5000001    1    1    2    0    0 -0.34186427864E+03 -0.34418038467E+02 -0.29830675441E+03  0.48401209294E+03  0.16500000000E+03 0.  0.
<mgrwt>
<rscale>  0 0.91865400E+03</rscale>
<asrwt>0</asrwt>
<pdfrwt beam="1">  1        2 0.60026035E-01 0.91865400E+03</pdfrwt>
<pdfrwt beam="2">  1       -2 0.71731218E-01 0.91865400E+03</pdfrwt>
<totfact> 0.14462080E+02</totfact>
</mgrwt>
</event>
<event>
 4    1  0.5387486E-005  0.6934127E+03  0.7818608E-02  0.9728564E-01
          2   -1    0    0  501    0  0.00000000000E+00  0.00000000000E+00  0.24600675833E+04  0.24600675833E+04  0.25500000000E-02 0.  1.
         -2   -1    0    0    0  501 -0.00000000000E+00 -0.00000000000E+00 -0.48862596444E+02  0.48862596510E+02  0.25500000000E-02 0. -1.
    5000001    1    1    2    0    0 -0.24537599974E+03  0.17972203442E+03  0.11270860624E+04  0.11790069478E+04  0.16500000000E+03 0.  0.
   -5000001    1    1    2    0    0  0.24537599974E+03 -0.17972203442E+03  0.12841189245E+04  0.13299232321E+04  0.16500000000E+03 0.  0.
<mgrwt>
<rscale>  0 0.69341269E+03</rscale>
<asrwt>0</asrwt>
<pdfrwt beam="1">  1        2 0.35143810E+00 0.69341269E+03</pdfrwt>
<pdfrwt beam="2">  1       -2 0.69803735E-02 0.69341269E+03</pdfrwt>
<totfact> 0.58606477E+02</totfact>
</mgrwt>
</event>
<event>
 4    1  0.5387486E-005  0.7093007E+03  0.7818608E-02  0.9701458E-01
          2   -1    0    0  501    0  0.00000000000E+00  0.00000000000E+00  0.16813824482E+03  0.16813824484E+03  0.25500000000E-02 0.  1.
         -2   -1    0    0    0  501 -0.00000000000E+00 -0.00000000000E+00 -0.74805636213E+03  0.74805636213E+03  0.25500000000E-02 0. -1.
    5000001    1    1    2    0    0 -0.76072044577E+00  0.30350914357E+03 -0.18635395820E+03  0.39251901440E+03  0.16500000000E+03 0.  0.
   -5000001    1    1    2    0    0  0.76072044577E+00 -0.30350914357E+03 -0.39356415911E+03  0.52367559258E+03  0.16500000000E+03 0.  0.
<mgrwt>
<rscale>  0 0.70930074E+03</rscale>
<asrwt>0</asrwt>
<pdfrwt beam="1">  1        2 0.24019750E-01 0.70930074E+03</pdfrwt>
<pdfrwt beam="2">  1       -2 0.10686519E+00 0.70930074E+03</pdfrwt>
<totfact> 0.16333847E+02</totfact>
</mgrwt>
</event>
<event>
 4    1  0.5387486E-005  0.4556738E+03  0.7818608E-02  0.1026043E+00
         -2   -1    0    0    0  501 -0.00000000000E+00  0.00000000000E+00  0.32150450523E+02  0.32150450624E+02  0.25500000000E-02 0. -1.
          2   -1    0    0  501    0  0.00000000000E+00 -0.00000000000E+00 -0.16145857890E+04  0.16145857890E+04  0.25500000000E-02 0.  1.
    5000001    1    1    2    0    0  0.12240148317E+03  0.93820910052E+01 -0.11455686331E+04  0.11638825713E+04  0.16500000000E+03 0.  0.
   -5000001    1    1    2    0    0 -0.12240148317E+03 -0.93820910052E+01 -0.43686670535E+03  0.48285366826E+03  0.16500000000E+03 0.  0.
<mgrwt>
<rscale>  0 0.45567383E+03</rscale>
<asrwt>0</asrwt>
<pdfrwt beam="1">  1        2 0.23065506E+00 0.45567383E+03</pdfrwt>
<pdfrwt beam="2">  1       -2 0.45929225E-02 0.45567383E+03</pdfrwt>
<totfact> 0.30418992E+03</totfact>
</mgrwt>
</event>
<event>
 4    1  0.5387486E-005  0.4493047E+03  0.7818608E-02  0.1027930E+00
          2   -1    0    0  501    0  0.00000000000E+00  0.00000000000E+00  0.12520951675E+04  0.12520951675E+04  0.25500000000E-02 0.  1.
         -2   -1    0    0    0  501 -0.00000000000E+00 -0.00000000000E+00 -0.40307379355E+02  0.40307379436E+02  0.25500000000E-02 0. -1.
    5000001    1    1    2    0    0 -0.77619122267E+02  0.11551287295E+03  0.42681961009E+03  0.47829690728E+03  0.16500000000E+03 0.  0.
   -5000001    1    1    2    0    0  0.77619122267E+02 -0.11551287295E+03  0.78496817802E+03  0.81410563962E+03  0.16500000000E+03 0.  0.
<mgrwt>
<rscale>  0 0.44930468E+03</rscale>
<asrwt>0</asrwt>
<pdfrwt beam="1">  1        2 0.17887073E+00 0.44930468E+03</pdfrwt>
<pdfrwt beam="2">  1       -2 0.57581975E-02 0.44930468E+03</pdfrwt>
<totfact> 0.33215803E+03</totfact>
</mgrwt>
</event>
<event>
 4    1  0.5387486E-005  0.4022848E+03  0.7818608E-02  0.1042991E+00
         -2   -1    0    0    0  501 -0.00000000000E+00  0.00000000000E+00  0.28247827893E+03  0.28247827895E+03  0.25500000000E-02 0. -1.
          2   -1    0    0  501    0  0.00000000000E+00 -0.00000000000E+00 -0.14322609973E+03  0.14322609975E+03  0.25500000000E-02 0.  1.
    5000001    1    1    2    0    0 -0.76682911018E+02  0.79683659229E+02  0.36103706980E+02  0.20188668121E+03  0.16500000000E+03 0.  0.
   -5000001    1    1    2    0    0  0.76682911018E+02 -0.79683659229E+02  0.10314847222E+03  0.22381769749E+03  0.16500000000E+03 0.  0.
<mgrwt>
<rscale>  0 0.40228479E+03</rscale>
<asrwt>0</asrwt>
<pdfrwt beam="1">  1        2 0.20460872E-01 0.40228479E+03</pdfrwt>
<pdfrwt beam="2">  1       -2 0.40354039E-01 0.40228479E+03</pdfrwt>
<totfact> 0.15968378E+03</totfact>
</mgrwt>
</event>
<event>
 4    1  0.5387486E-005  0.8176327E+03  0.7818608E-02  0.9534839E-01
         -2   -1    0    0    0  501 -0.00000000000E+00  0.00000000000E+00  0.10807506551E+03  0.10807506554E+03  0.25500000000E-02 0. -1.
          2   -1    0    0  501    0  0.00000000000E+00 -0.00000000000E+00 -0.15464327560E+04  0.15464327560E+04  0.25500000000E-02 0.  1.
    5000001    1    1    2    0    0  0.76104897509E+02 -0.34585828063E+03 -0.47554737677E+03  0.61545122736E+03  0.16500000000E+03 0.  0.
   -5000001    1    1    2    0    0 -0.76104897509E+02  0.34585828063E+03 -0.96281031373E+03  0.10390565942E+04  0.16500000000E+03 0.  0.
<mgrwt>
<rscale>  0 0.81763273E+03</rscale>
<asrwt>0</asrwt>
<pdfrwt beam="1">  1        2 0.22091895E+00 0.81763273E+03</pdfrwt>
<pdfrwt beam="2">  1       -2 0.15439296E-01 0.81763273E+03</pdfrwt>
<totfact> 0.46402008E+02</totfact>
</mgrwt>
</event>
<event>
 4    1  0.5387486E-005  0.4667452E+03  0.7818608E-02  0.1022843E+00
          2   -1    0    0  501    0  0.00000000000E+00  0.00000000000E+00  0.28709445116E+03  0.28709445117E+03  0.25500000000E-02 0.  1.
         -2   -1    0    0    0  501 -0.00000000000E+00 -0.00000000000E+00 -0.18970333613E+03  0.18970333615E+03  0.25500000000E-02 0. -1.
    5000001    1    1    2    0    0 -0.16162330008E+03  0.32955579656E+02  0.43136495121E+02  0.23726339492E+03  0.16500000000E+03 0.  0.
   -5000001    1    1    2    0    0  0.16162330008E+03 -0.32955579656E+02  0.54254619903E+02  0.23953439240E+03  0.16500000000E+03 0.  0.
<mgrwt>
<rscale>  0 0.46674522E+03</rscale>
<asrwt>0</asrwt>
<pdfrwt beam="1">  1        2 0.41013493E-01 0.46674522E+03</pdfrwt>
<pdfrwt beam="2">  1       -2 0.27100477E-01 0.46674522E+03</pdfrwt>
<totfact> 0.15422929E+03</totfact>
</mgrwt>
</event>
<event>
 4    1  0.5387486E-005  0.5527910E+03  0.7818608E-02  0.1000850E+00
         -2   -1    0    0    0  501 -0.00000000000E+00  0.00000000000E+00  0.63933579300E+03  0.63933579300E+03  0.25500000000E-02 0.  1.
          2   -1    0    0  501    0  0.00000000000E+00 -0.00000000000E+00 -0.11949035345E+03  0.11949035348E+03  0.25500000000E-02 0. -1.
    5000001    1    1    2    0    0  0.19996982966E+03 -0.57843501542E+02  0.36478667078E+03  0.45125172424E+03  0.16500000000E+03 0.  0.
   -5000001    1    1    2    0    0 -0.19996982966E+03  0.57843501542E+02  0.15505876877E+03  0.30757442224E+03  0.16500000000E+03 0.  0.
<mgrwt>
<rscale>  0 0.55279095E+03</rscale>
<asrwt>0</asrwt>
<pdfrwt beam="1">  1        2 0.17070050E-01 0.55279095E+03</pdfrwt>
<pdfrwt beam="2">  1       -2 0.91333688E-01 0.55279095E+03</pdfrwt>
<totfact> 0.35414030E+02</totfact>
</mgrwt>
</event>
<event>
 4    1  0.5387486E-005  0.6912645E+03  0.7818608E-02  0.9732289E-01
         -2   -1    0    0    0  501 -0.00000000000E+00  0.00000000000E+00  0.45600904333E+03  0.45600904334E+03  0.25500000000E-02 0. -1.
          2   -1    0    0  501    0  0.00000000000E+00 -0.00000000000E+00 -0.26197214529E+03  0.26197214530E+03  0.25500000000E-02 0.  1.
    5000001    1    1    2    0    0  0.25866985991E+03  0.11357703099E+03 -0.18765656405E+02  0.32769953960E+03  0.16500000000E+03 0.  0.
   -5000001    1    1    2    0    0 -0.25866985991E+03 -0.11357703099E+03  0.21280255444E+03  0.39028164904E+03  0.16500000000E+03 0.  0.
<mgrwt>
<rscale>  0 0.69126454E+03</rscale>
<asrwt>0</asrwt>
<pdfrwt beam="1">  1        2 0.37424592E-01 0.69126454E+03</pdfrwt>
<pdfrwt beam="2">  1       -2 0.65144149E-01 0.69126454E+03</pdfrwt>
<totfact> 0.30423576E+02</totfact>
</mgrwt>
</event>
<event>
 4    1  0.5387486E-005  0.3921858E+03  0.7818608E-02  0.1046520E+00
         -2   -1    0    0    0  501 -0.00000000000E+00  0.00000000000E+00  0.20911596896E+03  0.20911596897E+03  0.25500000000E-02 0.  1.
          2   -1    0    0  501    0  0.00000000000E+00 -0.00000000000E+00 -0.18388088737E+03  0.18388088738E+03  0.25500000000E-02 0. -1.
    5000001    1    1    2    0    0 -0.47669455472E+02  0.85664691224E+02  0.52907822545E+02  0.19908554441E+03  0.16500000000E+03 0.  0.
   -5000001    1    1    2    0    0  0.47669455472E+02 -0.85664691224E+02 -0.27672740954E+02  0.19391131194E+03  0.16500000000E+03 0.  0.
<mgrwt>
<rscale>  0 0.39218582E+03</rscale>
<asrwt>0</asrwt>
<pdfrwt beam="1">  1        2 0.26268698E-01 0.39218582E+03</pdfrwt>
<pdfrwt beam="2">  1       -2 0.29873710E-01 0.39218582E+03</pdfrwt>
<totfact> 0.21118770E+03</totfact>
</mgrwt>
</event>
<event>
 4    1  0.5387486E-005  0.4742273E+03  0.7818608E-02  0.1020734E+00
          2   -1    0    0  501    0  0.00000000000E+00  0.00000000000E+00  0.34930050258E+03  0.34930050259E+03  0.25500000000E-02 0.  1.
         -2   -1    0    0    0  501 -0.00000000000E+00 -0.00000000000E+00 -0.16095850715E+03  0.16095850717E+03  0.25500000000E-02 0. -1.
    5000001    1    1    2    0    0 -0.16633419061E+03 -0.20603455435E+02  0.12656356730E+03  0.26708594480E+03  0.16500000000E+03 0.  0.
   -5000001    1    1    2    0    0  0.16633419061E+03  0.20603455435E+02  0.61778428139E+02  0.24317306497E+03  0.16500000000E+03 0.  0.
<mgrwt>
<rscale>  0 0.47422732E+03</rscale>
<asrwt>0</asrwt>
<pdfrwt beam="1">  1        2 0.49900071E-01 0.47422732E+03</pdfrwt>
<pdfrwt beam="2">  1       -2 0.22994073E-01 0.47422732E+03</pdfrwt>
<totfact> 0.16685332E+03</totfact>
</mgrwt>
</event>
<event>
 4    1  0.5387486E-005  0.1051014E+04  0.7818608E-02  0.9254298E-01
          2   -1    0    0  501    0  0.00000000000E+00  0.00000000000E+00  0.38742269753E+04  0.38742269753E+04  0.25500000000E-02 0. -1.
         -2   -1    0    0    0  501 -0.00000000000E+00 -0.00000000000E+00 -0.71280667519E+02  0.71280667565E+02  0.25500000000E-02 0.  1.
    5000001    1    1    2    0    0  0.45734531826E+03 -0.15094160926E+03  0.23907101320E+04  0.24443134097E+04  0.16500000000E+03 0.  0.
   -5000001    1    1    2    0    0 -0.45734531826E+03  0.15094160926E+03  0.14122361758E+04  0.15011942332E+04  0.16500000000E+03 0.  0.
<mgrwt>
<rscale>  0 0.10510138E+04</rscale>
<asrwt>0</asrwt>
<pdfrwt beam="1">  1        2 0.55346104E+00 0.10510138E+04</pdfrwt>
<pdfrwt beam="2">  1       -2 0.10182952E-01 0.10510138E+04</pdfrwt>
<totfact> 0.47980963E+01</totfact>
</mgrwt>
</event>
<event>
 4    1  0.5387486E-005  0.4225336E+03  0.7818608E-02  0.1036245E+00
          2   -1    0    0  501    0  0.00000000000E+00  0.00000000000E+00  0.51091702316E+02  0.51091702380E+02  0.25500000000E-02 0.  1.
         -2   -1    0    0    0  501 -0.00000000000E+00 -0.00000000000E+00 -0.87359906154E+03  0.87359906155E+03  0.25500000000E-02 0. -1.
    5000001    1    1    2    0    0  0.12706975627E+03 -0.33808567459E+02 -0.38738850599E+03  0.44111744101E+03  0.16500000000E+03 0.  0.
   -5000001    1    1    2    0    0 -0.12706975627E+03  0.33808567459E+02 -0.43511885324E+03  0.48357332292E+03  0.16500000000E+03 0.  0.
<mgrwt>
<rscale>  0 0.42253361E+03</rscale>
<asrwt>0</asrwt>
<pdfrwt beam="1">  1        2 0.72988152E-02 0.42253361E+03</pdfrwt>
<pdfrwt beam="2">  1       -2 0.12479986E+00 0.42253361E+03</pdfrwt>
<totfact> 0.48554802E+02</totfact>
</mgrwt>
</event>
<event>
 4    1  0.5387486E-005  0.1022396E+04  0.7818608E-02  0.9284317E-01
          2   -1    0    0  501    0  0.00000000000E+00  0.00000000000E+00  0.13757942798E+04  0.13757942798E+04  0.25500000000E-02 0.  1.
         -2   -1    0    0    0  501 -0.00000000000E+00 -0.00000000000E+00 -0.18994368364E+03  0.18994368366E+03  0.25500000000E-02 0. -1.
    5000001    1    1    2    0    0 -0.15062191986E+03 -0.42286060474E+03  0.31641504655E+03  0.57344706422E+03  0.16500000000E+03 0.  0.
   -5000001    1    1    2    0    0  0.15062191986E+03  0.42286060474E+03  0.86943554961E+03  0.99229089923E+03  0.16500000000E+03 0.  0.
<mgrwt>
<rscale>  0 0.10223961E+04</rscale>
<asrwt>0</asrwt>
<pdfrwt beam="1">  1        2 0.19654204E+00 0.10223961E+04</pdfrwt>
<pdfrwt beam="2">  1       -2 0.27134812E-01 0.10223961E+04</pdfrwt>
<totfact> 0.20951853E+02</totfact>
</mgrwt>
</event>
<event>
 4    1  0.5387486E-005  0.5656339E+03  0.7818608E-02  0.9979387E-01
         -2   -1    0    0    0  501 -0.00000000000E+00  0.00000000000E+00  0.62884782798E+02  0.62884782849E+02  0.25500000000E-02 0. -1.
          2   -1    0    0  501    0  0.00000000000E+00 -0.00000000000E+00 -0.12719359171E+04  0.12719359171E+04  0.25500000000E-02 0.  1.
    5000001    1    1    2    0    0  0.22709764558E+03  0.11579933860E+02 -0.68110237780E+03  0.73677193523E+03  0.16500000000E+03 0.  0.
   -5000001    1    1    2    0    0 -0.22709764558E+03 -0.11579933860E+02 -0.52794875653E+03  0.59804876475E+03  0.16500000000E+03 0.  0.
<mgrwt>
<rscale>  0 0.56563385E+03</rscale>
<asrwt>0</asrwt>
<pdfrwt beam="1">  1        2 0.18170512E+00 0.56563385E+03</pdfrwt>
<pdfrwt beam="2">  1       -2 0.89835412E-02 0.56563385E+03</pdfrwt>
<totfact> 0.16042519E+03</totfact>
</mgrwt>
</event>
<event>
 4    1  0.5387486E-005  0.4183564E+03  0.7818608E-02  0.1037603E+00
         -2   -1    0    0    0  501 -0.00000000000E+00  0.00000000000E+00  0.11513966902E+04  0.11513966902E+04  0.25500000000E-02 0. -1.
          2   -1    0    0  501    0  0.00000000000E+00 -0.00000000000E+00 -0.38002122769E+02  0.38002122854E+02  0.25500000000E-02 0.  1.
    5000001    1    1    2    0    0  0.85864987453E+02  0.87338699171E+02  0.44550349493E+03  0.49061105617E+03  0.16500000000E+03 0.  0.
   -5000001    1    1    2    0    0 -0.85864987453E+02 -0.87338699171E+02  0.66789107247E+03  0.69878775685E+03  0.16500000000E+03 0.  0.
<mgrwt>
<rscale>  0 0.41835640E+03</rscale>
<asrwt>0</asrwt>
<pdfrwt beam="1">  1        2 0.54288750E-02 0.41835640E+03</pdfrwt>
<pdfrwt beam="2">  1       -2 0.16448523E+00 0.41835640E+03</pdfrwt>
<totfact> 0.35169993E+02</totfact>
</mgrwt>
</event>
<event>
 4    1  0.5387486E-005  0.9451503E+03  0.7818608E-02  0.9370837E-01
          2   -1    0    0  501    0  0.00000000000E+00  0.00000000000E+00  0.29887590479E+03  0.29887590480E+03  0.25500000000E-02 0.  1.
         -2   -1    0    0    0  501 -0.00000000000E+00 -0.00000000000E+00 -0.74722406942E+03  0.74722406942E+03  0.25500000000E-02 0. -1.
    5000001    1    1    2    0    0 -0.43770153884E+03  0.66810257784E+02 -0.21588984834E+03  0.51949944587E+03  0.16500000000E+03 0.  0.
   -5000001    1    1    2    0    0  0.43770153884E+03 -0.66810257784E+02 -0.23245831629E+03  0.52660052835E+03  0.16500000000E+03 0.  0.
<mgrwt>
<rscale>  0 0.94515029E+03</rscale>
<asrwt>0</asrwt>
<pdfrwt beam="1">  1        2 0.42696558E-01 0.94515029E+03</pdfrwt>
<pdfrwt beam="2">  1       -2 0.10674630E+00 0.94515029E+03</pdfrwt>
<totfact> 0.84731109E+01</totfact>
</mgrwt>
</event>
<event>
 4    1  0.5387486E-005  0.6532906E+03  0.7818608E-02  0.9800624E-01
         -2   -1    0    0    0  501 -0.00000000000E+00  0.00000000000E+00  0.25482452481E+03  0.25482452482E+03  0.25500000000E-02 0. -1.
          2   -1    0    0  501    0  0.00000000000E+00 -0.00000000000E+00 -0.41870832525E+03  0.41870832525E+03  0.25500000000E-02 0.  1.
    5000001    1    1    2    0    0  0.24225883316E+03  0.13142684336E+03 -0.14302106719E+03  0.35162818866E+03  0.16500000000E+03 0.  0.
   -5000001    1    1    2    0    0 -0.24225883316E+03 -0.13142684336E+03 -0.20862733256E+02  0.32190466141E+03  0.16500000000E+03 0.  0.
<mgrwt>
<rscale>  0 0.65329059E+03</rscale>
<asrwt>0</asrwt>
<pdfrwt beam="1">  1        2 0.59815475E-01 0.65329059E+03</pdfrwt>
<pdfrwt beam="2">  1       -2 0.36403504E-01 0.65329059E+03</pdfrwt>
<totfact> 0.58691598E+02</totfact>
</mgrwt>
</event>
<event>
 4    1  0.5387486E-005  0.5057715E+03  0.7818608E-02  0.1012283E+00
         -2   -1    0    0    0  501 -0.00000000000E+00  0.00000000000E+00  0.12166983851E+03  0.12166983854E+03  0.25500000000E-02 0. -1.
          2   -1    0    0  501    0  0.00000000000E+00 -0.00000000000E+00 -0.52561272306E+03  0.52561272307E+03  0.25500000000E-02 0.  1.
    5000001    1    1    2    0    0  0.17376230957E+03  0.49037480215E+02 -0.11974340967E+03  0.27232608918E+03  0.16500000000E+03 0.  0.
   -5000001    1    1    2    0    0 -0.17376230957E+03 -0.49037480215E+02 -0.28419947488E+03  0.37495647243E+03  0.16500000000E+03 0.  0.
<mgrwt>
<rscale>  0 0.50577155E+03</rscale>
<asrwt>0</asrwt>
<pdfrwt beam="1">  1        2 0.75087531E-01 0.50577155E+03</pdfrwt>
<pdfrwt beam="2">  1       -2 0.17381406E-01 0.50577155E+03</pdfrwt>
<totfact> 0.17206384E+03</totfact>
</mgrwt>
</event>
<event>
 4    1  0.5387486E-005  0.4801011E+03  0.7818608E-02  0.1019107E+00
          2   -1    0    0  501    0  0.00000000000E+00  0.00000000000E+00  0.29500965874E+04  0.29500965874E+04  0.25500000000E-02 0.  1.
         -2   -1    0    0    0  501 -0.00000000000E+00 -0.00000000000E+00 -0.19533009728E+02  0.19533009894E+02  0.25500000000E-02 0. -1.
    5000001    1    1    2    0    0  0.16496988031E+03 -0.55616747380E+02  0.14062825576E+04  0.14265917131E+04  0.16500000000E+03 0.  0.
   -5000001    1    1    2    0    0 -0.16496988031E+03  0.55616747380E+02  0.15242810201E+04  0.15430378842E+04  0.16500000000E+03 0.  0.
<mgrwt>
<rscale>  0 0.48010110E+03</rscale>
<asrwt>0</asrwt>
<pdfrwt beam="1">  1        2 0.42144250E+00 0.48010110E+03</pdfrwt>
<pdfrwt beam="2">  1       -2 0.27904291E-02 0.48010110E+03</pdfrwt>
<totfact> 0.13593556E+03</totfact>
</mgrwt>
</event>
<event>
 4    1  0.5387486E-005  0.4475220E+03  0.7818608E-02  0.1028464E+00
         -2   -1    0    0    0  501 -0.00000000000E+00  0.00000000000E+00  0.33218903061E+03  0.33218903062E+03  0.25500000000E-02 0. -1.
          2   -1    0    0  501    0  0.00000000000E+00 -0.00000000000E+00 -0.15072439722E+03  0.15072439724E+03  0.25500000000E-02 0.  1.
    5000001    1    1    2    0    0  0.56879421445E+02 -0.12200897595E+03  0.16488764248E+03  0.26932209980E+03  0.16500000000E+03 0.  0.
   -5000001    1    1    2    0    0 -0.56879421445E+02  0.12200897595E+03  0.16576990909E+02  0.21359132806E+03  0.16500000000E+03 0.  0.
<mgrwt>
<rscale>  0 0.44752203E+03</rscale>
<asrwt>0</asrwt>
<pdfrwt beam="1">  1        2 0.21532057E-01 0.44752203E+03</pdfrwt>
<pdfrwt beam="2">  1       -2 0.47455576E-01 0.44752203E+03</pdfrwt>
<totfact> 0.10965162E+03</totfact>
</mgrwt>
</event>
<event>
 4    1  0.5387486E-005  0.7818796E+03  0.7818608E-02  0.9586622E-01
         -2   -1    0    0    0  501 -0.00000000000E+00  0.00000000000E+00  0.58569839529E+02  0.58569839584E+02  0.25500000000E-02 0. -1.
          2   -1    0    0  501    0  0.00000000000E+00 -0.00000000000E+00 -0.26094306710E+04  0.26094306710E+04  0.25500000000E-02 0.  1.
    5000001    1    1    2    0    0 -0.11799166102E+03  0.32907386226E+03 -0.10765405008E+04  0.11438426853E+04  0.16500000000E+03 0.  0.
   -5000001    1    1    2    0    0  0.11799166102E+03 -0.32907386226E+03 -0.14743203307E+04  0.15241578253E+04  0.16500000000E+03 0.  0.
<mgrwt>
<rscale>  0 0.78187962E+03</rscale>
<asrwt>0</asrwt>
<pdfrwt beam="1">  1        2 0.37277574E+00 0.78187962E+03</pdfrwt>
<pdfrwt beam="2">  1       -2 0.83671216E-02 0.78187962E+03</pdfrwt>
<totfact> 0.36469921E+02</totfact>
</mgrwt>
</event>
<event>
 4    1  0.5387486E-005  0.5347281E+03  0.7818608E-02  0.1005092E+00
         -2   -1    0    0    0  501 -0.00000000000E+00  0.00000000000E+00  0.47353935050E+02  0.47353935118E+02  0.25500000000E-02 0. -1.
          2   -1    0    0  501    0  0.00000000000E+00 -0.00000000000E+00 -0.15095585068E+04  0.15095585068E+04  0.25500000000E-02 0.  1.
    5000001    1    1    2    0    0 -0.34026010551E+01  0.96546025264E+02 -0.18696998808E+03  0.26742380061E+03  0.16500000000E+03 0.  0.
   -5000001    1    1    2    0    0  0.34026010551E+01 -0.96546025264E+02 -0.12752345837E+04  0.12894886413E+04  0.16500000000E+03 0.  0.
<mgrwt>
<rscale>  0 0.53472810E+03</rscale>
<asrwt>0</asrwt>
<pdfrwt beam="1">  1        2 0.21565119E+00 0.53472810E+03</pdfrwt>
<pdfrwt beam="2">  1       -2 0.67648488E-02 0.53472810E+03</pdfrwt>
<totfact> 0.18839796E+03</totfact>
</mgrwt>
</event>
<event>
 4    1  0.5387486E-005  0.4387411E+03  0.7818608E-02  0.1031134E+00
         -2   -1    0    0    0  501 -0.00000000000E+00  0.00000000000E+00  0.28489458194E+02  0.28489458308E+02  0.25500000000E-02 0. -1.
          2   -1    0    0  501    0  0.00000000000E+00 -0.00000000000E+00 -0.16891661293E+04  0.16891661293E+04  0.25500000000E-02 0.  1.
    5000001    1    1    2    0    0 -0.35333759854E+02  0.13947756925E+03 -0.88514238554E+03  0.91181385687E+03  0.16500000000E+03 0.  0.
   -5000001    1    1    2    0    0  0.35333759854E+02 -0.13947756925E+03 -0.77553428561E+03  0.80584173078E+03  0.16500000000E+03 0.  0.
<mgrwt>
<rscale>  0 0.43874105E+03</rscale>
<asrwt>0</asrwt>
<pdfrwt beam="1">  1        2 0.24130938E+00 0.43874105E+03</pdfrwt>
<pdfrwt beam="2">  1       -2 0.40699237E-02 0.43874105E+03</pdfrwt>
<totfact> 0.33566316E+03</totfact>
</mgrwt>
</event>
<event>
 4    1  0.5387486E-005  0.5105378E+03  0.7818608E-02  0.1011064E+00
          2   -1    0    0  501    0  0.00000000000E+00  0.00000000000E+00  0.11426937064E+03  0.11426937066E+03  0.25500000000E-02 0.  1.
         -2   -1    0    0    0  501 -0.00000000000E+00 -0.00000000000E+00 -0.57025092809E+03  0.57025092810E+03  0.25500000000E-02 0. -1.
    5000001    1    1    2    0    0  0.18165369701E+03  0.65835012424E+02 -0.26096695308E+03  0.36422666720E+03  0.16500000000E+03 0.  0.
   -5000001    1    1    2    0    0 -0.18165369701E+03 -0.65835012424E+02 -0.19501460437E+03  0.32029363156E+03  0.16500000000E+03 0.  0.
<mgrwt>
<rscale>  0 0.51053781E+03</rscale>
<asrwt>0</asrwt>
<pdfrwt beam="1">  1        2 0.16324196E-01 0.51053781E+03</pdfrwt>
<pdfrwt beam="2">  1       -2 0.81464417E-01 0.51053781E+03</pdfrwt>
<totfact> 0.48455180E+02</totfact>
</mgrwt>
</event>
<event>
 4    1  0.5387486E-005  0.7927439E+03  0.7818608E-02  0.9570580E-01
          2   -1    0    0  501    0  0.00000000000E+00  0.00000000000E+00  0.11012191175E+04  0.11012191175E+04  0.25500000000E-02 0.  1.
         -2   -1    0    0    0  501 -0.00000000000E+00 -0.00000000000E+00 -0.14266982158E+03  0.14266982160E+03  0.25500000000E-02 0. -1.
    5000001    1    1    2    0    0  0.26001273495E+03 -0.75858983077E+02  0.85232473877E+03  0.90941941258E+03  0.16500000000E+03 0.  0.
   -5000001    1    1    2    0    0 -0.26001273495E+03  0.75858983077E+02  0.10622455719E+03  0.33446952656E+03  0.16500000000E+03 0.  0.
<mgrwt>
<rscale>  0 0.79274393E+03</rscale>
<asrwt>0</asrwt>
<pdfrwt beam="1">  1        2 0.15731702E+00 0.79274393E+03</pdfrwt>
<pdfrwt beam="2">  1       -2 0.20381403E-01 0.79274393E+03</pdfrwt>
<totfact> 0.50508240E+02</totfact>
</mgrwt>
</event>
<event>
 4    1  0.5387486E-005  0.4075639E+03  0.7818608E-02  0.1041192E+00
          2   -1    0    0  501    0  0.00000000000E+00  0.00000000000E+00  0.30969102717E+03  0.30969102718E+03  0.25500000000E-02 0.  1.
         -2   -1    0    0    0  501 -0.00000000000E+00 -0.00000000000E+00 -0.13409198191E+03  0.13409198194E+03  0.25500000000E-02 0. -1.
    5000001    1    1    2    0    0  0.14862170676E+02 -0.11075500680E+03  0.41416740745E+02  0.20353845352E+03  0.16500000000E+03 0.  0.
   -5000001    1    1    2    0    0 -0.14862170676E+02  0.11075500680E+03  0.13418230452E+03  0.24024455560E+03  0.16500000000E+03 0.  0.
<mgrwt>
<rscale>  0 0.40756390E+03</rscale>
<asrwt>0</asrwt>
<pdfrwt beam="1">  1        2 0.44241575E-01 0.40756390E+03</pdfrwt>
<pdfrwt beam="2">  1       -2 0.19155997E-01 0.40756390E+03</pdfrwt>
<totfact> 0.26112834E+03</totfact>
</mgrwt>
</event>
<event>
 4    1  0.5387486E-005  0.1468425E+04  0.7818608E-02  0.8905726E-01
         -2   -1    0    0    0  501 -0.00000000000E+00  0.00000000000E+00  0.13158999556E+03  0.13158999559E+03  0.25500000000E-02 0. -1.
          2   -1    0    0  501    0  0.00000000000E+00 -0.00000000000E+00 -0.40965723931E+04  0.40965723931E+04  0.25500000000E-02 0.  1.
    5000001    1    1    2    0    0  0.32186333784E+02  0.71442226715E+03 -0.20406382047E+04  0.21686088671E+04  0.16500000000E+03 0.  0.
   -5000001    1    1    2    0    0 -0.32186333784E+02 -0.71442226715E+03 -0.19243441928E+04  0.20595535216E+04  0.16500000000E+03 0.  0.
<mgrwt>
<rscale>  0 0.14684249E+04</rscale>
<asrwt>0</asrwt>
<pdfrwt beam="1">  1        2 0.58522455E+00 0.14684249E+04</pdfrwt>
<pdfrwt beam="2">  1       -2 0.18798573E-01 0.14684249E+04</pdfrwt>
<totfact> 0.11508007E+01</totfact>
</mgrwt>
</event>
<event>
 4    1  0.5387486E-005  0.4516053E+03  0.7818608E-02  0.1027244E+00
          2   -1    0    0  501    0  0.00000000000E+00  0.00000000000E+00  0.10224672380E+04  0.10224672380E+04  0.25500000000E-02 0.  1.
         -2   -1    0    0    0  501 -0.00000000000E+00 -0.00000000000E+00 -0.49866464898E+02  0.49866464963E+02  0.25500000000E-02 0. -1.
    5000001    1    1    2    0    0 -0.10026309084E+03  0.10730036399E+03  0.37503386572E+03  0.43524872881E+03  0.16500000000E+03 0.  0.
   -5000001    1    1    2    0    0  0.10026309084E+03 -0.10730036399E+03  0.59756690740E+03  0.63708497417E+03  0.16500000000E+03 0.  0.
<mgrwt>
<rscale>  0 0.45160526E+03</rscale>
<asrwt>0</asrwt>
<pdfrwt beam="1">  1        2 0.14606674E+00 0.45160526E+03</pdfrwt>
<pdfrwt beam="2">  1       -2 0.71237811E-02 0.45160526E+03</pdfrwt>
<totfact> 0.32174361E+03</totfact>
</mgrwt>
</event>
<event>
 4    1  0.5387486E-005  0.6548904E+03  0.7818608E-02  0.9797646E-01
         -2   -1    0    0    0  501 -0.00000000000E+00  0.00000000000E+00  0.22228471749E+03  0.22228471751E+03  0.25500000000E-02 0. -1.
          2   -1    0    0  501    0  0.00000000000E+00 -0.00000000000E+00 -0.48235598963E+03  0.48235598964E+03  0.25500000000E-02 0.  1.
    5000001    1    1    2    0    0  0.31021140977E+02 -0.27880353600E+03 -0.91216588785E+02  0.33799288298E+03  0.16500000000E+03 0.  0.
   -5000001    1    1    2    0    0 -0.31021140977E+02  0.27880353600E+03 -0.16885468335E+03  0.36664782417E+03  0.16500000000E+03 0.  0.
<mgrwt>
<rscale>  0 0.65489042E+03</rscale>
<asrwt>0</asrwt>
<pdfrwt beam="1">  1        2 0.68907998E-01 0.65489042E+03</pdfrwt>
<pdfrwt beam="2">  1       -2 0.31754960E-01 0.65489042E+03</pdfrwt>
<totfact> 0.64782205E+02</totfact>
</mgrwt>
</event>
<event>
 4    1  0.5387486E-005  0.4192581E+03  0.7818608E-02  0.1037308E+00
         -2   -1    0    0    0  501 -0.00000000000E+00  0.00000000000E+00  0.42749400390E+03  0.42749400391E+03  0.25500000000E-02 0. -1.
          2   -1    0    0  501    0  0.00000000000E+00 -0.00000000000E+00 -0.10279523630E+03  0.10279523633E+03  0.25500000000E-02 0.  1.
    5000001    1    1    2    0    0  0.94580220007E+02  0.62839671210E+02  0.24057571889E+03  0.31304299835E+03  0.16500000000E+03 0.  0.
   -5000001    1    1    2    0    0 -0.94580220007E+02 -0.62839671210E+02  0.84123048709E+02  0.21724624190E+03  0.16500000000E+03 0.  0.
<mgrwt>
<rscale>  0 0.41925814E+03</rscale>
<asrwt>0</asrwt>
<pdfrwt beam="1">  1        2 0.14685034E-01 0.41925814E+03</pdfrwt>
<pdfrwt beam="2">  1       -2 0.61070572E-01 0.41925814E+03</pdfrwt>
<totfact> 0.10270719E+03</totfact>
</mgrwt>
</event>
<event>
 4    1  0.5387486E-005  0.8038079E+03  0.7818608E-02  0.9554522E-01
         -2   -1    0    0    0  501 -0.00000000000E+00  0.00000000000E+00  0.30685948516E+03  0.30685948517E+03  0.25500000000E-02 0. -1.
          2   -1    0    0  501    0  0.00000000000E+00 -0.00000000000E+00 -0.52638678241E+03  0.52638678241E+03  0.25500000000E-02 0.  1.
    5000001    1    1    2    0    0  0.36535642276E+03  0.14368511306E+01 -0.80180856468E+02  0.40882924301E+03  0.16500000000E+03 0.  0.
   -5000001    1    1    2    0    0 -0.36535642276E+03 -0.14368511306E+01 -0.13934644077E+03  0.42441702458E+03  0.16500000000E+03 0.  0.
<mgrwt>
<rscale>  0 0.80380788E+03</rscale>
<asrwt>0</asrwt>
<pdfrwt beam="1">  1        2 0.75198112E-01 0.80380788E+03</pdfrwt>
<pdfrwt beam="2">  1       -2 0.43837069E-01 0.80380788E+03</pdfrwt>
<totfact> 0.31389859E+02</totfact>
</mgrwt>
</event>
<event>
 4    1  0.5387486E-005  0.5249999E+03  0.7818608E-02  0.1007452E+00
         -2   -1    0    0    0  501 -0.00000000000E+00  0.00000000000E+00  0.34865853622E+03  0.34865853623E+03  0.25500000000E-02 0. -1.
          2   -1    0    0  501    0  0.00000000000E+00 -0.00000000000E+00 -0.19763238550E+03  0.19763238551E+03  0.25500000000E-02 0.  1.
    5000001    1    1    2    0    0 -0.19397594373E+03  0.33525863798E+02  0.19182955134E+02  0.25757258406E+03  0.16500000000E+03 0.  0.
   -5000001    1    1    2    0    0  0.19397594373E+03 -0.33525863798E+02  0.13184319559E+03  0.28871833768E+03  0.16500000000E+03 0.  0.
<mgrwt>
<rscale>  0 0.52499988E+03</rscale>
<asrwt>0</asrwt>
<pdfrwt beam="1">  1        2 0.28233198E-01 0.52499988E+03</pdfrwt>
<pdfrwt beam="2">  1       -2 0.49808362E-01 0.52499988E+03</pdfrwt>
<totfact> 0.73102790E+02</totfact>
</mgrwt>
</event>
<event>
 4    1  0.5387486E-005  0.3823530E+03  0.7818608E-02  0.1050067E+00
          2   -1    0    0  501    0  0.00000000000E+00  0.00000000000E+00  0.21368164510E+04  0.21368164510E+04  0.25500000000E-02 0.  1.
         -2   -1    0    0    0  501 -0.00000000000E+00 -0.00000000000E+00 -0.17104164708E+02  0.17104164899E+02  0.25500000000E-02 0. -1.
    5000001    1    1    2    0    0 -0.52072529816E+02  0.81301465232E+02  0.10677911942E+04  0.10847693354E+04  0.16500000000E+03 0.  0.
   -5000001    1    1    2    0    0  0.52072529816E+02 -0.81301465232E+02  0.10519210920E+04  0.10691512804E+04  0.16500000000E+03 0.  0.
<mgrwt>
<rscale>  0 0.38235303E+03</rscale>
<asrwt>0</asrwt>
<pdfrwt beam="1">  1        2 0.30525910E+00 0.38235303E+03</pdfrwt>
<pdfrwt beam="2">  1       -2 0.24434553E-02 0.38235303E+03</pdfrwt>
<totfact> 0.43473298E+03</totfact>
</mgrwt>
</event>
<event>
 4    1  0.5387486E-005  0.9419933E+03  0.7818608E-02  0.9374558E-01
         -2   -1    0    0    0  501 -0.00000000000E+00  0.00000000000E+00  0.91061747976E+02  0.91061748012E+02  0.25500000000E-02 0. -1.
          2   -1    0    0  501    0  0.00000000000E+00 -0.00000000000E+00 -0.24361256071E+04  0.24361256071E+04  0.25500000000E-02 0.  1.
    5000001    1    1    2    0    0  0.33328034174E+02  0.36226715031E+03 -0.50309409944E+03  0.64239934538E+03  0.16500000000E+03 0.  0.
   -5000001    1    1    2    0    0 -0.33328034174E+02 -0.36226715031E+03 -0.18419697597E+04  0.18847880098E+04  0.16500000000E+03 0.  0.
<mgrwt>
<rscale>  0 0.94199333E+03</rscale>
<asrwt>0</asrwt>
<pdfrwt beam="1">  1        2 0.34801790E+00 0.94199333E+03</pdfrwt>
<pdfrwt beam="2">  1       -2 0.13008823E-01 0.94199333E+03</pdfrwt>
<totfact> 0.21504379E+02</totfact>
</mgrwt>
</event>
<event>
 4    1  0.5387486E-005  0.5886033E+03  0.7818608E-02  0.9929337E-01
         -2   -1    0    0    0  501 -0.00000000000E+00  0.00000000000E+00  0.68259941057E+02  0.68259941105E+02  0.25500000000E-02 0. -1.
          2   -1    0    0  501    0  0.00000000000E+00 -0.00000000000E+00 -0.12688767453E+04  0.12688767453E+04  0.25500000000E-02 0.  1.
    5000001    1    1    2    0    0  0.17164350796E+03  0.16904667394E+03 -0.68378197131E+03  0.74351937170E+03  0.16500000000E+03 0.  0.
   -5000001    1    1    2    0    0 -0.17164350796E+03 -0.16904667394E+03 -0.51683483295E+03  0.59361731473E+03  0.16500000000E+03 0.  0.
<mgrwt>
<rscale>  0 0.58860327E+03</rscale>
<asrwt>0</asrwt>
<pdfrwt beam="1">  1        2 0.18126809E+00 0.58860327E+03</pdfrwt>
<pdfrwt beam="2">  1       -2 0.97514210E-02 0.58860327E+03</pdfrwt>
<totfact> 0.14102827E+03</totfact>
</mgrwt>
</event>
<event>
 4    1  0.5387486E-005  0.6819119E+03  0.7818608E-02  0.9748675E-01
          2   -1    0    0  501    0  0.00000000000E+00  0.00000000000E+00  0.23336278950E+04  0.23336278950E+04  0.25500000000E-02 0.  1.
         -2   -1    0    0    0  501 -0.00000000000E+00 -0.00000000000E+00 -0.49815553241E+02  0.49815553306E+02  0.25500000000E-02 0. -1.
    5000001    1    1    2    0    0 -0.18981580496E+03 -0.74423206676E+02  0.19033313300E+04  0.19213182988E+04  0.16500000000E+03 0.  0.
   -5000001    1    1    2    0    0  0.18981580496E+03  0.74423206676E+02  0.38048101175E+03  0.46212514951E+03  0.16500000000E+03 0.  0.
<mgrwt>
<rscale>  0 0.68191191E+03</rscale>
<asrwt>0</asrwt>
<pdfrwt beam="1">  1        2 0.33337534E+00 0.68191191E+03</pdfrwt>
<pdfrwt beam="2">  1       -2 0.71165091E-02 0.68191191E+03</pdfrwt>
<totfact> 0.66020320E+02</totfact>
</mgrwt>
</event>
<event>
 4    1  0.5387486E-005  0.4541960E+03  0.7818608E-02  0.1026478E+00
         -2   -1    0    0    0  501 -0.00000000000E+00  0.00000000000E+00  0.38896644353E+02  0.38896644437E+02  0.25500000000E-02 0. -1.
          2   -1    0    0  501    0  0.00000000000E+00 -0.00000000000E+00 -0.13259110985E+04  0.13259110985E+04  0.25500000000E-02 0.  1.
    5000001    1    1    2    0    0  0.15368861397E+03 -0.37613040010E+01 -0.72380887552E+03  0.75812837024E+03  0.16500000000E+03 0.  0.
   -5000001    1    1    2    0    0 -0.15368861397E+03  0.37613040010E+01 -0.56320557863E+03  0.60667937271E+03  0.16500000000E+03 0.  0.
<mgrwt>
<rscale>  0 0.45419596E+03</rscale>
<asrwt>0</asrwt>
<pdfrwt beam="1">  1        2 0.18941584E+00 0.45419596E+03</pdfrwt>
<pdfrwt beam="2">  1       -2 0.55566643E-02 0.45419596E+03</pdfrwt>
<totfact> 0.32025694E+03</totfact>
</mgrwt>
</event>
<event>
 4    1  0.5387486E-005  0.5896092E+03  0.7818608E-02  0.9927201E-01
          2   -1    0    0  501    0  0.00000000000E+00  0.00000000000E+00  0.14305331844E+04  0.14305331844E+04  0.25500000000E-02 0.  1.
         -2   -1    0    0    0  501 -0.00000000000E+00 -0.00000000000E+00 -0.60753406912E+02  0.60753406965E+02  0.25500000000E-02 0. -1.
    5000001    1    1    2    0    0 -0.19432183884E+03  0.14804940863E+03  0.69063544664E+03  0.75092071792E+03  0.16500000000E+03 0.  0.
   -5000001    1    1    2    0    0  0.19432183884E+03 -0.14804940863E+03  0.67914433083E+03  0.74036587343E+03  0.16500000000E+03 0.  0.
<mgrwt>
<rscale>  0 0.58960924E+03</rscale>
<asrwt>0</asrwt>
<pdfrwt beam="1">  1        2 0.20436188E+00 0.58960924E+03</pdfrwt>
<pdfrwt beam="2">  1       -2 0.86790582E-02 0.58960924E+03</pdfrwt>
<totfact> 0.13928762E+03</totfact>
</mgrwt>
</event>
<event>
 4    1  0.5387486E-005  0.8142472E+03  0.7818608E-02  0.9539621E-01
          2   -1    0    0  501    0  0.00000000000E+00  0.00000000000E+00  0.11505150426E+04  0.11505150426E+04  0.25500000000E-02 0.  1.
         -2   -1    0    0    0  501 -0.00000000000E+00 -0.00000000000E+00 -0.14406559475E+03  0.14406559477E+03  0.25500000000E-02 0. -1.
    5000001    1    1    2    0    0  0.61543956856E+02 -0.36695988629E+03  0.48923557350E+03  0.63641469433E+03  0.16500000000E+03 0.  0.
   -5000001    1    1    2    0    0 -0.61543956856E+02  0.36695988629E+03  0.51721387434E+03  0.65816594305E+03  0.16500000000E+03 0.  0.
<mgrwt>
<rscale>  0 0.81424722E+03</rscale>
<asrwt>0</asrwt>
<pdfrwt beam="1">  1        2 0.16435929E+00 0.81424722E+03</pdfrwt>
<pdfrwt beam="2">  1       -2 0.20580799E-01 0.81424722E+03</pdfrwt>
<totfact> 0.46438177E+02</totfact>
</mgrwt>
</event>
<event>
 4    1  0.5387486E-005  0.4445229E+03  0.7818608E-02  0.1029368E+00
          2   -1    0    0  501    0  0.00000000000E+00  0.00000000000E+00  0.79987887438E+03  0.79987887439E+03  0.25500000000E-02 0.  1.
         -2   -1    0    0    0  501 -0.00000000000E+00 -0.00000000000E+00 -0.61759534834E+02  0.61759534886E+02  0.25500000000E-02 0. -1.
    5000001    1    1    2    0    0 -0.56076118339E+02  0.14494958252E+01  0.63644241819E+03  0.65987164188E+03  0.16500000000E+03 0.  0.
   -5000001    1    1    2    0    0  0.56076118339E+02 -0.14494958252E+01  0.10167692135E+03  0.20176676739E+03  0.16500000000E+03 0.  0.
<mgrwt>
<rscale>  0 0.44452288E+03</rscale>
<asrwt>0</asrwt>
<pdfrwt beam="1">  1        2 0.11426841E+00 0.44452288E+03</pdfrwt>
<pdfrwt beam="2">  1       -2 0.88227904E-02 0.44452288E+03</pdfrwt>
<totfact> 0.31777511E+03</totfact>
</mgrwt>
</event>
<event>
 4    1  0.5387486E-005  0.1126927E+04  0.7818608E-02  0.9179337E-01
         -2   -1    0    0    0  501 -0.00000000000E+00  0.00000000000E+00  0.18107514694E+03  0.18107514696E+03  0.25500000000E-02 0. -1.
          2   -1    0    0  501    0  0.00000000000E+00 -0.00000000000E+00 -0.17533678318E+04  0.17533678318E+04  0.25500000000E-02 0.  1.
    5000001    1    1    2    0    0  0.23038993360E+02 -0.47917800186E+03 -0.36524154492E+03  0.62511498048E+03  0.16500000000E+03 0.  0.
   -5000001    1    1    2    0    0 -0.23038993360E+02  0.47917800186E+03 -0.12070511400E+04  0.13093279983E+04  0.16500000000E+03 0.  0.
<mgrwt>
<rscale>  0 0.11269274E+04</rscale>
<asrwt>0</asrwt>
<pdfrwt beam="1">  1        2 0.25048111E+00 0.11269274E+04</pdfrwt>
<pdfrwt beam="2">  1       -2 0.25867879E-01 0.11269274E+04</pdfrwt>
<totfact> 0.14368069E+02</totfact>
</mgrwt>
</event>
<event>
 4    1  0.5387486E-005  0.5535298E+03  0.7818608E-02  0.1000680E+00
         -2   -1    0    0    0  501 -0.00000000000E+00  0.00000000000E+00  0.31437187623E+02  0.31437187727E+02  0.25500000000E-02 0. -1.
          2   -1    0    0  501    0  0.00000000000E+00 -0.00000000000E+00 -0.24365668485E+04  0.24365668485E+04  0.25500000000E-02 0.  1.
    5000001    1    1    2    0    0  0.17449753903E+03  0.11999840996E+03 -0.15024842204E+04  0.15262807219E+04  0.16500000000E+03 0.  0.
   -5000001    1    1    2    0    0 -0.17449753903E+03 -0.11999840996E+03 -0.90264544049E+03  0.94172331433E+03  0.16500000000E+03 0.  0.
<mgrwt>
<rscale>  0 0.55352980E+03</rscale>
<asrwt>0</asrwt>
<pdfrwt beam="1">  1        2 0.34808086E+00 0.55352980E+03</pdfrwt>
<pdfrwt beam="2">  1       -2 0.44910284E-02 0.55352980E+03</pdfrwt>
<totfact> 0.12121048E+03</totfact>
</mgrwt>
</event>
<event>
 4    1  0.5387486E-005  0.7513856E+03  0.7818608E-02  0.9633179E-01
         -2   -1    0    0    0  501 -0.00000000000E+00  0.00000000000E+00  0.10859284494E+03  0.10859284497E+03  0.25500000000E-02 0. -1.
          2   -1    0    0  501    0  0.00000000000E+00 -0.00000000000E+00 -0.12997641239E+04  0.12997641239E+04  0.25500000000E-02 0.  1.
    5000001    1    1    2    0    0 -0.10376091406E+03  0.29756706402E+03 -0.82212271723E+03  0.89578080302E+03  0.16500000000E+03 0.  0.
   -5000001    1    1    2    0    0  0.10376091406E+03 -0.29756706402E+03 -0.36904856172E+03  0.51257616583E+03  0.16500000000E+03 0.  0.
<mgrwt>
<rscale>  0 0.75138561E+03</rscale>
<asrwt>0</asrwt>
<pdfrwt beam="1">  1        2 0.18568058E+00 0.75138561E+03</pdfrwt>
<pdfrwt beam="2">  1       -2 0.15513264E-01 0.75138561E+03</pdfrwt>
<totfact> 0.62541039E+02</totfact>
</mgrwt>
</event>
<event>
 4    1  0.5387486E-005  0.3823553E+03  0.7818608E-02  0.1050067E+00
         -2   -1    0    0    0  501 -0.00000000000E+00  0.00000000000E+00  0.46987527815E+02  0.46987527885E+02  0.25500000000E-02 0. -1.
          2   -1    0    0  501    0  0.00000000000E+00 -0.00000000000E+00 -0.77784251761E+03  0.77784251761E+03  0.25500000000E-02 0.  1.
    5000001    1    1    2    0    0  0.24972528784E+02 -0.73052273417E+02 -0.24031468490E+03  0.30155664414E+03  0.16500000000E+03 0.  0.
   -5000001    1    1    2    0    0 -0.24972528784E+02  0.73052273417E+02 -0.49054030489E+03  0.52327340136E+03  0.16500000000E+03 0.  0.
<mgrwt>
<rscale>  0 0.38235532E+03</rscale>
<asrwt>0</asrwt>
<pdfrwt beam="1">  1        2 0.11112035E+00 0.38235532E+03</pdfrwt>
<pdfrwt beam="2">  1       -2 0.67125045E-02 0.38235532E+03</pdfrwt>
<totfact> 0.50520927E+03</totfact>
</mgrwt>
</event>
<event>
 4    1  0.5387486E-005  0.3885355E+03  0.7818608E-02  0.1047823E+00
          2   -1    0    0  501    0  0.00000000000E+00  0.00000000000E+00  0.25640520490E+04  0.25640520490E+04  0.25500000000E-02 0.  1.
         -2   -1    0    0    0  501 -0.00000000000E+00 -0.00000000000E+00 -0.14718870527E+02  0.14718870748E+02  0.25500000000E-02 0. -1.
    5000001    1    1    2    0    0 -0.65581190205E+02  0.78475105094E+02  0.12251248488E+04  0.12404092590E+04  0.16500000000E+03 0.  0.
   -5000001    1    1    2    0    0  0.65581190205E+02 -0.78475105094E+02  0.13242083297E+04  0.13383616608E+04  0.16500000000E+03 0.  0.
<mgrwt>
<rscale>  0 0.38853546E+03</rscale>
<asrwt>0</asrwt>
<pdfrwt beam="1">  1        2 0.36629257E+00 0.38853546E+03</pdfrwt>
<pdfrwt beam="2">  1       -2 0.21026991E-02 0.38853546E+03</pdfrwt>
<totfact> 0.33237474E+03</totfact>
</mgrwt>
</event>
<event>
 4    1  0.5387486E-005  0.5875801E+03  0.7818608E-02  0.9931514E-01
         -2   -1    0    0    0  501 -0.00000000000E+00  0.00000000000E+00  0.51653907076E+02  0.51653907139E+02  0.25500000000E-02 0. -1.
          2   -1    0    0  501    0  0.00000000000E+00 -0.00000000000E+00 -0.16709792192E+04  0.16709792192E+04  0.25500000000E-02 0.  1.
    5000001    1    1    2    0    0 -0.51835016843E+02 -0.19437551290E+03 -0.40962336101E+03  0.48526797429E+03  0.16500000000E+03 0.  0.
   -5000001    1    1    2    0    0  0.51835016843E+02  0.19437551290E+03 -0.12097019511E+04  0.12373651520E+04  0.16500000000E+03 0.  0.
<mgrwt>
<rscale>  0 0.58758014E+03</rscale>
<asrwt>0</asrwt>
<pdfrwt beam="1">  1        2 0.23871128E+00 0.58758014E+03</pdfrwt>
<pdfrwt beam="2">  1       -2 0.73791307E-02 0.58758014E+03</pdfrwt>
<totfact> 0.13545858E+03</totfact>
</mgrwt>
</event>
<event>
 4    1  0.5387486E-005  0.6636847E+03  0.7818608E-02  0.9781434E-01
         -2   -1    0    0    0  501 -0.00000000000E+00  0.00000000000E+00  0.82157771005E+02  0.82157771044E+02  0.25500000000E-02 0. -1.
          2   -1    0    0  501    0  0.00000000000E+00 -0.00000000000E+00 -0.13403400397E+04  0.13403400397E+04  0.25500000000E-02 0.  1.
    5000001    1    1    2    0    0  0.17845408025E+03 -0.16921778119E+03 -0.94997498851E+03  0.99506682943E+03  0.16500000000E+03 0.  0.
   -5000001    1    1    2    0    0 -0.17845408025E+03  0.16921778119E+03 -0.30820728017E+03  0.42743098130E+03  0.16500000000E+03 0.  0.
<mgrwt>
<rscale>  0 0.66368471E+03</rscale>
<asrwt>0</asrwt>
<pdfrwt beam="1">  1        2 0.19147714E+00 0.66368471E+03</pdfrwt>
<pdfrwt beam="2">  1       -2 0.11736825E-01 0.66368471E+03</pdfrwt>
<totfact> 0.95073475E+02</totfact>
</mgrwt>
</event>
<event>
 4    1  0.5387486E-005  0.4494901E+03  0.7818608E-02  0.1027874E+00
         -2   -1    0    0    0  501 -0.00000000000E+00  0.00000000000E+00  0.14591884776E+04  0.14591884776E+04  0.25500000000E-02 0. -1.
          2   -1    0    0  501    0  0.00000000000E+00 -0.00000000000E+00 -0.34615363059E+02  0.34615363153E+02  0.25500000000E-02 0.  1.
    5000001    1    1    2    0    0 -0.14693489572E+03 -0.39444876774E+02  0.75154929095E+03  0.78434501249E+03  0.16500000000E+03 0.  0.
   -5000001    1    1    2    0    0  0.14693489572E+03  0.39444876774E+02  0.67302382354E+03  0.70945882822E+03  0.16500000000E+03 0.  0.
<mgrwt>
<rscale>  0 0.44949011E+03</rscale>
<asrwt>0</asrwt>
<pdfrwt beam="1">  1        2 0.49450520E-02 0.44949011E+03</pdfrwt>
<pdfrwt beam="2">  1       -2 0.20845549E+00 0.44949011E+03</pdfrwt>
<totfact> 0.20283389E+02</totfact>
</mgrwt>
</event>
<event>
 4    1  0.5387486E-005  0.4540607E+03  0.7818608E-02  0.1026518E+00
         -2   -1    0    0    0  501 -0.00000000000E+00  0.00000000000E+00  0.51843749430E+02  0.51843749493E+02  0.25500000000E-02 0. -1.
          2   -1    0    0  501    0  0.00000000000E+00 -0.00000000000E+00 -0.99419458096E+03  0.99419458097E+03  0.25500000000E-02 0.  1.
    5000001    1    1    2    0    0  0.66838023014E+02  0.12622670774E+03 -0.32698859906E+03  0.39312472192E+03  0.16500000000E+03 0.  0.
   -5000001    1    1    2    0    0 -0.66838023014E+02 -0.12622670774E+03 -0.61536223247E+03  0.65291360854E+03  0.16500000000E+03 0.  0.
<mgrwt>
<rscale>  0 0.45406068E+03</rscale>
<asrwt>0</asrwt>
<pdfrwt beam="1">  1        2 0.14202779E+00 0.45406068E+03</pdfrwt>
<pdfrwt beam="2">  1       -2 0.74062505E-02 0.45406068E+03</pdfrwt>
<totfact> 0.31472053E+03</totfact>
</mgrwt>
</event>
<event>
 4    1  0.5387486E-005  0.6202994E+03  0.7818608E-02  0.9864164E-01
         -2   -1    0    0    0  501 -0.00000000000E+00  0.00000000000E+00  0.19577776085E+02  0.19577776251E+02  0.25500000000E-02 0. -1.
          2   -1    0    0  501    0  0.00000000000E+00 -0.00000000000E+00 -0.49133694934E+04  0.49133694934E+04  0.25500000000E-02 0.  1.
    5000001    1    1    2    0    0  0.10155652820E+03 -0.13204943066E+03 -0.83237510916E+03  0.86476823653E+03  0.16500000000E+03 0.  0.
   -5000001    1    1    2    0    0 -0.10155652820E+03  0.13204943066E+03 -0.40614166081E+04  0.40681790331E+04  0.16500000000E+03 0.  0.
<mgrwt>
<rscale>  0 0.62029944E+03</rscale>
<asrwt>0</asrwt>
<pdfrwt beam="1">  1        2 0.70190914E+00 0.62029944E+03</pdfrwt>
<pdfrwt beam="2">  1       -2 0.27968283E-02 0.62029944E+03</pdfrwt>
<totfact> 0.62714284E+01</totfact>
</mgrwt>
</event>
<event>
 4    1  0.5387486E-005  0.4350605E+03  0.7818608E-02  0.1032273E+00
          2   -1    0    0  501    0  0.00000000000E+00  0.00000000000E+00  0.63676089189E+03  0.63676089190E+03  0.25500000000E-02 0.  1.
         -2   -1    0    0    0  501 -0.00000000000E+00 -0.00000000000E+00 -0.74312665916E+02  0.74312665960E+02  0.25500000000E-02 0. -1.
    5000001    1    1    2    0    0  0.39241812601E+02 -0.12031299466E+03  0.17683486488E+03  0.27296649241E+03  0.16500000000E+03 0.  0.
   -5000001    1    1    2    0    0 -0.39241812601E+02  0.12031299466E+03  0.38561336110E+03  0.43810706545E+03  0.16500000000E+03 0.  0.
<mgrwt>
<rscale>  0 0.43506045E+03</rscale>
<asrwt>0</asrwt>
<pdfrwt beam="1">  1        2 0.90965845E-01 0.43506045E+03</pdfrwt>
<pdfrwt beam="2">  1       -2 0.10616095E-01 0.43506045E+03</pdfrwt>
<totfact> 0.31168416E+03</totfact>
</mgrwt>
</event>
<event>
 4    1  0.5387486E-005  0.9347758E+03  0.7818608E-02  0.9383124E-01
          2   -1    0    0  501    0  0.00000000000E+00  0.00000000000E+00  0.58017591077E+03  0.58017591078E+03  0.25500000000E-02 0.  1.
         -2   -1    0    0    0  501 -0.00000000000E+00 -0.00000000000E+00 -0.37652622635E+03  0.37652622636E+03  0.25500000000E-02 0. -1.
    5000001    1    1    2    0    0 -0.19202963040E+03  0.37810546619E+03  0.21103929681E+03  0.50159915003E+03  0.16500000000E+03 0.  0.
   -5000001    1    1    2    0    0  0.19202963040E+03 -0.37810546619E+03 -0.73896123890E+01  0.45510298711E+03  0.16500000000E+03 0.  0.
<mgrwt>
<rscale>  0 0.93477579E+03</rscale>
<asrwt>0</asrwt>
<pdfrwt beam="1">  1        2 0.82882273E-01 0.93477579E+03</pdfrwt>
<pdfrwt beam="2">  1       -2 0.53789461E-01 0.93477579E+03</pdfrwt>
<totfact> 0.18415581E+02</totfact>
</mgrwt>
</event>
<event>
 4    1  0.5387486E-005  0.3601458E+03  0.7818608E-02  0.1058526E+00
         -2   -1    0    0    0  501 -0.00000000000E+00  0.00000000000E+00  0.12891749854E+03  0.12891749856E+03  0.25500000000E-02 0. -1.
          2   -1    0    0  501    0  0.00000000000E+00 -0.00000000000E+00 -0.25152707454E+03  0.25152707455E+03  0.25500000000E-02 0.  1.
    5000001    1    1    2    0    0  0.48473277514E+01 -0.45243454355E+02 -0.21977783029E+01  0.17117329517E+03  0.16500000000E+03 0.  0.
   -5000001    1    1    2    0    0 -0.48473277514E+01  0.45243454355E+02 -0.12041179770E+03  0.20927127795E+03  0.16500000000E+03 0.  0.
<mgrwt>
<rscale>  0 0.36014576E+03</rscale>
<asrwt>0</asrwt>
<pdfrwt beam="1">  1        2 0.35932439E-01 0.36014576E+03</pdfrwt>
<pdfrwt beam="2">  1       -2 0.18416786E-01 0.36014576E+03</pdfrwt>
<totfact> 0.34964714E+03</totfact>
</mgrwt>
</event>
<event>
 4    1  0.5387486E-005  0.5684819E+03  0.7818608E-02  0.9973044E-01
          2   -1    0    0  501    0  0.00000000000E+00  0.00000000000E+00  0.19609612324E+03  0.19609612325E+03  0.25500000000E-02 0.  1.
         -2   -1    0    0    0  501 -0.00000000000E+00 -0.00000000000E+00 -0.41200669215E+03  0.41200669216E+03  0.25500000000E-02 0. -1.
    5000001    1    1    2    0    0  0.17627515019E+03 -0.48486474591E+02 -0.25977695169E+03  0.35795660550E+03  0.16500000000E+03 0.  0.
   -5000001    1    1    2    0    0 -0.17627515019E+03  0.48486474591E+02  0.43866382780E+02  0.25014620991E+03  0.16500000000E+03 0.  0.
<mgrwt>
<rscale>  0 0.56848189E+03</rscale>
<asrwt>0</asrwt>
<pdfrwt beam="1">  1        2 0.28013732E-01 0.56848189E+03</pdfrwt>
<pdfrwt beam="2">  1       -2 0.58858099E-01 0.56848189E+03</pdfrwt>
<totfact> 0.52302475E+02</totfact>
</mgrwt>
</event>
<event>
 4    1  0.5387486E-005  0.6639814E+03  0.7818608E-02  0.9780892E-01
         -2   -1    0    0    0  501 -0.00000000000E+00  0.00000000000E+00  0.11762116069E+03  0.11762116072E+03  0.25500000000E-02 0. -1.
          2   -1    0    0  501    0  0.00000000000E+00 -0.00000000000E+00 -0.93705789804E+03  0.93705789805E+03  0.25500000000E-02 0.  1.
    5000001    1    1    2    0    0  0.50946906459E+02 -0.19064853286E+03 -0.76338593374E+02  0.26831889832E+03  0.16500000000E+03 0.  0.
   -5000001    1    1    2    0    0 -0.50946906459E+02  0.19064853286E+03 -0.74309814398E+03  0.78636016045E+03  0.16500000000E+03 0.  0.
<mgrwt>
<rscale>  0 0.66398144E+03</rscale>
<asrwt>0</asrwt>
<pdfrwt beam="1">  1        2 0.13386541E+00 0.66398144E+03</pdfrwt>
<pdfrwt beam="2">  1       -2 0.16803023E-01 0.66398144E+03</pdfrwt>
<totfact> 0.89189078E+02</totfact>
</mgrwt>
</event>
<event>
 4    1  0.5387486E-005  0.3905436E+03  0.7818608E-02  0.1047104E+00
         -2   -1    0    0    0  501 -0.00000000000E+00  0.00000000000E+00  0.77048937017E+02  0.77048937059E+02  0.25500000000E-02 0. -1.
          2   -1    0    0  501    0  0.00000000000E+00 -0.00000000000E+00 -0.49489417022E+03  0.49489417022E+03  0.25500000000E-02 0.  1.
    5000001    1    1    2    0    0 -0.28504400586E+02 -0.89131939461E+02 -0.14103223574E+03  0.23637278821E+03  0.16500000000E+03 0.  0.
   -5000001    1    1    2    0    0  0.28504400586E+02  0.89131939461E+02 -0.27681299746E+03  0.33557031908E+03  0.16500000000E+03 0.  0.
<mgrwt>
<rscale>  0 0.39054357E+03</rscale>
<asrwt>0</asrwt>
<pdfrwt beam="1">  1        2 0.70699166E-01 0.39054357E+03</pdfrwt>
<pdfrwt beam="2">  1       -2 0.11006991E-01 0.39054357E+03</pdfrwt>
<totfact> 0.39183796E+03</totfact>
</mgrwt>
</event>
<event>
 4    1  0.5387486E-005  0.4636421E+03  0.7818608E-02  0.1023730E+00
          2   -1    0    0  501    0  0.00000000000E+00  0.00000000000E+00  0.12729808631E+04  0.12729808631E+04  0.25500000000E-02 0.  1.
         -2   -1    0    0    0  501 -0.00000000000E+00 -0.00000000000E+00 -0.42216650717E+02  0.42216650794E+02  0.25500000000E-02 0. -1.
    5000001    1    1    2    0    0 -0.92228169247E+02 -0.12476794426E+03  0.47517752827E+03  0.52639505933E+03  0.16500000000E+03 0.  0.
   -5000001    1    1    2    0    0  0.92228169247E+02  0.12476794426E+03  0.75558668412E+03  0.78880245457E+03  0.16500000000E+03 0.  0.
<mgrwt>
<rscale>  0 0.46364205E+03</rscale>
<asrwt>0</asrwt>
<pdfrwt beam="1">  1        2 0.18185443E+00 0.46364205E+03</pdfrwt>
<pdfrwt beam="2">  1       -2 0.60309495E-02 0.46364205E+03</pdfrwt>
<totfact> 0.30113053E+03</totfact>
</mgrwt>
</event>
<event>
 4    1  0.5387486E-005  0.5949904E+03  0.7818608E-02  0.9915854E-01
          2   -1    0    0  501    0  0.00000000000E+00  0.00000000000E+00  0.11601525575E+04  0.11601525575E+04  0.25500000000E-02 0.  1.
         -2   -1    0    0    0  501 -0.00000000000E+00 -0.00000000000E+00 -0.76285999804E+02  0.76285999847E+02  0.25500000000E-02 0. -1.
    5000001    1    1    2    0    0 -0.24567301379E+03 -0.28899160375E+02  0.56142814518E+03  0.63530854975E+03  0.16500000000E+03 0.  0.
   -5000001    1    1    2    0    0  0.24567301379E+03  0.28899160375E+02  0.52243841254E+03  0.60113000763E+03  0.16500000000E+03 0.  0.
<mgrwt>
<rscale>  0 0.59499041E+03</rscale>
<asrwt>0</asrwt>
<pdfrwt beam="1">  1        2 0.16573608E+00 0.59499041E+03</pdfrwt>
<pdfrwt beam="2">  1       -2 0.10898000E-01 0.59499041E+03</pdfrwt>
<totfact> 0.13534660E+03</totfact>
</mgrwt>
</event>
<event>
 4    1  0.5387486E-005  0.4520633E+03  0.7818608E-02  0.1027109E+00
         -2   -1    0    0    0  501 -0.00000000000E+00  0.00000000000E+00  0.94827483177E+02  0.94827483212E+02  0.25500000000E-02 0. -1.
          2   -1    0    0  501    0  0.00000000000E+00 -0.00000000000E+00 -0.53877109586E+03  0.53877109587E+03  0.25500000000E-02 0.  1.
    5000001    1    1    2    0    0 -0.12891756239E+03  0.63052542340E+02 -0.14182518174E+03  0.26064294190E+03  0.16500000000E+03 0.  0.
   -5000001    1    1    2    0    0  0.12891756239E+03 -0.63052542340E+02 -0.30211843094E+03  0.37295563718E+03  0.16500000000E+03 0.  0.
<mgrwt>
<rscale>  0 0.45206330E+03</rscale>
<asrwt>0</asrwt>
<pdfrwt beam="1">  1        2 0.76967297E-01 0.45206330E+03</pdfrwt>
<pdfrwt beam="2">  1       -2 0.13546784E-01 0.45206330E+03</pdfrwt>
<totfact> 0.25403272E+03</totfact>
</mgrwt>
</event>
<event>
 4    1  0.5387486E-005  0.3574516E+03  0.7818608E-02  0.1059597E+00
         -2   -1    0    0    0  501 -0.00000000000E+00  0.00000000000E+00  0.40112588168E+02  0.40112588249E+02  0.25500000000E-02 0. -1.
          2   -1    0    0  501    0  0.00000000000E+00 -0.00000000000E+00 -0.79633137238E+03  0.79633137239E+03  0.25500000000E-02 0.  1.
    5000001    1    1    2    0    0  0.86308930533E+01  0.45243845714E+02 -0.25887360738E+03  0.31042236145E+03  0.16500000000E+03 0.  0.
   -5000001    1    1    2    0    0 -0.86308930533E+01 -0.45243845714E+02 -0.49734517684E+03  0.52602159919E+03  0.16500000000E+03 0.  0.
<mgrwt>
<rscale>  0 0.35745160E+03</rscale>
<asrwt>0</asrwt>
<pdfrwt beam="1">  1        2 0.11376161E+00 0.35745160E+03</pdfrwt>
<pdfrwt beam="2">  1       -2 0.57303702E-02 0.35745160E+03</pdfrwt>
<totfact> 0.62608355E+03</totfact>
</mgrwt>
</event>
<event>
 4    1  0.5387486E-005  0.4533623E+03  0.7818608E-02  0.1026724E+00
         -2   -1    0    0    0  501 -0.00000000000E+00  0.00000000000E+00  0.48341117107E+02  0.48341117175E+02  0.25500000000E-02 0. -1.
          2   -1    0    0  501    0  0.00000000000E+00 -0.00000000000E+00 -0.10629529834E+04  0.10629529834E+04  0.25500000000E-02 0.  1.
    5000001    1    1    2    0    0  0.14626868631E+03 -0.39404014600E+02 -0.59264702500E+03  0.63356349422E+03  0.16500000000E+03 0.  0.
   -5000001    1    1    2    0    0 -0.14626868631E+03  0.39404014600E+02 -0.42196484125E+03  0.47773060632E+03  0.16500000000E+03 0.  0.
<mgrwt>
<rscale>  0 0.45336226E+03</rscale>
<asrwt>0</asrwt>
<pdfrwt beam="1">  1        2 0.15185041E+00 0.45336226E+03</pdfrwt>
<pdfrwt beam="2">  1       -2 0.69058745E-02 0.45336226E+03</pdfrwt>
<totfact> 0.31974089E+03</totfact>
</mgrwt>
</event>
<event>
 4    1  0.5387486E-005  0.4469875E+03  0.7818608E-02  0.1028624E+00
         -2   -1    0    0    0  501 -0.00000000000E+00  0.00000000000E+00  0.75529484287E+03  0.75529484287E+03  0.25500000000E-02 0. -1.
          2   -1    0    0  501    0  0.00000000000E+00 -0.00000000000E+00 -0.66132403531E+02  0.66132403581E+02  0.25500000000E-02 0.  1.
    5000001    1    1    2    0    0  0.16858132775E+02 -0.12523012594E+03  0.49564925440E+03  0.53745694197E+03  0.16500000000E+03 0.  0.
   -5000001    1    1    2    0    0 -0.16858132775E+02  0.12523012594E+03  0.19351318494E+03  0.28397030449E+03  0.16500000000E+03 0.  0.
<mgrwt>
<rscale>  0 0.44698753E+03</rscale>
<asrwt>0</asrwt>
<pdfrwt beam="1">  1        2 0.94474860E-02 0.44698753E+03</pdfrwt>
<pdfrwt beam="2">  1       -2 0.10789927E+00 0.44698753E+03</pdfrwt>
<totfact> 0.49639406E+02</totfact>
</mgrwt>
</event>
<event>
 4    1  0.5387486E-005  0.7564846E+03  0.7818608E-02  0.9625232E-01
          2   -1    0    0  501    0  0.00000000000E+00  0.00000000000E+00  0.75701651858E+03  0.75701651859E+03  0.25500000000E-02 0.  1.
         -2   -1    0    0    0  501 -0.00000000000E+00 -0.00000000000E+00 -0.18898826609E+03  0.18898826611E+03  0.25500000000E-02 0. -1.
    5000001    1    1    2    0    0  0.32678495225E+03 -0.45335024716E+02  0.17939818003E+03  0.41018578289E+03  0.16500000000E+03 0.  0.
   -5000001    1    1    2    0    0 -0.32678495225E+03  0.45335024716E+02  0.38863007245E+03  0.53581900181E+03  0.16500000000E+03 0.  0.
<mgrwt>
<rscale>  0 0.75648460E+03</rscale>
<asrwt>0</asrwt>
<pdfrwt beam="1">  1        2 0.10814522E+00 0.75648460E+03</pdfrwt>
<pdfrwt beam="2">  1       -2 0.26998324E-01 0.75648460E+03</pdfrwt>
<totfact> 0.50998496E+02</totfact>
</mgrwt>
</event>
<event>
 4    1  0.5387486E-005  0.4136685E+03  0.7818608E-02  0.1039147E+00
         -2   -1    0    0    0  501 -0.00000000000E+00  0.00000000000E+00  0.17291077961E+03  0.17291077963E+03  0.25500000000E-02 0. -1.
          2   -1    0    0  501    0  0.00000000000E+00 -0.00000000000E+00 -0.24741314108E+03  0.24741314109E+03  0.25500000000E-02 0.  1.
    5000001    1    1    2    0    0 -0.11852673976E+03 -0.36642178898E+02 -0.24232476665E+02  0.20785439672E+03  0.16500000000E+03 0.  0.
   -5000001    1    1    2    0    0  0.11852673976E+03  0.36642178898E+02 -0.50269884800E+02  0.21246952400E+03  0.16500000000E+03 0.  0.
<mgrwt>
<rscale>  0 0.41366846E+03</rscale>
<asrwt>0</asrwt>
<pdfrwt beam="1">  1        2 0.35344734E-01 0.41366846E+03</pdfrwt>
<pdfrwt beam="2">  1       -2 0.24701540E-01 0.41366846E+03</pdfrwt>
<totfact> 0.21416930E+03</totfact>
</mgrwt>
</event>
<event>
 4    1  0.5387486E-005  0.8578877E+03  0.7818608E-02  0.9479811E-01
          2   -1    0    0  501    0  0.00000000000E+00  0.00000000000E+00  0.65007049618E+03  0.65007049619E+03  0.25500000000E-02 0.  1.
         -2   -1    0    0    0  501 -0.00000000000E+00 -0.00000000000E+00 -0.28303516962E+03  0.28303516963E+03  0.25500000000E-02 0. -1.
    5000001    1    1    2    0    0 -0.27276146642E+03 -0.25494746151E+03  0.40163551454E+02  0.41016476757E+03  0.16500000000E+03 0.  0.
   -5000001    1    1    2    0    0  0.27276146642E+03  0.25494746151E+03  0.32687177511E+03  0.52294089825E+03  0.16500000000E+03 0.  0.
<mgrwt>
<rscale>  0 0.85788767E+03</rscale>
<asrwt>0</asrwt>
<pdfrwt beam="1">  1        2 0.92867213E-01 0.85788767E+03</pdfrwt>
<pdfrwt beam="2">  1       -2 0.40433596E-01 0.85788767E+03</pdfrwt>
<totfact> 0.28622885E+02</totfact>
</mgrwt>
</event>
<event>
 4    1  0.5387486E-005  0.4005774E+03  0.7818608E-02  0.1043580E+00
         -2   -1    0    0    0  501 -0.00000000000E+00  0.00000000000E+00  0.37404423950E+02  0.37404424037E+02  0.25500000000E-02 0. -1.
          2   -1    0    0  501    0  0.00000000000E+00 -0.00000000000E+00 -0.10724817487E+04  0.10724817487E+04  0.25500000000E-02 0.  1.
    5000001    1    1    2    0    0  0.42885303429E+02  0.82920767993E+02 -0.69657835305E+03  0.72191509539E+03  0.16500000000E+03 0.  0.
   -5000001    1    1    2    0    0 -0.42885303429E+02 -0.82920767993E+02 -0.33849897166E+03  0.38797107731E+03  0.16500000000E+03 0.  0.
<mgrwt>
<rscale>  0 0.40057739E+03</rscale>
<asrwt>0</asrwt>
<pdfrwt beam="1">  1        2 0.15321166E+00 0.40057739E+03</pdfrwt>
<pdfrwt beam="2">  1       -2 0.53434898E-02 0.40057739E+03</pdfrwt>
<totfact> 0.46985727E+03</totfact>
</mgrwt>
</event>
<event>
 4    1  0.5387486E-005  0.5751744E+03  0.7818608E-02  0.9958293E-01
          2   -1    0    0  501    0  0.00000000000E+00  0.00000000000E+00  0.35771109328E+04  0.35771109328E+04  0.25500000000E-02 0.  1.
         -2   -1    0    0    0  501 -0.00000000000E+00 -0.00000000000E+00 -0.23121000407E+02  0.23121000548E+02  0.25500000000E-02 0. -1.
    5000001    1    1    2    0    0 -0.15388349654E+03 -0.16607591932E+03  0.21836155507E+04  0.22015138461E+04  0.16500000000E+03 0.  0.
   -5000001    1    1    2    0    0  0.15388349654E+03  0.16607591932E+03  0.13703743816E+04  0.13987180872E+04  0.16500000000E+03 0.  0.
<mgrwt>
<rscale>  0 0.57517435E+03</rscale>
<asrwt>0</asrwt>
<pdfrwt beam="1">  1        2 0.51101611E+00 0.57517435E+03</pdfrwt>
<pdfrwt beam="2">  1       -2 0.33029984E-02 0.57517435E+03</pdfrwt>
<totfact> 0.45967014E+02</totfact>
</mgrwt>
</event>
<event>
 4    1  0.5387486E-005  0.4482487E+03  0.7818608E-02  0.1028246E+00
          2   -1    0    0  501    0  0.00000000000E+00  0.00000000000E+00  0.47534508484E+03  0.47534508485E+03  0.25500000000E-02 0.  1.
         -2   -1    0    0    0  501 -0.00000000000E+00 -0.00000000000E+00 -0.10567421503E+03  0.10567421506E+03  0.25500000000E-02 0. -1.
    5000001    1    1    2    0    0  0.13188135495E+03 -0.21155807898E+02  0.91667166002E+02  0.23123176536E+03  0.16500000000E+03 0.  0.
   -5000001    1    1    2    0    0 -0.13188135495E+03  0.21155807898E+02  0.27800370381E+03  0.34978753454E+03  0.16500000000E+03 0.  0.
<mgrwt>
<rscale>  0 0.44824868E+03</rscale>
<asrwt>0</asrwt>
<pdfrwt beam="1">  1        2 0.67906442E-01 0.44824868E+03</pdfrwt>
<pdfrwt beam="2">  1       -2 0.15096316E-01 0.44824868E+03</pdfrwt>
<totfact> 0.24434717E+03</totfact>
</mgrwt>
</event>
<event>
 4    1  0.5387486E-005  0.4535039E+03  0.7818608E-02  0.1026682E+00
         -2   -1    0    0    0  501 -0.00000000000E+00  0.00000000000E+00  0.25910709959E+02  0.25910710084E+02  0.25500000000E-02 0. -1.
          2   -1    0    0  501    0  0.00000000000E+00 -0.00000000000E+00 -0.19843700603E+04  0.19843700603E+04  0.25500000000E-02 0.  1.
    5000001    1    1    2    0    0 -0.81107098587E+02  0.41398181821E+02 -0.15381684964E+04  0.15496707696E+04  0.16500000000E+03 0.  0.
   -5000001    1    1    2    0    0  0.81107098587E+02 -0.41398181821E+02 -0.42029085396E+03  0.46061000078E+03  0.16500000000E+03 0.  0.
<mgrwt>
<rscale>  0 0.45350386E+03</rscale>
<asrwt>0</asrwt>
<pdfrwt beam="1">  1        2 0.28348134E+00 0.45350386E+03</pdfrwt>
<pdfrwt beam="2">  1       -2 0.37015313E-02 0.45350386E+03</pdfrwt>
<totfact> 0.27617014E+03</totfact>
</mgrwt>
</event>
<event>
 4    1  0.5387486E-005  0.5775203E+03  0.7818608E-02  0.9953174E-01
          2   -1    0    0  501    0  0.00000000000E+00  0.00000000000E+00  0.14675272044E+04  0.14675272044E+04  0.25500000000E-02 0.  1.
         -2   -1    0    0    0  501 -0.00000000000E+00 -0.00000000000E+00 -0.56818312562E+02  0.56818312619E+02  0.25500000000E-02 0. -1.
    5000001    1    1    2    0    0 -0.19861360884E+03 -0.97427462964E+01  0.10455809035E+04  0.10770360776E+04  0.16500000000E+03 0.  0.
   -5000001    1    1    2    0    0  0.19861360884E+03  0.97427462964E+01  0.36512798838E+03  0.44730943944E+03  0.16500000000E+03 0.  0.
<mgrwt>
<rscale>  0 0.57752028E+03</rscale>
<asrwt>0</asrwt>
<pdfrwt beam="1">  1        2 0.20964672E+00 0.57752028E+03</pdfrwt>
<pdfrwt beam="2">  1       -2 0.81169027E-02 0.57752028E+03</pdfrwt>
<totfact> 0.14829371E+03</totfact>
</mgrwt>
</event>
<event>
 4    1  0.5387486E-005  0.3927522E+03  0.7818608E-02  0.1046319E+00
          2   -1    0    0  501    0  0.00000000000E+00  0.00000000000E+00  0.15824837449E+04  0.15824837449E+04  0.25500000000E-02 0. -1.
         -2   -1    0    0    0  501 -0.00000000000E+00 -0.00000000000E+00 -0.24369019699E+02  0.24369019833E+02  0.25500000000E-02 0.  1.
    5000001    1    1    2    0    0 -0.24204066540E+02  0.80642367106E+02  0.10457609599E+04  0.10620404952E+04  0.16500000000E+03 0.  0.
   -5000001    1    1    2    0    0  0.24204066540E+02 -0.80642367106E+02  0.51235376531E+03  0.54481226954E+03  0.16500000000E+03 0.  0.
<mgrwt>
<rscale>  0 0.39275223E+03</rscale>
<asrwt>0</asrwt>
<pdfrwt beam="1">  1        2 0.22606923E+00 0.39275223E+03</pdfrwt>
<pdfrwt beam="2">  1       -2 0.34812866E-02 0.39275223E+03</pdfrwt>
<totfact> 0.48176658E+03</totfact>
</mgrwt>
</event>
<event>
 4    1  0.5387486E-005  0.7796303E+03  0.7818608E-02  0.9589979E-01
          2   -1    0    0  501    0  0.00000000000E+00  0.00000000000E+00  0.34384395707E+03  0.34384395708E+03  0.25500000000E-02 0.  1.
         -2   -1    0    0    0  501 -0.00000000000E+00 -0.00000000000E+00 -0.44193254553E+03  0.44193254554E+03  0.25500000000E-02 0. -1.
    5000001    1    1    2    0    0 -0.24788392122E+03  0.20630633850E+03 -0.19413084123E+03  0.41099942485E+03  0.16500000000E+03 0.  0.
   -5000001    1    1    2    0    0  0.24788392122E+03 -0.20630633850E+03  0.96042252781E+02  0.37477707777E+03  0.16500000000E+03 0.  0.
<mgrwt>
<rscale>  0 0.77963026E+03</rscale>
<asrwt>0</asrwt>
<pdfrwt beam="1">  1        2 0.49120565E-01 0.77963026E+03</pdfrwt>
<pdfrwt beam="2">  1       -2 0.63133221E-01 0.77963026E+03</pdfrwt>
<totfact> 0.23988767E+02</totfact>
</mgrwt>
</event>
<event>
 4    1  0.5387486E-005  0.4615253E+03  0.7818608E-02  0.1024340E+00
          2   -1    0    0  501    0  0.00000000000E+00  0.00000000000E+00  0.76040988821E+03  0.76040988822E+03  0.25500000000E-02 0. -1.
         -2   -1    0    0    0  501 -0.00000000000E+00 -0.00000000000E+00 -0.70029856777E+02  0.70029856824E+02  0.25500000000E-02 0.  1.
    5000001    1    1    2    0    0 -0.10171905035E+03 -0.39565375646E+02  0.55895715393E+03  0.59293362536E+03  0.16500000000E+03 0.  0.
   -5000001    1    1    2    0    0  0.10171905035E+03  0.39565375646E+02  0.13142287751E+03  0.23750611968E+03  0.16500000000E+03 0.  0.
<mgrwt>
<rscale>  0 0.46152528E+03</rscale>
<asrwt>0</asrwt>
<pdfrwt beam="1">  1        2 0.10862998E+00 0.46152528E+03</pdfrwt>
<pdfrwt beam="2">  1       -2 0.10004265E-01 0.46152528E+03</pdfrwt>
<totfact> 0.27690866E+03</totfact>
</mgrwt>
</event>
<event>
 4    1  0.5387486E-005  0.4603359E+03  0.7818608E-02  0.1024684E+00
         -2   -1    0    0    0  501 -0.00000000000E+00  0.00000000000E+00  0.38885351687E+02  0.38885351771E+02  0.25500000000E-02 0.  1.
          2   -1    0    0  501    0  0.00000000000E+00 -0.00000000000E+00 -0.13623970258E+04  0.13623970258E+04  0.25500000000E-02 0. -1.
    5000001    1    1    2    0    0 -0.66412429525E+02 -0.30094870169E+01 -0.11063593618E+04  0.11205693666E+04  0.16500000000E+03 0.  0.
   -5000001    1    1    2    0    0  0.66412429525E+02  0.30094870169E+01 -0.21715231225E+03  0.28071301096E+03  0.16500000000E+03 0.  0.
<mgrwt>
<rscale>  0 0.46033591E+03</rscale>
<asrwt>0</asrwt>
<pdfrwt beam="1">  1        2 0.19462812E+00 0.46033591E+03</pdfrwt>
<pdfrwt beam="2">  1       -2 0.55550511E-02 0.46033591E+03</pdfrwt>
<totfact> 0.30638445E+03</totfact>
</mgrwt>
</event>
<event>
 4    1  0.5387486E-005  0.4212997E+03  0.7818608E-02  0.1036644E+00
         -2   -1    0    0    0  501 -0.00000000000E+00  0.00000000000E+00  0.30337706424E+03  0.30337706425E+03  0.25500000000E-02 0. -1.
          2   -1    0    0  501    0  0.00000000000E+00 -0.00000000000E+00 -0.14626468172E+03  0.14626468174E+03  0.25500000000E-02 0.  1.
    5000001    1    1    2    0    0 -0.12581645934E+02  0.11815246415E+03  0.19807226826E+02  0.20429299752E+03  0.16500000000E+03 0.  0.
   -5000001    1    1    2    0    0  0.12581645934E+02 -0.11815246415E+03  0.13730515569E+03  0.24534874848E+03  0.16500000000E+03 0.  0.
<mgrwt>
<rscale>  0 0.42129965E+03</rscale>
<asrwt>0</asrwt>
<pdfrwt beam="1">  1        2 0.20894955E-01 0.42129965E+03</pdfrwt>
<pdfrwt beam="2">  1       -2 0.43339580E-01 0.42129965E+03</pdfrwt>
<totfact> 0.13574223E+03</totfact>
</mgrwt>
</event>
<event>
 4    1  0.5387486E-005  0.6427959E+03  0.7818608E-02  0.9820392E-01
          2   -1    0    0  501    0  0.00000000000E+00  0.00000000000E+00  0.11209689875E+04  0.11209689875E+04  0.25500000000E-02 0.  1.
         -2   -1    0    0    0  501 -0.00000000000E+00 -0.00000000000E+00 -0.92149409802E+02  0.92149409837E+02  0.25500000000E-02 0. -1.
    5000001    1    1    2    0    0 -0.19287503098E+03  0.30489668494E+02  0.88201853585E+03  0.91832025734E+03  0.16500000000E+03 0.  0.
   -5000001    1    1    2    0    0  0.19287503098E+03 -0.30489668494E+02  0.14680104185E+03  0.29479814000E+03  0.16500000000E+03 0.  0.
<mgrwt>
<rscale>  0 0.64279586E+03</rscale>
<asrwt>0</asrwt>
<pdfrwt beam="1">  1        2 0.16013843E+00 0.64279586E+03</pdfrwt>
<pdfrwt beam="2">  1       -2 0.13164201E-01 0.64279586E+03</pdfrwt>
<totfact> 0.10427717E+03</totfact>
</mgrwt>
</event>
<event>
 4    1  0.5387486E-005  0.4321773E+03  0.7818608E-02  0.1033174E+00
         -2   -1    0    0    0  501 -0.00000000000E+00  0.00000000000E+00  0.16460758706E+03  0.16460758708E+03  0.25500000000E-02 0. -1.
          2   -1    0    0  501    0  0.00000000000E+00 -0.00000000000E+00 -0.28367038334E+03  0.28367038335E+03  0.25500000000E-02 0.  1.
    5000001    1    1    2    0    0  0.96741916792E+02  0.65997626673E+02  0.19153884274E+02  0.20324014484E+03  0.16500000000E+03 0.  0.
   -5000001    1    1    2    0    0 -0.96741916792E+02 -0.65997626673E+02 -0.13821668055E+03  0.24503782560E+03  0.16500000000E+03 0.  0.
<mgrwt>
<rscale>  0 0.43217727E+03</rscale>
<asrwt>0</asrwt>
<pdfrwt beam="1">  1        2 0.40524341E-01 0.43217727E+03</pdfrwt>
<pdfrwt beam="2">  1       -2 0.23515369E-01 0.43217727E+03</pdfrwt>
<totfact> 0.20123516E+03</totfact>
</mgrwt>
</event>
<event>
 4    1  0.5387486E-005  0.4696914E+03  0.7818608E-02  0.1022007E+00
         -2   -1    0    0    0  501 -0.00000000000E+00  0.00000000000E+00  0.10341800683E+03  0.10341800686E+03  0.25500000000E-02 0. -1.
          2   -1    0    0  501    0  0.00000000000E+00 -0.00000000000E+00 -0.53329684920E+03  0.53329684921E+03  0.25500000000E-02 0.  1.
    5000001    1    1    2    0    0  0.99132506466E+02  0.70749552075E+02 -0.59814738153E+02  0.21362480160E+03  0.16500000000E+03 0.  0.
   -5000001    1    1    2    0    0 -0.99132506466E+02 -0.70749552075E+02 -0.37006410422E+03  0.42309005447E+03  0.16500000000E+03 0.  0.
<mgrwt>
<rscale>  0 0.46969138E+03</rscale>
<asrwt>0</asrwt>
<pdfrwt beam="1">  1        2 0.76185263E-01 0.46969138E+03</pdfrwt>
<pdfrwt beam="2">  1       -2 0.14774001E-01 0.46969138E+03</pdfrwt>
<totfact> 0.22256584E+03</totfact>
</mgrwt>
</event>
<event>
 4    1  0.5387486E-005  0.7507418E+03  0.7818608E-02  0.9634187E-01
          2   -1    0    0  501    0  0.00000000000E+00  0.00000000000E+00  0.12004734065E+04  0.12004734065E+04  0.25500000000E-02 0.  1.
         -2   -1    0    0    0  501 -0.00000000000E+00 -0.00000000000E+00 -0.11737312787E+03  0.11737312790E+03  0.25500000000E-02 0. -1.
    5000001    1    1    2    0    0 -0.20466555925E+03  0.17184141189E+03  0.90241399112E+03  0.95550691958E+03  0.16500000000E+03 0.  0.
   -5000001    1    1    2    0    0  0.20466555925E+03 -0.17184141189E+03  0.18068628753E+03  0.36233961484E+03  0.16500000000E+03 0.  0.
<mgrwt>
<rscale>  0 0.75074182E+03</rscale>
<asrwt>0</asrwt>
<pdfrwt beam="1">  1        2 0.17149619E+00 0.75074182E+03</pdfrwt>
<pdfrwt beam="2">  1       -2 0.16767591E-01 0.75074182E+03</pdfrwt>
<totfact> 0.62208875E+02</totfact>
</mgrwt>
</event>
<event>
 4    1  0.5387486E-005  0.4206195E+03  0.7818608E-02  0.1036865E+00
          2   -1    0    0  501    0  0.00000000000E+00  0.00000000000E+00  0.45274257555E+03  0.45274257556E+03  0.25500000000E-02 0.  1.
         -2   -1    0    0    0  501 -0.00000000000E+00 -0.00000000000E+00 -0.97693908931E+02  0.97693908964E+02  0.25500000000E-02 0. -1.
    5000001    1    1    2    0    0  0.11334334132E+03 -0.43291665564E+02  0.24006973482E+03  0.31556197316E+03  0.16500000000E+03 0.  0.
   -5000001    1    1    2    0    0 -0.11334334132E+03  0.43291665564E+02  0.11497893180E+03  0.23487451136E+03  0.16500000000E+03 0.  0.
<mgrwt>
<rscale>  0 0.42061950E+03</rscale>
<asrwt>0</asrwt>
<pdfrwt beam="1">  1        2 0.64677510E-01 0.42061950E+03</pdfrwt>
<pdfrwt beam="2">  1       -2 0.13956273E-01 0.42061950E+03</pdfrwt>
<totfact> 0.29378970E+03</totfact>
</mgrwt>
</event>
<event>
 4    1  0.5387486E-005  0.4549176E+03  0.7818608E-02  0.1026266E+00
         -2   -1    0    0    0  501 -0.00000000000E+00  0.00000000000E+00  0.22195494211E+03  0.22195494212E+03  0.25500000000E-02 0. -1.
          2   -1    0    0  501    0  0.00000000000E+00 -0.00000000000E+00 -0.23309915139E+03  0.23309915141E+03  0.25500000000E-02 0.  1.
    5000001    1    1    2    0    0 -0.83065439489E+02 -0.28747212572E+02  0.12402848498E+03  0.22435314697E+03  0.16500000000E+03 0.  0.
   -5000001    1    1    2    0    0  0.83065439489E+02  0.28747212572E+02 -0.13517269427E+03  0.23070094656E+03  0.16500000000E+03 0.  0.
<mgrwt>
<rscale>  0 0.45491761E+03</rscale>
<asrwt>0</asrwt>
<pdfrwt beam="1">  1        2 0.33299879E-01 0.45491761E+03</pdfrwt>
<pdfrwt beam="2">  1       -2 0.31707849E-01 0.45491761E+03</pdfrwt>
<totfact> 0.14551918E+03</totfact>
</mgrwt>
</event>
<event>
 4    1  0.5387486E-005  0.5483927E+03  0.7818608E-02  0.1001867E+00
          2   -1    0    0  501    0  0.00000000000E+00  0.00000000000E+00  0.44233293352E+03  0.44233293353E+03  0.25500000000E-02 0.  1.
         -2   -1    0    0    0  501 -0.00000000000E+00 -0.00000000000E+00 -0.16997067632E+03  0.16997067634E+03  0.25500000000E-02 0. -1.
    5000001    1    1    2    0    0 -0.13822374223E+03 -0.16948945658E+03  0.12364056056E+03  0.30057356341E+03  0.16500000000E+03 0.  0.
   -5000001    1    1    2    0    0  0.13822374223E+03  0.16948945658E+03  0.14872169664E+03  0.31173004645E+03  0.16500000000E+03 0.  0.
<mgrwt>
<rscale>  0 0.54839266E+03</rscale>
<asrwt>0</asrwt>
<pdfrwt beam="1">  1        2 0.63190418E-01 0.54839266E+03</pdfrwt>
<pdfrwt beam="2">  1       -2 0.24281526E-01 0.54839266E+03</pdfrwt>
<totfact> 0.11670019E+03</totfact>
</mgrwt>
</event>
<event>
 4    1  0.5387486E-005  0.5876316E+03  0.7818608E-02  0.9931404E-01
         -2   -1    0    0    0  501 -0.00000000000E+00  0.00000000000E+00  0.14662664331E+03  0.14662664334E+03  0.25500000000E-02 0. -1.
          2   -1    0    0  501    0  0.00000000000E+00 -0.00000000000E+00 -0.58875872871E+03  0.58875872872E+03  0.25500000000E-02 0.  1.
    5000001    1    1    2    0    0 -0.40340312469E+02  0.18091997374E+03 -0.24214413727E+02  0.24934056136E+03  0.16500000000E+03 0.  0.
   -5000001    1    1    2    0    0  0.40340312469E+02 -0.18091997374E+03 -0.41791767167E+03  0.48604481069E+03  0.16500000000E+03 0.  0.
<mgrwt>
<rscale>  0 0.58763157E+03</rscale>
<asrwt>0</asrwt>
<pdfrwt beam="1">  1        2 0.84108388E-01 0.58763157E+03</pdfrwt>
<pdfrwt beam="2">  1       -2 0.20946664E-01 0.58763157E+03</pdfrwt>
<totfact> 0.10931009E+03</totfact>
</mgrwt>
</event>
<event>
 4    1  0.5387486E-005  0.4396119E+03  0.7818608E-02  0.1030866E+00
          2   -1    0    0  501    0  0.00000000000E+00  0.00000000000E+00  0.28621767064E+03  0.28621767065E+03  0.25500000000E-02 0.  1.
         -2   -1    0    0    0  501 -0.00000000000E+00 -0.00000000000E+00 -0.16880390534E+03  0.16880390536E+03  0.25500000000E-02 0. -1.
    5000001    1    1    2    0    0 -0.60571668907E+01  0.14403508555E+03  0.76838499128E+02  0.23218947023E+03  0.16500000000E+03 0.  0.
   -5000001    1    1    2    0    0  0.60571668907E+01 -0.14403508555E+03  0.40575266167E+02  0.22283210577E+03  0.16500000000E+03 0.  0.
<mgrwt>
<rscale>  0 0.43961192E+03</rscale>
<asrwt>0</asrwt>
<pdfrwt beam="1">  1        2 0.40888239E-01 0.43961192E+03</pdfrwt>
<pdfrwt beam="2">  1       -2 0.24114843E-01 0.43961192E+03</pdfrwt>
<totfact> 0.19062293E+03</totfact>
</mgrwt>
</event>
<event>
 4    1  0.5387486E-005  0.1186893E+04  0.7818608E-02  0.9124407E-01
          2   -1    0    0  501    0  0.00000000000E+00  0.00000000000E+00  0.17721851240E+04  0.17721851240E+04  0.25500000000E-02 0.  1.
         -2   -1    0    0    0  501 -0.00000000000E+00 -0.00000000000E+00 -0.19872565394E+03  0.19872565396E+03  0.25500000000E-02 0. -1.
    5000001    1    1    2    0    0  0.36685382946E+03 -0.37784239149E+03  0.11490486942E+04  0.12747095774E+04  0.16500000000E+03 0.  0.
   -5000001    1    1    2    0    0 -0.36685382946E+03  0.37784239149E+03  0.42441077578E+03  0.69620120052E+03  0.16500000000E+03 0.  0.
<mgrwt>
<rscale>  0 0.11868928E+04</rscale>
<asrwt>0</asrwt>
<pdfrwt beam="1">  1        2 0.25316930E+00 0.11868928E+04</pdfrwt>
<pdfrwt beam="2">  1       -2 0.28389380E-01 0.11868928E+04</pdfrwt>
<totfact> 0.11799892E+02</totfact>
</mgrwt>
</event>
<event>
 4    1  0.5387486E-005  0.4989170E+03  0.7818608E-02  0.1014062E+00
          2   -1    0    0  501    0  0.00000000000E+00  0.00000000000E+00  0.14181260768E+04  0.14181260768E+04  0.25500000000E-02 0.  1.
         -2   -1    0    0    0  501 -0.00000000000E+00 -0.00000000000E+00 -0.43881538645E+02  0.43881538719E+02  0.25500000000E-02 0. -1.
    5000001    1    1    2    0    0 -0.91580377215E+02  0.16253193937E+03  0.64558160876E+03  0.69195679805E+03  0.16500000000E+03 0.  0.
   -5000001    1    1    2    0    0  0.91580377215E+02 -0.16253193937E+03  0.72866292942E+03  0.77005081749E+03  0.16500000000E+03 0.  0.
<mgrwt>
<rscale>  0 0.49891704E+03</rscale>
<asrwt>0</asrwt>
<pdfrwt beam="1">  1        2 0.20258944E+00 0.49891704E+03</pdfrwt>
<pdfrwt beam="2">  1       -2 0.62687914E-02 0.49891704E+03</pdfrwt>
<totfact> 0.23712847E+03</totfact>
</mgrwt>
</event>
<event>
 4    1  0.5387486E-005  0.5748161E+03  0.7818608E-02  0.9959078E-01
         -2   -1    0    0    0  501 -0.00000000000E+00  0.00000000000E+00  0.39388709729E+02  0.39388709811E+02  0.25500000000E-02 0. -1.
          2   -1    0    0  501    0  0.00000000000E+00 -0.00000000000E+00 -0.20971332511E+04  0.20971332511E+04  0.25500000000E-02 0.  1.
    5000001    1    1    2    0    0  0.22706998355E+03  0.26667237810E+02 -0.82170986925E+03  0.86873703053E+03  0.16500000000E+03 0.  0.
   -5000001    1    1    2    0    0 -0.22706998355E+03 -0.26667237810E+02 -0.12360346721E+04  0.12677849304E+04  0.16500000000E+03 0.  0.
<mgrwt>
<rscale>  0 0.57481605E+03</rscale>
<asrwt>0</asrwt>
<pdfrwt beam="1">  1        2 0.29959039E+00 0.57481605E+03</pdfrwt>
<pdfrwt beam="2">  1       -2 0.56269599E-02 0.57481605E+03</pdfrwt>
<totfact> 0.12660970E+03</totfact>
</mgrwt>
</event>
<event>
 4    1  0.5387486E-005  0.4718000E+03  0.7818608E-02  0.1021413E+00
         -2   -1    0    0    0  501 -0.00000000000E+00  0.00000000000E+00  0.31145946268E+02  0.31145946372E+02  0.25500000000E-02 0.  1.
          2   -1    0    0  501    0  0.00000000000E+00 -0.00000000000E+00 -0.17867113337E+04  0.17867113337E+04  0.25500000000E-02 0. -1.
    5000001    1    1    2    0    0 -0.13736287238E+03  0.92347574359E+02 -0.10012709182E+04  0.10281853358E+04  0.16500000000E+03 0.  0.
   -5000001    1    1    2    0    0  0.13736287238E+03 -0.92347574359E+02 -0.75429446924E+03  0.78967194425E+03  0.16500000000E+03 0.  0.
<mgrwt>
<rscale>  0 0.47180002E+03</rscale>
<asrwt>0</asrwt>
<pdfrwt beam="1">  1        2 0.25524441E+00 0.47180002E+03</pdfrwt>
<pdfrwt beam="2">  1       -2 0.44494220E-02 0.47180002E+03</pdfrwt>
<totfact> 0.26146676E+03</totfact>
</mgrwt>
</event>
<event>
 4    1  0.5387486E-005  0.4292136E+03  0.7818608E-02  0.1034109E+00
          2   -1    0    0  501    0  0.00000000000E+00  0.00000000000E+00  0.24954838020E+03  0.24954838022E+03  0.25500000000E-02 0.  1.
         -2   -1    0    0    0  501 -0.00000000000E+00 -0.00000000000E+00 -0.18455773378E+03  0.18455773380E+03  0.25500000000E-02 0. -1.
    5000001    1    1    2    0    0 -0.14835422811E+02 -0.12894358843E+03 -0.12560699716E+02  0.21030765546E+03  0.16500000000E+03 0.  0.
   -5000001    1    1    2    0    0  0.14835422811E+02  0.12894358843E+03  0.77551346134E+02  0.22379845856E+03  0.16500000000E+03 0.  0.
<mgrwt>
<rscale>  0 0.42921362E+03</rscale>
<asrwt>0</asrwt>
<pdfrwt beam="1">  1        2 0.35649768E-01 0.42921362E+03</pdfrwt>
<pdfrwt beam="2">  1       -2 0.26365391E-01 0.42921362E+03</pdfrwt>
<totfact> 0.18890181E+03</totfact>
</mgrwt>
</event>
<event>
 4    1  0.5387486E-005  0.5134108E+03  0.7818608E-02  0.1010337E+00
         -2   -1    0    0    0  501 -0.00000000000E+00  0.00000000000E+00  0.57201915205E+02  0.57201915262E+02  0.25500000000E-02 0. -1.
          2   -1    0    0  501    0  0.00000000000E+00 -0.00000000000E+00 -0.11520182849E+04  0.11520182849E+04  0.25500000000E-02 0.  1.
    5000001    1    1    2    0    0  0.18925823892E+03 -0.78812742378E+01 -0.42296045001E+03  0.49193631474E+03  0.16500000000E+03 0.  0.
   -5000001    1    1    2    0    0 -0.18925823892E+03  0.78812742378E+01 -0.67185591969E+03  0.71728388543E+03  0.16500000000E+03 0.  0.
<mgrwt>
<rscale>  0 0.51341076E+03</rscale>
<asrwt>0</asrwt>
<pdfrwt beam="1">  1        2 0.16457403E+00 0.51341076E+03</pdfrwt>
<pdfrwt beam="2">  1       -2 0.81717029E-02 0.51341076E+03</pdfrwt>
<totfact> 0.21781600E+03</totfact>
</mgrwt>
</event>
<event>
 4    1  0.5387486E-005  0.1150617E+04  0.7818608E-02  0.9157215E-01
          2   -1    0    0  501    0  0.00000000000E+00  0.00000000000E+00  0.16944594305E+04  0.16944594305E+04  0.25500000000E-02 0.  1.
         -2   -1    0    0    0  501 -0.00000000000E+00 -0.00000000000E+00 -0.19533060656E+03  0.19533060657E+03  0.25500000000E-02 0. -1.
    5000001    1    1    2    0    0  0.25596922027E+02  0.55054033179E+03  0.75321079644E+03  0.94778761504E+03  0.16500000000E+03 0.  0.
   -5000001    1    1    2    0    0 -0.25596922027E+02 -0.55054033179E+03  0.74591802747E+03  0.94200242200E+03  0.16500000000E+03 0.  0.
<mgrwt>
<rscale>  0 0.11506169E+04</rscale>
<asrwt>0</asrwt>
<pdfrwt beam="1">  1        2 0.24206565E+00 0.11506169E+04</pdfrwt>
<pdfrwt beam="2">  1       -2 0.27904371E-01 0.11506169E+04</pdfrwt>
<totfact> 0.13395230E+02</totfact>
</mgrwt>
</event>
<event>
 4    1  0.5387486E-005  0.7361977E+03  0.7818608E-02  0.9657256E-01
          2   -1    0    0  501    0  0.00000000000E+00  0.00000000000E+00  0.44497695858E+03  0.44497695859E+03  0.25500000000E-02 0.  1.
         -2   -1    0    0    0  501 -0.00000000000E+00 -0.00000000000E+00 -0.30450290187E+03  0.30450290188E+03  0.25500000000E-02 0. -1.
    5000001    1    1    2    0    0 -0.27497463763E+03  0.16641128673E+03  0.14199276251E+03  0.38818901620E+03  0.16500000000E+03 0.  0.
   -5000001    1    1    2    0    0  0.27497463763E+03 -0.16641128673E+03 -0.15187058048E+01  0.36129084428E+03  0.16500000000E+03 0.  0.
<mgrwt>
<rscale>  0 0.73619773E+03</rscale>
<asrwt>0</asrwt>
<pdfrwt beam="1">  1        2 0.63568136E-01 0.73619773E+03</pdfrwt>
<pdfrwt beam="2">  1       -2 0.43500415E-01 0.73619773E+03</pdfrwt>
<totfact> 0.38692935E+02</totfact>
</mgrwt>
</event>
<event>
 4    1  0.5387486E-005  0.4969053E+03  0.7818608E-02  0.1014590E+00
          2   -1    0    0  501    0  0.00000000000E+00  0.00000000000E+00  0.82238258551E+03  0.82238258551E+03  0.25500000000E-02 0.  1.
         -2   -1    0    0    0  501 -0.00000000000E+00 -0.00000000000E+00 -0.75060841219E+02  0.75060841263E+02  0.25500000000E-02 0. -1.
    5000001    1    1    2    0    0  0.11183371250E+03 -0.97598995602E+02  0.57535384662E+03  0.61667608355E+03  0.16500000000E+03 0.  0.
   -5000001    1    1    2    0    0 -0.11183371250E+03  0.97598995602E+02  0.17196789766E+03  0.28076734322E+03  0.16500000000E+03 0.  0.
<mgrwt>
<rscale>  0 0.49690534E+03</rscale>
<asrwt>0</asrwt>
<pdfrwt beam="1">  1        2 0.11748322E+00 0.49690534E+03</pdfrwt>
<pdfrwt beam="2">  1       -2 0.10722978E-01 0.49690534E+03</pdfrwt>
<totfact> 0.22430029E+03</totfact>
</mgrwt>
</event>
<event>
 4    1  0.5387486E-005  0.3744775E+03  0.7818608E-02  0.1052994E+00
          2   -1    0    0  501    0  0.00000000000E+00  0.00000000000E+00  0.73486472076E+03  0.73486472077E+03  0.25500000000E-02 0.  1.
         -2   -1    0    0    0  501 -0.00000000000E+00 -0.00000000000E+00 -0.47707219466E+02  0.47707219534E+02  0.25500000000E-02 0. -1.
    5000001    1    1    2    0    0 -0.87190891907E+02 -0.14407697236E+02  0.33344408313E+03  0.38238696362E+03  0.16500000000E+03 0.  0.
   -5000001    1    1    2    0    0  0.87190891907E+02  0.14407697236E+02  0.35371341816E+03  0.40018497668E+03  0.16500000000E+03 0.  0.
<mgrwt>
<rscale>  0 0.37447752E+03</rscale>
<asrwt>0</asrwt>
<pdfrwt beam="1">  1        2 0.10498067E+00 0.37447752E+03</pdfrwt>
<pdfrwt beam="2">  1       -2 0.68153175E-02 0.37447752E+03</pdfrwt>
<totfact> 0.52892865E+03</totfact>
</mgrwt>
</event>
<event>
 4    1  0.5387486E-005  0.3885580E+03  0.7818608E-02  0.1047815E+00
         -2   -1    0    0    0  501 -0.00000000000E+00  0.00000000000E+00  0.13894622204E+03  0.13894622207E+03  0.25500000000E-02 0. -1.
          2   -1    0    0  501    0  0.00000000000E+00 -0.00000000000E+00 -0.27164698488E+03  0.27164698489E+03  0.25500000000E-02 0.  1.
    5000001    1    1    2    0    0  0.56590812310E+02  0.29099886670E+01 -0.15668727411E+03  0.23449283559E+03  0.16500000000E+03 0.  0.
   -5000001    1    1    2    0    0 -0.56590812310E+02 -0.29099886670E+01  0.23986511283E+02  0.17610037137E+03  0.16500000000E+03 0.  0.
<mgrwt>
<rscale>  0 0.38855796E+03</rscale>
<asrwt>0</asrwt>
<pdfrwt beam="1">  1        2 0.38806712E-01 0.38855796E+03</pdfrwt>
<pdfrwt beam="2">  1       -2 0.19849460E-01 0.38855796E+03</pdfrwt>
<totfact> 0.28314720E+03</totfact>
</mgrwt>
</event>
<event>
 4    1  0.5387486E-005  0.4295206E+03  0.7818608E-02  0.1034012E+00
          2   -1    0    0  501    0  0.00000000000E+00  0.00000000000E+00  0.12966574482E+03  0.12966574485E+03  0.25500000000E-02 0.  1.
         -2   -1    0    0    0  501 -0.00000000000E+00 -0.00000000000E+00 -0.35569911274E+03  0.35569911275E+03  0.25500000000E-02 0. -1.
    5000001    1    1    2    0    0  0.74001875150E+02  0.13698427118E+02  0.16974695045E+02  0.18214572381E+03  0.16500000000E+03 0.  0.
   -5000001    1    1    2    0    0 -0.74001875150E+02 -0.13698427118E+02 -0.24300806296E+03  0.30321913379E+03  0.16500000000E+03 0.  0.
<mgrwt>
<rscale>  0 0.42952062E+03</rscale>
<asrwt>0</asrwt>
<pdfrwt beam="1">  1        2 0.18523678E-01 0.42952062E+03</pdfrwt>
<pdfrwt beam="2">  1       -2 0.50814159E-01 0.42952062E+03</pdfrwt>
<totfact> 0.11382080E+03</totfact>
</mgrwt>
</event>
<event>
 4    1  0.5387486E-005  0.5416748E+03  0.7818608E-02  0.1003439E+00
         -2   -1    0    0    0  501 -0.00000000000E+00  0.00000000000E+00  0.58162004770E+02  0.58162004826E+02  0.25500000000E-02 0. -1.
          2   -1    0    0  501    0  0.00000000000E+00 -0.00000000000E+00 -0.12611822014E+04  0.12611822014E+04  0.25500000000E-02 0.  1.
    5000001    1    1    2    0    0  0.10404902546E+02 -0.21444823786E+03 -0.58782330302E+03  0.64719204591E+03  0.16500000000E+03 0.  0.
   -5000001    1    1    2    0    0 -0.10404902546E+02  0.21444823786E+03 -0.61519689364E+03  0.67215216035E+03  0.16500000000E+03 0.  0.
<mgrwt>
<rscale>  0 0.54167476E+03</rscale>
<asrwt>0</asrwt>
<pdfrwt beam="1">  1        2 0.18016887E+00 0.54167476E+03</pdfrwt>
<pdfrwt beam="2">  1       -2 0.83088586E-02 0.54167476E+03</pdfrwt>
<totfact> 0.18433977E+03</totfact>
</mgrwt>
</event>
<event>
 4    1  0.5387486E-005  0.4129832E+03  0.7818608E-02  0.1039375E+00
          2   -1    0    0  501    0  0.00000000000E+00  0.00000000000E+00  0.42777551655E+03  0.42777551656E+03  0.25500000000E-02 0.  1.
         -2   -1    0    0    0  501 -0.00000000000E+00 -0.00000000000E+00 -0.99675595110E+02  0.99675595143E+02  0.25500000000E-02 0. -1.
    5000001    1    1    2    0    0  0.73552868175E+02 -0.10001677820E+03  0.16324335919E+03  0.26322381096E+03  0.16500000000E+03 0.  0.
   -5000001    1    1    2    0    0 -0.73552868175E+02  0.10001677820E+03  0.16485656225E+03  0.26422730074E+03  0.16500000000E+03 0.  0.
<mgrwt>
<rscale>  0 0.41298319E+03</rscale>
<asrwt>0</asrwt>
<pdfrwt beam="1">  1        2 0.61110789E-01 0.41298319E+03</pdfrwt>
<pdfrwt beam="2">  1       -2 0.14239371E-01 0.41298319E+03</pdfrwt>
<totfact> 0.30249363E+03</totfact>
</mgrwt>
</event>
<event>
 4    1  0.5387486E-005  0.7933816E+03  0.7818608E-02  0.9569647E-01
          2   -1    0    0  501    0  0.00000000000E+00  0.00000000000E+00  0.30687755288E+03  0.30687755289E+03  0.25500000000E-02 0. -1.
         -2   -1    0    0    0  501 -0.00000000000E+00 -0.00000000000E+00 -0.51278946079E+03  0.51278946080E+03  0.25500000000E-02 0.  1.
    5000001    1    1    2    0    0 -0.82590889117E+02  0.21451793492E+03  0.18428300787E+03  0.33767503070E+03  0.16500000000E+03 0.  0.
   -5000001    1    1    2    0    0  0.82590889117E+02 -0.21451793492E+03 -0.39019491579E+03  0.48199198299E+03  0.16500000000E+03 0.  0.
<mgrwt>
<rscale>  0 0.79338156E+03</rscale>
<asrwt>0</asrwt>
<pdfrwt beam="1">  1        2 0.43839651E-01 0.79338156E+03</pdfrwt>
<pdfrwt beam="2">  1       -2 0.73255637E-01 0.79338156E+03</pdfrwt>
<totfact> 0.19708098E+02</totfact>
</mgrwt>
</event>
<event>
 4    1  0.5387486E-005  0.1900286E+04  0.7818608E-02  0.8654714E-01
         -2   -1    0    0    0  501 -0.00000000000E+00  0.00000000000E+00  0.40573664229E+03  0.40573664230E+03  0.25500000000E-02 0. -1.
          2   -1    0    0  501    0  0.00000000000E+00 -0.00000000000E+00 -0.22250190303E+04  0.22250190303E+04  0.25500000000E-02 0.  1.
    5000001    1    1    2    0    0 -0.85835179843E+03  0.29687227589E+02 -0.14237320836E+04  0.16708941280E+04  0.16500000000E+03 0.  0.
   -5000001    1    1    2    0    0  0.85835179843E+03 -0.29687227589E+02 -0.39555030443E+03  0.95986154454E+03  0.16500000000E+03 0.  0.
<mgrwt>
<rscale>  0 0.19002860E+04</rscale>
<asrwt>0</asrwt>
<pdfrwt beam="1">  1        2 0.31785985E+00 0.19002860E+04</pdfrwt>
<pdfrwt beam="2">  1       -2 0.57962379E-01 0.19002860E+04</pdfrwt>
<totfact> 0.16066837E+01</totfact>
</mgrwt>
</event>
<event>
 4    1  0.5387486E-005  0.5674330E+03  0.7818608E-02  0.9975375E-01
          2   -1    0    0  501    0  0.00000000000E+00  0.00000000000E+00  0.97598957637E+03  0.97598957637E+03  0.25500000000E-02 0.  1.
         -2   -1    0    0    0  501 -0.00000000000E+00 -0.00000000000E+00 -0.82475323171E+02  0.82475323210E+02  0.25500000000E-02 0. -1.
    5000001    1    1    2    0    0  0.14447529953E+03 -0.15130167689E+03  0.26489924693E+03  0.37571521213E+03  0.16500000000E+03 0.  0.
   -5000001    1    1    2    0    0 -0.14447529953E+03  0.15130167689E+03  0.62861500627E+03  0.68274968745E+03  0.16500000000E+03 0.  0.
<mgrwt>
<rscale>  0 0.56743301E+03</rscale>
<asrwt>0</asrwt>
<pdfrwt beam="1">  1        2 0.13942708E+00 0.56743301E+03</pdfrwt>
<pdfrwt beam="2">  1       -2 0.11782189E-01 0.56743301E+03</pdfrwt>
<totfact> 0.15307535E+03</totfact>
</mgrwt>
</event>
<event>
 4    1  0.5387486E-005  0.9669389E+03  0.7818608E-02  0.9345568E-01
          2   -1    0    0  501    0  0.00000000000E+00  0.00000000000E+00  0.28822569428E+04  0.28822569428E+04  0.25500000000E-02 0.  1.
         -2   -1    0    0    0  501 -0.00000000000E+00 -0.00000000000E+00 -0.81097116518E+02  0.81097116558E+02  0.25500000000E-02 0. -1.
    5000001    1    1    2    0    0 -0.24347196766E+03 -0.26245010065E+03  0.54269478546E+03  0.67074681105E+03  0.16500000000E+03 0.  0.
   -5000001    1    1    2    0    0  0.24347196766E+03  0.26245010065E+03  0.22584650408E+04  0.22926072483E+04  0.16500000000E+03 0.  0.
<mgrwt>
<rscale>  0 0.96693894E+03</rscale>
<asrwt>0</asrwt>
<pdfrwt beam="1">  1        2 0.41175093E+00 0.96693894E+03</pdfrwt>
<pdfrwt beam="2">  1       -2 0.11585304E-01 0.96693894E+03</pdfrwt>
<totfact> 0.15114943E+02</totfact>
</mgrwt>
</event>
<event>
 4    1  0.5387486E-005  0.1455340E+04  0.7818608E-02  0.8914707E-01
         -2   -1    0    0    0  501 -0.00000000000E+00  0.00000000000E+00  0.22954066245E+03  0.22954066246E+03  0.25500000000E-02 0. -1.
          2   -1    0    0  501    0  0.00000000000E+00 -0.00000000000E+00 -0.23067958899E+04  0.23067958899E+04  0.25500000000E-02 0.  1.
    5000001    1    1    2    0    0  0.59154429555E+03  0.11953108118E+03 -0.16861966149E+04  0.17985261625E+04  0.16500000000E+03 0.  0.
   -5000001    1    1    2    0    0 -0.59154429555E+03 -0.11953108118E+03 -0.39105861251E+03  0.73781038986E+03  0.16500000000E+03 0.  0.
<mgrwt>
<rscale>  0 0.14553398E+04</rscale>
<asrwt>0</asrwt>
<pdfrwt beam="1">  1        2 0.32954226E+00 0.14553398E+04</pdfrwt>
<pdfrwt beam="2">  1       -2 0.32791525E-01 0.14553398E+04</pdfrwt>
<totfact> 0.46903152E+01</totfact>
</mgrwt>
</event>
<event>
 4    1  0.5387486E-005  0.7176328E+03  0.7818608E-02  0.9687544E-01
          2   -1    0    0  501    0  0.00000000000E+00  0.00000000000E+00  0.19578128224E+04  0.19578128224E+04  0.25500000000E-02 0.  1.
         -2   -1    0    0    0  501 -0.00000000000E+00 -0.00000000000E+00 -0.65761758388E+02  0.65761758438E+02  0.25500000000E-02 0. -1.
    5000001    1    1    2    0    0  0.21844615613E+03  0.22817803693E+03  0.82839345499E+03  0.90180078506E+03  0.16500000000E+03 0.  0.
   -5000001    1    1    2    0    0 -0.21844615613E+03 -0.22817803693E+03  0.10636576090E+04  0.11217737957E+04  0.16500000000E+03 0.  0.
<mgrwt>
<rscale>  0 0.71763281E+03</rscale>
<asrwt>0</asrwt>
<pdfrwt beam="1">  1        2 0.27968753E+00 0.71763281E+03</pdfrwt>
<pdfrwt beam="2">  1       -2 0.93945376E-02 0.71763281E+03</pdfrwt>
<totfact> 0.65414281E+02</totfact>
</mgrwt>
</event>
<event>
 4    1  0.5387486E-005  0.8465755E+03  0.7818608E-02  0.9494945E-01
          2   -1    0    0  501    0  0.00000000000E+00  0.00000000000E+00  0.14690862508E+04  0.14690862508E+04  0.25500000000E-02 0.  1.
         -2   -1    0    0    0  501 -0.00000000000E+00 -0.00000000000E+00 -0.12196187611E+03  0.12196187614E+03  0.25500000000E-02 0. -1.
    5000001    1    1    2    0    0 -0.62790554550E+02 -0.37219333406E+03  0.49060364485E+03  0.64061491397E+03  0.16500000000E+03 0.  0.
   -5000001    1    1    2    0    0  0.62790554550E+02  0.37219333406E+03  0.85652072980E+03  0.95043321293E+03  0.16500000000E+03 0.  0.
<mgrwt>
<rscale>  0 0.84657549E+03</rscale>
<asrwt>0</asrwt>
<pdfrwt beam="1">  1        2 0.20986946E+00 0.84657549E+03</pdfrwt>
<pdfrwt beam="2">  1       -2 0.17423125E-01 0.84657549E+03</pdfrwt>
<totfact> 0.41382601E+02</totfact>
</mgrwt>
</event>
<event>
 4    1  0.5387486E-005  0.1298628E+04  0.7818608E-02  0.9030653E-01
          2   -1    0    0  501    0  0.00000000000E+00  0.00000000000E+00  0.12496029571E+04  0.12496029571E+04  0.25500000000E-02 0.  1.
         -2   -1    0    0    0  501 -0.00000000000E+00 -0.00000000000E+00 -0.33739435799E+03  0.33739435800E+03  0.25500000000E-02 0. -1.
    5000001    1    1    2    0    0  0.28217369666E+03 -0.47893698427E+03  0.99018323833E+02  0.58824506665E+03  0.16500000000E+03 0.  0.
   -5000001    1    1    2    0    0 -0.28217369666E+03  0.47893698427E+03  0.81319027529E+03  0.99875224846E+03  0.16500000000E+03 0.  0.
<mgrwt>
<rscale>  0 0.12986285E+04</rscale>
<asrwt>0</asrwt>
<pdfrwt beam="1">  1        2 0.17851471E+00 0.12986285E+04</pdfrwt>
<pdfrwt beam="2">  1       -2 0.48199193E-01 0.12986285E+04</pdfrwt>
<totfact> 0.80090125E+01</totfact>
</mgrwt>
</event>
<event>
 4    1  0.5387486E-005  0.5718560E+03  0.7818608E-02  0.9965580E-01
          2   -1    0    0  501    0  0.00000000000E+00  0.00000000000E+00  0.10340506721E+04  0.10340506721E+04  0.25500000000E-02 0.  1.
         -2   -1    0    0    0  501 -0.00000000000E+00 -0.00000000000E+00 -0.79062680558E+02  0.79062680599E+02  0.25500000000E-02 0. -1.
    5000001    1    1    2    0    0  0.21479970807E+03  0.91125852177E+02  0.49564783927E+03  0.57213164228E+03  0.16500000000E+03 0.  0.
   -5000001    1    1    2    0    0 -0.21479970807E+03 -0.91125852177E+02  0.45934015228E+03  0.54098171043E+03  0.16500000000E+03 0.  0.
<mgrwt>
<rscale>  0 0.57185599E+03</rscale>
<asrwt>0</asrwt>
<pdfrwt beam="1">  1        2 0.14772153E+00 0.57185599E+03</pdfrwt>
<pdfrwt beam="2">  1       -2 0.11294668E-01 0.57185599E+03</pdfrwt>
<totfact> 0.15125653E+03</totfact>
</mgrwt>
</event>
<event>
 4    1  0.5387486E-005  0.5266472E+03  0.7818608E-02  0.1007048E+00
          2   -1    0    0  501    0  0.00000000000E+00  0.00000000000E+00  0.50167653993E+03  0.50167653993E+03  0.25500000000E-02 0.  1.
         -2   -1    0    0    0  501 -0.00000000000E+00 -0.00000000000E+00 -0.13821518620E+03  0.13821518622E+03  0.25500000000E-02 0. -1.
    5000001    1    1    2    0    0 -0.25771750529E+02 -0.20151878492E+03  0.21695212074E+03  0.33995180025E+03  0.16500000000E+03 0.  0.
   -5000001    1    1    2    0    0  0.25771750529E+02  0.20151878492E+03  0.14650923299E+03  0.29993992591E+03  0.16500000000E+03 0.  0.
<mgrwt>
<rscale>  0 0.52664719E+03</rscale>
<asrwt>0</asrwt>
<pdfrwt beam="1">  1        2 0.71668077E-01 0.52664719E+03</pdfrwt>
<pdfrwt beam="2">  1       -2 0.19745027E-01 0.52664719E+03</pdfrwt>
<totfact> 0.14572724E+03</totfact>
</mgrwt>
</event>
<event>
 4    1  0.5387486E-005  0.4835357E+03  0.7818608E-02  0.1018168E+00
         -2   -1    0    0    0  501 -0.00000000000E+00  0.00000000000E+00  0.21184222083E+02  0.21184222237E+02  0.25500000000E-02 0. -1.
          2   -1    0    0  501    0  0.00000000000E+00 -0.00000000000E+00 -0.27592088434E+04  0.27592088434E+04  0.25500000000E-02 0.  1.
    5000001    1    1    2    0    0 -0.11797530757E+03  0.12780156224E+03 -0.11894387268E+04  0.12133593438E+04  0.16500000000E+03 0.  0.
   -5000001    1    1    2    0    0  0.11797530757E+03 -0.12780156224E+03 -0.15485858945E+04  0.15670337218E+04  0.16500000000E+03 0.  0.
<mgrwt>
<rscale>  0 0.48353570E+03</rscale>
<asrwt>0</asrwt>
<pdfrwt beam="1">  1        2 0.39417246E+00 0.48353570E+03</pdfrwt>
<pdfrwt beam="2">  1       -2 0.30263192E-02 0.48353570E+03</pdfrwt>
<totfact> 0.15172356E+03</totfact>
</mgrwt>
</event>
<event>
 4    1  0.5387486E-005  0.9136423E+03  0.7818608E-02  0.9408687E-01
         -2   -1    0    0    0  501 -0.00000000000E+00  0.00000000000E+00  0.21363503474E+03  0.21363503476E+03  0.25500000000E-02 0. -1.
          2   -1    0    0  501    0  0.00000000000E+00 -0.00000000000E+00 -0.97683219125E+03  0.97683219126E+03  0.25500000000E-02 0.  1.
    5000001    1    1    2    0    0 -0.32648063548E+03  0.24631101662E+03 -0.53687796041E+03  0.69478174028E+03  0.16500000000E+03 0.  0.
   -5000001    1    1    2    0    0  0.32648063548E+03 -0.24631101662E+03 -0.22631919610E+03  0.49568548574E+03  0.16500000000E+03 0.  0.
<mgrwt>
<rscale>  0 0.91364234E+03</rscale>
<asrwt>0</asrwt>
<pdfrwt beam="1">  1        2 0.13954745E+00 0.91364234E+03</pdfrwt>
<pdfrwt beam="2">  1       -2 0.30519291E-01 0.91364234E+03</pdfrwt>
<totfact> 0.28806668E+02</totfact>
</mgrwt>
</event>
<event>
 4    1  0.5387486E-005  0.3962437E+03  0.7818608E-02  0.1045088E+00
          2   -1    0    0  501    0  0.00000000000E+00  0.00000000000E+00  0.31642277545E+03  0.31642277546E+03  0.25500000000E-02 0.  1.
         -2   -1    0    0    0  501 -0.00000000000E+00 -0.00000000000E+00 -0.12405007065E+03  0.12405007067E+03  0.25500000000E-02 0. -1.
    5000001    1    1    2    0    0 -0.66001750324E+02  0.27024662086E+02  0.35762128335E+01  0.17978974583E+03  0.16500000000E+03 0.  0.
   -5000001    1    1    2    0    0  0.66001750324E+02 -0.27024662086E+02  0.18879649197E+03  0.26068310031E+03  0.16500000000E+03 0.  0.
<mgrwt>
<rscale>  0 0.39624370E+03</rscale>
<asrwt>0</asrwt>
<pdfrwt beam="1">  1        2 0.45203253E-01 0.39624370E+03</pdfrwt>
<pdfrwt beam="2">  1       -2 0.17721439E-01 0.39624370E+03</pdfrwt>
<totfact> 0.29120395E+03</totfact>
</mgrwt>
</event>
<event>
 4    1  0.5387486E-005  0.5753439E+03  0.7818608E-02  0.9957922E-01
         -2   -1    0    0    0  501 -0.00000000000E+00  0.00000000000E+00  0.41393761133E+02  0.41393761212E+02  0.25500000000E-02 0. -1.
          2   -1    0    0  501    0  0.00000000000E+00 -0.00000000000E+00 -0.19992182880E+04  0.19992182880E+04  0.25500000000E-02 0.  1.
    5000001    1    1    2    0    0 -0.19067411036E+03  0.67599050965E+02 -0.14075274610E+04  0.14315323263E+04  0.16500000000E+03 0.  0.
   -5000001    1    1    2    0    0  0.19067411036E+03 -0.67599050965E+02 -0.55029706596E+03  0.60907972291E+03  0.16500000000E+03 0.  0.
<mgrwt>
<rscale>  0 0.57534395E+03</rscale>
<asrwt>0</asrwt>
<pdfrwt beam="1">  1        2 0.28560255E+00 0.57534395E+03</pdfrwt>
<pdfrwt beam="2">  1       -2 0.59133957E-02 0.57534395E+03</pdfrwt>
<totfact> 0.13118796E+03</totfact>
</mgrwt>
</event>
<event>
 4    1  0.5387486E-005  0.3777221E+03  0.7818608E-02  0.1051779E+00
         -2   -1    0    0    0  501 -0.00000000000E+00  0.00000000000E+00  0.32877135234E+02  0.32877135333E+02  0.25500000000E-02 0. -1.
          2   -1    0    0  501    0  0.00000000000E+00 -0.00000000000E+00 -0.10849026690E+04  0.10849026690E+04  0.25500000000E-02 0.  1.
    5000001    1    1    2    0    0  0.54313701129E+02 -0.71639502257E+02 -0.58226180626E+03  0.61183004785E+03  0.16500000000E+03 0.  0.
   -5000001    1    1    2    0    0 -0.54313701129E+02  0.71639502257E+02 -0.46976372749E+03  0.50594975648E+03  0.16500000000E+03 0.  0.
<mgrwt>
<rscale>  0 0.37772208E+03</rscale>
<asrwt>0</asrwt>
<pdfrwt beam="1">  1        2 0.15498607E+00 0.37772208E+03</pdfrwt>
<pdfrwt beam="2">  1       -2 0.46967343E-02 0.37772208E+03</pdfrwt>
<totfact> 0.56290960E+03</totfact>
</mgrwt>
</event>
<event>
 4    1  0.5387486E-005  0.7870541E+03  0.7818608E-02  0.9578947E-01
          2   -1    0    0  501    0  0.00000000000E+00  0.00000000000E+00  0.19084943769E+04  0.19084943769E+04  0.25500000000E-02 0.  1.
         -2   -1    0    0    0  501 -0.00000000000E+00 -0.00000000000E+00 -0.81144350567E+02  0.81144350607E+02  0.25500000000E-02 0. -1.
    5000001    1    1    2    0    0  0.31318011846E+03  0.12932948355E+03  0.62732730148E+03  0.73182815270E+03  0.16500000000E+03 0.  0.
   -5000001    1    1    2    0    0 -0.31318011846E+03 -0.12932948355E+03  0.12000227248E+04  0.12578105748E+04  0.16500000000E+03 0.  0.
<mgrwt>
<rscale>  0 0.78705409E+03</rscale>
<asrwt>0</asrwt>
<pdfrwt beam="1">  1        2 0.27264209E+00 0.78705409E+03</pdfrwt>
<pdfrwt beam="2">  1       -2 0.11592049E-01 0.78705409E+03</pdfrwt>
<totfact> 0.48940726E+02</totfact>
</mgrwt>
</event>
<event>
 4    1  0.5387486E-005  0.5335802E+03  0.7818608E-02  0.1005368E+00
          2   -1    0    0  501    0  0.00000000000E+00  0.00000000000E+00  0.22359654504E+04  0.22359654504E+04  0.25500000000E-02 0.  1.
         -2   -1    0    0    0  501 -0.00000000000E+00 -0.00000000000E+00 -0.31832759921E+02  0.31832760023E+02  0.25500000000E-02 0. -1.
    5000001    1    1    2    0    0  0.18291380567E+02 -0.17647197206E+03  0.15767730281E+04  0.15952790081E+04  0.16500000000E+03 0.  0.
   -5000001    1    1    2    0    0 -0.18291380567E+02  0.17647197206E+03  0.62735966243E+03  0.67251920238E+03  0.16500000000E+03 0.  0.
<mgrwt>
<rscale>  0 0.53358018E+03</rscale>
<asrwt>0</asrwt>
<pdfrwt beam="1">  1        2 0.31942360E+00 0.53358018E+03</pdfrwt>
<pdfrwt beam="2">  1       -2 0.45475377E-02 0.53358018E+03</pdfrwt>
<totfact> 0.15035969E+03</totfact>
</mgrwt>
</event>
<event>
 4    1  0.5387486E-005  0.4619591E+03  0.7818608E-02  0.1024215E+00
          2   -1    0    0  501    0  0.00000000000E+00  0.00000000000E+00  0.73848083275E+03  0.73848083275E+03  0.25500000000E-02 0.  1.
         -2   -1    0    0    0  501 -0.00000000000E+00 -0.00000000000E+00 -0.72245004623E+02  0.72245004668E+02  0.25500000000E-02 0. -1.
    5000001    1    1    2    0    0 -0.84811818920E+02 -0.13651204626E+03  0.30282401631E+03  0.38046809099E+03  0.16500000000E+03 0.  0.
   -5000001    1    1    2    0    0  0.84811818920E+02  0.13651204626E+03  0.36341181181E+03  0.43025774643E+03  0.16500000000E+03 0.  0.
<mgrwt>
<rscale>  0 0.46195909E+03</rscale>
<asrwt>0</asrwt>
<pdfrwt beam="1">  1        2 0.10549726E+00 0.46195909E+03</pdfrwt>
<pdfrwt beam="2">  1       -2 0.10320715E-01 0.46195909E+03</pdfrwt>
<totfact> 0.27305599E+03</totfact>
</mgrwt>
</event>
<event>
 4    1  0.5387486E-005  0.5827242E+03  0.7818608E-02  0.9941911E-01
          2   -1    0    0  501    0  0.00000000000E+00  0.00000000000E+00  0.22727856734E+04  0.22727856734E+04  0.25500000000E-02 0.  1.
         -2   -1    0    0    0  501 -0.00000000000E+00 -0.00000000000E+00 -0.37351463611E+02  0.37351463699E+02  0.25500000000E-02 0. -1.
    5000001    1    1    2    0    0  0.43886805930E+02 -0.20255366665E+03  0.15985817510E+04  0.16203834898E+04  0.16500000000E+03 0.  0.
   -5000001    1    1    2    0    0 -0.43886805930E+02  0.20255366665E+03  0.63685245885E+03  0.68975364729E+03  0.16500000000E+03 0.  0.
<mgrwt>
<rscale>  0 0.58272419E+03</rscale>
<asrwt>0</asrwt>
<pdfrwt beam="1">  1        2 0.32468380E+00 0.58272419E+03</pdfrwt>
<pdfrwt beam="2">  1       -2 0.53359213E-02 0.58272419E+03</pdfrwt>
<totfact> 0.11215368E+03</totfact>
</mgrwt>
</event>
<event>
 4    1  0.5387486E-005  0.4550234E+03  0.7818608E-02  0.1026235E+00
          2   -1    0    0  501    0  0.00000000000E+00  0.00000000000E+00  0.17550501849E+04  0.17550501849E+04  0.25500000000E-02 0.  1.
         -2   -1    0    0    0  501 -0.00000000000E+00 -0.00000000000E+00 -0.29492926346E+02  0.29492926456E+02  0.25500000000E-02 0. -1.
    5000001    1    1    2    0    0  0.99418335613E+02  0.12104578452E+03  0.86006564011E+03  0.88964824100E+03  0.16500000000E+03 0.  0.
   -5000001    1    1    2    0    0 -0.99418335613E+02 -0.12104578452E+03  0.86549161843E+03  0.89489487035E+03  0.16500000000E+03 0.  0.
<mgrwt>
<rscale>  0 0.45502337E+03</rscale>
<asrwt>0</asrwt>
<pdfrwt beam="1">  1        2 0.25072150E+00 0.45502337E+03</pdfrwt>
<pdfrwt beam="2">  1       -2 0.42132745E-02 0.45502337E+03</pdfrwt>
<totfact> 0.29494245E+03</totfact>
</mgrwt>
</event>
<event>
 4    1  0.5387486E-005  0.8327258E+03  0.7818608E-02  0.9513820E-01
          2   -1    0    0  501    0  0.00000000000E+00  0.00000000000E+00  0.49485143835E+03  0.49485143836E+03  0.25500000000E-02 0.  1.
         -2   -1    0    0    0  501 -0.00000000000E+00 -0.00000000000E+00 -0.35032345225E+03  0.35032345225E+03  0.25500000000E-02 0. -1.
    5000001    1    1    2    0    0 -0.24955666263E+03 -0.13367122121E+03  0.33298273246E+03  0.46717129980E+03  0.16500000000E+03 0.  0.
   -5000001    1    1    2    0    0  0.24955666263E+03  0.13367122121E+03 -0.18845474635E+03  0.37800359081E+03  0.16500000000E+03 0.  0.
<mgrwt>
<rscale>  0 0.83272580E+03</rscale>
<asrwt>0</asrwt>
<pdfrwt beam="1">  1        2 0.70693063E-01 0.83272580E+03</pdfrwt>
<pdfrwt beam="2">  1       -2 0.50046208E-01 0.83272580E+03</pdfrwt>
<totfact> 0.25799647E+02</totfact>
</mgrwt>
</event>
<event>
 4    1  0.5387486E-005  0.3963347E+03  0.7818608E-02  0.1045056E+00
         -2   -1    0    0    0  501 -0.00000000000E+00  0.00000000000E+00  0.12988565930E+02  0.12988566180E+02  0.25500000000E-02 0. -1.
          2   -1    0    0  501    0  0.00000000000E+00 -0.00000000000E+00 -0.30234510670E+04  0.30234510670E+04  0.25500000000E-02 0.  1.
    5000001    1    1    2    0    0 -0.31702030074E+02 -0.93718662301E+02 -0.11412518710E+04  0.11573543275E+04  0.16500000000E+03 0.  0.
   -5000001    1    1    2    0    0  0.31702030074E+02  0.93718662301E+02 -0.18692106301E+04  0.18790853057E+04  0.16500000000E+03 0.  0.
<mgrwt>
<rscale>  0 0.39633468E+03</rscale>
<asrwt>0</asrwt>
<pdfrwt beam="1">  1        2 0.43192113E+00 0.39633468E+03</pdfrwt>
<pdfrwt beam="2">  1       -2 0.18555114E-02 0.39633468E+03</pdfrwt>
<totfact> 0.23023079E+03</totfact>
</mgrwt>
</event>
<event>
 4    1  0.5387486E-005  0.6103504E+03  0.7818608E-02  0.9884162E-01
         -2   -1    0    0    0  501 -0.00000000000E+00  0.00000000000E+00  0.38688507028E+02  0.38688507112E+02  0.25500000000E-02 0. -1.
          2   -1    0    0  501    0  0.00000000000E+00 -0.00000000000E+00 -0.24072238375E+04  0.24072238375E+04  0.25500000000E-02 0.  1.
    5000001    1    1    2    0    0 -0.24129973278E+03 -0.44700564363E+02 -0.14863726891E+04  0.15155040325E+04  0.16500000000E+03 0.  0.
   -5000001    1    1    2    0    0  0.24129973278E+03  0.44700564363E+02 -0.88216264134E+03  0.93040831212E+03  0.16500000000E+03 0.  0.
<mgrwt>
<rscale>  0 0.61035038E+03</rscale>
<asrwt>0</asrwt>
<pdfrwt beam="1">  1        2 0.34388903E+00 0.61035038E+03</pdfrwt>
<pdfrwt beam="2">  1       -2 0.55269311E-02 0.61035038E+03</pdfrwt>
<totfact> 0.90579783E+02</totfact>
</mgrwt>
</event>
<event>
 4    1  0.5387486E-005  0.5373800E+03  0.7818608E-02  0.1004458E+00
         -2   -1    0    0    0  501 -0.00000000000E+00  0.00000000000E+00  0.18104384485E+03  0.18104384487E+03  0.25500000000E-02 0. -1.
          2   -1    0    0  501    0  0.00000000000E+00 -0.00000000000E+00 -0.39876709384E+03  0.39876709384E+03  0.25500000000E-02 0.  1.
    5000001    1    1    2    0    0  0.48913532874E+02  0.19891672913E+03 -0.49676734645E+02  0.26768111026E+03  0.16500000000E+03 0.  0.
   -5000001    1    1    2    0    0 -0.48913532874E+02 -0.19891672913E+03 -0.16804651434E+03  0.31212982845E+03  0.16500000000E+03 0.  0.
<mgrwt>
<rscale>  0 0.53738004E+03</rscale>
<asrwt>0</asrwt>
<pdfrwt beam="1">  1        2 0.56966727E-01 0.53738004E+03</pdfrwt>
<pdfrwt beam="2">  1       -2 0.25863407E-01 0.53738004E+03</pdfrwt>
<totfact> 0.11695619E+03</totfact>
</mgrwt>
</event>
<event>
 4    1  0.5387486E-005  0.4726485E+03  0.7818608E-02  0.1021175E+00
         -2   -1    0    0    0  501 -0.00000000000E+00  0.00000000000E+00  0.34532295466E+02  0.34532295560E+02  0.25500000000E-02 0. -1.
          2   -1    0    0  501    0  0.00000000000E+00 -0.00000000000E+00 -0.16173022954E+04  0.16173022954E+04  0.25500000000E-02 0.  1.
    5000001    1    1    2    0    0 -0.27206050848E+02 -0.14608886877E+03 -0.50871180081E+03  0.55506290010E+03  0.16500000000E+03 0.  0.
   -5000001    1    1    2    0    0  0.27206050848E+02  0.14608886877E+03 -0.10740581991E+04  0.10967716909E+04  0.16500000000E+03 0.  0.
<mgrwt>
<rscale>  0 0.47264854E+03</rscale>
<asrwt>0</asrwt>
<pdfrwt beam="1">  1        2 0.23104314E+00 0.47264854E+03</pdfrwt>
<pdfrwt beam="2">  1       -2 0.49331861E-02 0.47264854E+03</pdfrwt>
<totfact> 0.27157586E+03</totfact>
</mgrwt>
</event>
<event>
 4    1  0.5387486E-005  0.6556658E+03  0.7818608E-02  0.9796205E-01
          2   -1    0    0  501    0  0.00000000000E+00  0.00000000000E+00  0.10627157019E+04  0.10627157019E+04  0.25500000000E-02 0.  1.
         -2   -1    0    0    0  501 -0.00000000000E+00 -0.00000000000E+00 -0.10113184345E+03  0.10113184348E+03  0.25500000000E-02 0. -1.
    5000001    1    1    2    0    0 -0.24382991105E+03  0.10350780086E+03  0.30255492712E+03  0.43466236815E+03  0.16500000000E+03 0.  0.
   -5000001    1    1    2    0    0  0.24382991105E+03 -0.10350780086E+03  0.65902893134E+03  0.72918517724E+03  0.16500000000E+03 0.  0.
<mgrwt>
<rscale>  0 0.65566576E+03</rscale>
<asrwt>0</asrwt>
<pdfrwt beam="1">  1        2 0.15181653E+00 0.65566576E+03</pdfrwt>
<pdfrwt beam="2">  1       -2 0.14447406E-01 0.65566576E+03</pdfrwt>
<totfact> 0.96517110E+02</totfact>
</mgrwt>
</event>
<event>
 4    1  0.5387486E-005  0.4009594E+03  0.7818608E-02  0.1043448E+00
         -2   -1    0    0    0  501 -0.00000000000E+00  0.00000000000E+00  0.10855901316E+02  0.10855901616E+02  0.25500000000E-02 0. -1.
          2   -1    0    0  501    0  0.00000000000E+00 -0.00000000000E+00 -0.37023288132E+04  0.37023288132E+04  0.25500000000E-02 0.  1.
    5000001    1    1    2    0    0 -0.85515137646E+02  0.14274469377E+02 -0.11620373850E+04  0.11768910244E+04  0.16500000000E+03 0.  0.
   -5000001    1    1    2    0    0  0.85515137646E+02 -0.14274469377E+02 -0.25294355269E+04  0.25362936904E+04  0.16500000000E+03 0.  0.
<mgrwt>
<rscale>  0 0.40095943E+03</rscale>
<asrwt>0</asrwt>
<pdfrwt beam="1">  1        2 0.52890331E+00 0.40095943E+03</pdfrwt>
<pdfrwt beam="2">  1       -2 0.15508454E-02 0.40095943E+03</pdfrwt>
<totfact> 0.12265324E+03</totfact>
</mgrwt>
</event>
<event>
 4    1  0.5387486E-005  0.4433940E+03  0.7818608E-02  0.1029711E+00
          2   -1    0    0  501    0  0.00000000000E+00  0.00000000000E+00  0.73905706829E+02  0.73905706873E+02  0.25500000000E-02 0.  1.
         -2   -1    0    0    0  501 -0.00000000000E+00 -0.00000000000E+00 -0.66503061079E+03  0.66503061079E+03  0.25500000000E-02 0. -1.
    5000001    1    1    2    0    0  0.59008549258E+02 -0.12980441446E+03 -0.22903904201E+03  0.31625160500E+03  0.16500000000E+03 0.  0.
   -5000001    1    1    2    0    0 -0.59008549258E+02  0.12980441446E+03 -0.36208586194E+03  0.42268471266E+03  0.16500000000E+03 0.  0.
<mgrwt>
<rscale>  0 0.44339399E+03</rscale>
<asrwt>0</asrwt>
<pdfrwt beam="1">  1        2 0.10557958E-01 0.44339399E+03</pdfrwt>
<pdfrwt beam="2">  1       -2 0.95004370E-01 0.44339399E+03</pdfrwt>
<totfact> 0.58221892E+02</totfact>
</mgrwt>
</event>
<event>
 4    1  0.5387486E-005  0.4835191E+03  0.7818608E-02  0.1018172E+00
          2   -1    0    0  501    0  0.00000000000E+00  0.00000000000E+00  0.30881660863E+03  0.30881660864E+03  0.25500000000E-02 0.  1.
         -2   -1    0    0    0  501 -0.00000000000E+00 -0.00000000000E+00 -0.18926342774E+03  0.18926342776E+03  0.25500000000E-02 0. -1.
    5000001    1    1    2    0    0  0.56612706383E+02  0.16673438891E+03  0.44590351426E+02  0.24539489483E+03  0.16500000000E+03 0.  0.
   -5000001    1    1    2    0    0 -0.56612706383E+02 -0.16673438891E+03  0.74962829456E+02  0.25268514157E+03  0.16500000000E+03 0.  0.
<mgrwt>
<rscale>  0 0.48351914E+03</rscale>
<asrwt>0</asrwt>
<pdfrwt beam="1">  1        2 0.44116658E-01 0.48351914E+03</pdfrwt>
<pdfrwt beam="2">  1       -2 0.27037633E-01 0.48351914E+03</pdfrwt>
<totfact> 0.14300925E+03</totfact>
</mgrwt>
</event>
<event>
 4    1  0.5387486E-005  0.5944780E+03  0.7818608E-02  0.9916929E-01
         -2   -1    0    0    0  501 -0.00000000000E+00  0.00000000000E+00  0.33109686402E+02  0.33109686500E+02  0.25500000000E-02 0. -1.
          2   -1    0    0  501    0  0.00000000000E+00 -0.00000000000E+00 -0.26684345283E+04  0.26684345283E+04  0.25500000000E-02 0.  1.
    5000001    1    1    2    0    0 -0.96023565247E+02  0.22739141521E+03 -0.12536122501E+04  0.12882919135E+04  0.16500000000E+03 0.  0.
   -5000001    1    1    2    0    0  0.96023565247E+02 -0.22739141521E+03 -0.13817125919E+04  0.14132523014E+04  0.16500000000E+03 0.  0.
<mgrwt>
<rscale>  0 0.59447802E+03</rscale>
<asrwt>0</asrwt>
<pdfrwt beam="1">  1        2 0.38120479E+00 0.59447802E+03</pdfrwt>
<pdfrwt beam="2">  1       -2 0.47299569E-02 0.59447802E+03</pdfrwt>
<totfact> 0.84728995E+02</totfact>
</mgrwt>
</event>
<event>
 4    1  0.5387486E-005  0.4416338E+03  0.7818608E-02  0.1030247E+00
          2   -1    0    0  501    0  0.00000000000E+00  0.00000000000E+00  0.14520840461E+04  0.14520840461E+04  0.25500000000E-02 0.  1.
         -2   -1    0    0    0  501 -0.00000000000E+00 -0.00000000000E+00 -0.33579399183E+02  0.33579399279E+02  0.25500000000E-02 0. -1.
    5000001    1    1    2    0    0  0.12131126568E+03  0.69172878593E+02  0.86096161559E+03  0.88768305933E+03  0.16500000000E+03 0.  0.
   -5000001    1    1    2    0    0 -0.12131126568E+03 -0.69172878593E+02  0.55754303133E+03  0.59798038605E+03  0.16500000000E+03 0.  0.
<mgrwt>
<rscale>  0 0.44163383E+03</rscale>
<asrwt>0</asrwt>
<pdfrwt beam="1">  1        2 0.20744052E+00 0.44163383E+03</pdfrwt>
<pdfrwt beam="2">  1       -2 0.47970583E-02 0.44163383E+03</pdfrwt>
<totfact> 0.34480246E+03</totfact>
</mgrwt>
</event>
<event>
 4    1  0.5387486E-005  0.4553443E+03  0.7818608E-02  0.1026140E+00
         -2   -1    0    0    0  501 -0.00000000000E+00  0.00000000000E+00  0.12487517233E+04  0.12487517233E+04  0.25500000000E-02 0.  1.
          2   -1    0    0  501    0  0.00000000000E+00 -0.00000000000E+00 -0.41509131450E+02  0.41509131528E+02  0.25500000000E-02 0. -1.
    5000001    1    1    2    0    0 -0.86176549105E+02 -0.12675504521E+03  0.50894530491E+03  0.55654610096E+03  0.16500000000E+03 0.  0.
   -5000001    1    1    2    0    0  0.86176549105E+02  0.12675504521E+03  0.69829728694E+03  0.73371475388E+03  0.16500000000E+03 0.  0.
<mgrwt>
<rscale>  0 0.45534426E+03</rscale>
<asrwt>0</asrwt>
<pdfrwt beam="1">  1        2 0.59298757E-02 0.45534426E+03</pdfrwt>
<pdfrwt beam="2">  1       -2 0.17839311E+00 0.45534426E+03</pdfrwt>
<totfact> 0.25014171E+02</totfact>
</mgrwt>
</event>
<event>
 4    1  0.5387486E-005  0.4758575E+03  0.7818608E-02  0.1020280E+00
          2   -1    0    0  501    0  0.00000000000E+00  0.00000000000E+00  0.23168419418E+03  0.23168419420E+03  0.25500000000E-02 0.  1.
         -2   -1    0    0    0  501 -0.00000000000E+00 -0.00000000000E+00 -0.24434165983E+03  0.24434165984E+03  0.25500000000E-02 0. -1.
    5000001    1    1    2    0    0 -0.16056519515E+03  0.42991812879E+01 -0.66228419692E+02  0.23960565191E+03  0.16500000000E+03 0.  0.
   -5000001    1    1    2    0    0  0.16056519515E+03 -0.42991812879E+01  0.53570954048E+02  0.23642020212E+03  0.16500000000E+03 0.  0.
<mgrwt>
<rscale>  0 0.47585754E+03</rscale>
<asrwt>0</asrwt>
<pdfrwt beam="1">  1        2 0.33097742E-01 0.47585754E+03</pdfrwt>
<pdfrwt beam="2">  1       -2 0.34905951E-01 0.47585754E+03</pdfrwt>
<totfact> 0.12244795E+03</totfact>
</mgrwt>
</event>
<event>
 4    1  0.5387486E-005  0.4053744E+03  0.7818608E-02  0.1041934E+00
         -2   -1    0    0    0  501 -0.00000000000E+00  0.00000000000E+00  0.62506730252E+02  0.62506730304E+02  0.25500000000E-02 0. -1.
          2   -1    0    0  501    0  0.00000000000E+00 -0.00000000000E+00 -0.65724285798E+03  0.65724285798E+03  0.25500000000E-02 0.  1.
    5000001    1    1    2    0    0 -0.93582560046E+02 -0.67727123558E+02 -0.25717528933E+03  0.32666311125E+03  0.16500000000E+03 0.  0.
   -5000001    1    1    2    0    0  0.93582560046E+02  0.67727123558E+02 -0.33756083840E+03  0.39308647704E+03  0.16500000000E+03 0.  0.
<mgrwt>
<rscale>  0 0.40537440E+03</rscale>
<asrwt>0</asrwt>
<pdfrwt beam="1">  1        2 0.93891832E-01 0.40537440E+03</pdfrwt>
<pdfrwt beam="2">  1       -2 0.89295333E-02 0.40537440E+03</pdfrwt>
<totfact> 0.39586343E+03</totfact>
</mgrwt>
</event>
<event>
 4    1  0.5387486E-005  0.4430499E+03  0.7818608E-02  0.1029815E+00
         -2   -1    0    0    0  501 -0.00000000000E+00  0.00000000000E+00  0.39004708644E+02  0.39004708727E+02  0.25500000000E-02 0. -1.
          2   -1    0    0  501    0  0.00000000000E+00 -0.00000000000E+00 -0.12581380755E+04  0.12581380755E+04  0.25500000000E-02 0.  1.
    5000001    1    1    2    0    0 -0.91722138251E+02 -0.82514657757E+02 -0.37123409223E+03  0.42457198521E+03  0.16500000000E+03 0.  0.
   -5000001    1    1    2    0    0  0.91722138251E+02  0.82514657757E+02 -0.84789927460E+03  0.87257079899E+03  0.16500000000E+03 0.  0.
<mgrwt>
<rscale>  0 0.44304993E+03</rscale>
<asrwt>0</asrwt>
<pdfrwt beam="1">  1        2 0.17973399E+00 0.44304993E+03</pdfrwt>
<pdfrwt beam="2">  1       -2 0.55721020E-02 0.44304993E+03</pdfrwt>
<totfact> 0.34686212E+03</totfact>
</mgrwt>
</event>
<event>
 4    1  0.5387486E-005  0.4486524E+03  0.7818608E-02  0.1028125E+00
         -2   -1    0    0    0  501 -0.00000000000E+00  0.00000000000E+00  0.10702312308E+03  0.10702312311E+03  0.25500000000E-02 0. -1.
          2   -1    0    0  501    0  0.00000000000E+00 -0.00000000000E+00 -0.47019981668E+03  0.47019981668E+03  0.25500000000E-02 0.  1.
    5000001    1    1    2    0    0 -0.14605282465E+03 -0.42848338502E+01 -0.12780623504E+03  0.25477288142E+03  0.16500000000E+03 0.  0.
   -5000001    1    1    2    0    0  0.14605282465E+03  0.42848338502E+01 -0.23537045855E+03  0.32245005838E+03  0.16500000000E+03 0.  0.
<mgrwt>
<rscale>  0 0.44865244E+03</rscale>
<asrwt>0</asrwt>
<pdfrwt beam="1">  1        2 0.67171401E-01 0.44865244E+03</pdfrwt>
<pdfrwt beam="2">  1       -2 0.15289018E-01 0.44865244E+03</pdfrwt>
<totfact> 0.24214332E+03</totfact>
</mgrwt>
</event>
<event>
 4    1  0.5387486E-005  0.5192880E+03  0.7818608E-02  0.1008864E+00
         -2   -1    0    0    0  501 -0.00000000000E+00  0.00000000000E+00  0.11449344588E+03  0.11449344591E+03  0.25500000000E-02 0. -1.
          2   -1    0    0  501    0  0.00000000000E+00 -0.00000000000E+00 -0.58881110269E+03  0.58881110269E+03  0.25500000000E-02 0.  1.
    5000001    1    1    2    0    0 -0.92746507845E+02 -0.65289584776E+02 -0.46104028720E+03  0.50264081710E+03  0.16500000000E+03 0.  0.
   -5000001    1    1    2    0    0  0.92746507845E+02  0.65289584776E+02 -0.13277369607E+02  0.20066373150E+03  0.16500000000E+03 0.  0.
<mgrwt>
<rscale>  0 0.51928802E+03</rscale>
<asrwt>0</asrwt>
<pdfrwt beam="1">  1        2 0.84115870E-01 0.51928802E+03</pdfrwt>
<pdfrwt beam="2">  1       -2 0.16356207E-01 0.51928802E+03</pdfrwt>
<totfact> 0.16738954E+03</totfact>
</mgrwt>
</event>
<event>
 4    1  0.5387486E-005  0.4145228E+03  0.7818608E-02  0.1038864E+00
         -2   -1    0    0    0  501 -0.00000000000E+00  0.00000000000E+00  0.26152835846E+02  0.26152835970E+02  0.25500000000E-02 0. -1.
          2   -1    0    0  501    0  0.00000000000E+00 -0.00000000000E+00 -0.16425479121E+04  0.16425479121E+04  0.25500000000E-02 0.  1.
    5000001    1    1    2    0    0  0.10936103281E+02 -0.12483070708E+03 -0.83024009843E+03  0.85570200702E+03  0.16500000000E+03 0.  0.
   -5000001    1    1    2    0    0 -0.10936103281E+02  0.12483070708E+03 -0.78615497782E+03  0.81299874104E+03  0.16500000000E+03 0.  0.
<mgrwt>
<rscale>  0 0.41452279E+03</rscale>
<asrwt>0</asrwt>
<pdfrwt beam="1">  1        2 0.23464964E+00 0.41452279E+03</pdfrwt>
<pdfrwt beam="2">  1       -2 0.37361204E-02 0.41452279E+03</pdfrwt>
<totfact> 0.40367024E+03</totfact>
</mgrwt>
</event>
<event>
 4    1  0.5387486E-005  0.6676317E+03  0.7818608E-02  0.9774246E-01
         -2   -1    0    0    0  501 -0.00000000000E+00  0.00000000000E+00  0.60086256226E+02  0.60086256280E+02  0.25500000000E-02 0.  1.
          2   -1    0    0  501    0  0.00000000000E+00 -0.00000000000E+00 -0.18545508921E+04  0.18545508921E+04  0.25500000000E-02 0. -1.
    5000001    1    1    2    0    0 -0.11352308484E+03  0.24843060935E+03 -0.61620560077E+03  0.69393054470E+03  0.16500000000E+03 0.  0.
   -5000001    1    1    2    0    0  0.11352308484E+03 -0.24843060935E+03 -0.11782590351E+04  0.12207066037E+04  0.16500000000E+03 0.  0.
<mgrwt>
<rscale>  0 0.66763170E+03</rscale>
<asrwt>0</asrwt>
<pdfrwt beam="1">  1        2 0.26493581E+00 0.66763170E+03</pdfrwt>
<pdfrwt beam="2">  1       -2 0.85837521E-02 0.66763170E+03</pdfrwt>
<totfact> 0.85565856E+02</totfact>
</mgrwt>
</event>
<event>
 4    1  0.5387486E-005  0.6370593E+03  0.7818608E-02  0.9831369E-01
         -2   -1    0    0    0  501 -0.00000000000E+00  0.00000000000E+00  0.28466154809E+02  0.28466154923E+02  0.25500000000E-02 0. -1.
          2   -1    0    0  501    0  0.00000000000E+00 -0.00000000000E+00 -0.35642722655E+04  0.35642722655E+04  0.25500000000E-02 0.  1.
    5000001    1    1    2    0    0  0.26212432425E+03 -0.59214448033E+02 -0.20214085928E+04  0.20458575736E+04  0.16500000000E+03 0.  0.
   -5000001    1    1    2    0    0 -0.26212432425E+03  0.59214448033E+02 -0.15143975179E+04  0.15468808469E+04  0.16500000000E+03 0.  0.
<mgrwt>
<rscale>  0 0.63705926E+03</rscale>
<asrwt>0</asrwt>
<pdfrwt beam="1">  1        2 0.50918147E+00 0.63705926E+03</pdfrwt>
<pdfrwt beam="2">  1       -2 0.40665958E-02 0.63705926E+03</pdfrwt>
<totfact> 0.33776069E+02</totfact>
</mgrwt>
</event>
<event>
 4    1  0.5387486E-005  0.4335042E+03  0.7818608E-02  0.1032759E+00
          2   -1    0    0  501    0  0.00000000000E+00  0.00000000000E+00  0.42707552477E+04  0.42707552477E+04  0.25500000000E-02 0.  1.
         -2   -1    0    0    0  501 -0.00000000000E+00 -0.00000000000E+00 -0.11000739387E+02  0.11000739682E+02  0.25500000000E-02 0. -1.
    5000001    1    1    2    0    0  0.70220868307E+02  0.10124933960E+03  0.27978825346E+04  0.28054507795E+04  0.16500000000E+03 0.  0.
   -5000001    1    1    2    0    0 -0.70220868307E+02 -0.10124933960E+03  0.14618719737E+04  0.14763052078E+04  0.16500000000E+03 0.  0.
<mgrwt>
<rscale>  0 0.43350417E+03</rscale>
<asrwt>0</asrwt>
<pdfrwt beam="1">  1        2 0.61010908E+00 0.43350417E+03</pdfrwt>
<pdfrwt beam="2">  1       -2 0.15715312E-02 0.43350417E+03</pdfrwt>
<totfact> 0.50470076E+02</totfact>
</mgrwt>
</event>
<event>
 4    1  0.5387486E-005  0.3714126E+03  0.7818608E-02  0.1054154E+00
         -2   -1    0    0    0  501 -0.00000000000E+00  0.00000000000E+00  0.24674179702E+02  0.24674179833E+02  0.25500000000E-02 0. -1.
          2   -1    0    0  501    0  0.00000000000E+00 -0.00000000000E+00 -0.13976893257E+04  0.13976893257E+04  0.25500000000E-02 0.  1.
    5000001    1    1    2    0    0  0.84977852620E+02 -0.19185830934E-01 -0.71090966129E+03  0.73473721991E+03  0.16500000000E+03 0.  0.
   -5000001    1    1    2    0    0 -0.84977852620E+02  0.19185830934E-01 -0.66210548470E+03  0.68762628562E+03  0.16500000000E+03 0.  0.
<mgrwt>
<rscale>  0 0.37141264E+03</rscale>
<asrwt>0</asrwt>
<pdfrwt beam="1">  1        2 0.19966985E+00 0.37141264E+03</pdfrwt>
<pdfrwt beam="2">  1       -2 0.35248837E-02 0.37141264E+03</pdfrwt>
<totfact> 0.58797636E+03</totfact>
</mgrwt>
</event>
<event>
 4    1  0.5387486E-005  0.5138118E+03  0.7818608E-02  0.1010235E+00
         -2   -1    0    0    0  501 -0.00000000000E+00  0.00000000000E+00  0.18334813055E+03  0.18334813056E+03  0.25500000000E-02 0. -1.
          2   -1    0    0  501    0  0.00000000000E+00 -0.00000000000E+00 -0.35997448792E+03  0.35997448793E+03  0.25500000000E-02 0.  1.
    5000001    1    1    2    0    0  0.48094404152E+02 -0.18125177538E+03 -0.15185060787E+03  0.29231641230E+03  0.16500000000E+03 0.  0.
   -5000001    1    1    2    0    0 -0.48094404152E+02  0.18125177538E+03 -0.24775749511E+02  0.25100620620E+03  0.16500000000E+03 0.  0.
<mgrwt>
<rscale>  0 0.51381183E+03</rscale>
<asrwt>0</asrwt>
<pdfrwt beam="1">  1        2 0.51424926E-01 0.51381183E+03</pdfrwt>
<pdfrwt beam="2">  1       -2 0.26192590E-01 0.51381183E+03</pdfrwt>
<totfact> 0.12800555E+03</totfact>
</mgrwt>
</event>
<event>
 4    1  0.5387486E-005  0.3775502E+03  0.7818608E-02  0.1051843E+00
          2   -1    0    0  501    0  0.00000000000E+00  0.00000000000E+00  0.12616220758E+04  0.12616220758E+04  0.25500000000E-02 0.  1.
         -2   -1    0    0    0  501 -0.00000000000E+00 -0.00000000000E+00 -0.28246209104E+02  0.28246209219E+02  0.25500000000E-02 0. -1.
    5000001    1    1    2    0    0 -0.41038173454E+02  0.79832571651E+02  0.55243844559E+03  0.58349859241E+03  0.16500000000E+03 0.  0.
   -5000001    1    1    2    0    0  0.41038173454E+02 -0.79832571651E+02  0.68093742108E+03  0.70636969258E+03  0.16500000000E+03 0.  0.
<mgrwt>
<rscale>  0 0.37755021E+03</rscale>
<asrwt>0</asrwt>
<pdfrwt beam="1">  1        2 0.18023182E+00 0.37755021E+03</pdfrwt>
<pdfrwt beam="2">  1       -2 0.40351705E-02 0.37755021E+03</pdfrwt>
<totfact> 0.56577845E+03</totfact>
</mgrwt>
</event>
<event>
 4    1  0.5387486E-005  0.3636227E+03  0.7818608E-02  0.1057159E+00
          2   -1    0    0  501    0  0.00000000000E+00  0.00000000000E+00  0.67964352501E+03  0.67964352501E+03  0.25500000000E-02 0.  1.
         -2   -1    0    0    0  501 -0.00000000000E+00 -0.00000000000E+00 -0.48636339615E+02  0.48636339682E+02  0.25500000000E-02 0. -1.
    5000001    1    1    2    0    0  0.17156878339E+01  0.38584489729E+02  0.44742808391E+03  0.47844393266E+03  0.16500000000E+03 0.  0.
   -5000001    1    1    2    0    0 -0.17156878339E+01 -0.38584489729E+02  0.18357910148E+03  0.24983593203E+03  0.16500000000E+03 0.  0.
<mgrwt>
<rscale>  0 0.36362273E+03</rscale>
<asrwt>0</asrwt>
<pdfrwt beam="1">  1        2 0.97091930E-01 0.36362273E+03</pdfrwt>
<pdfrwt beam="2">  1       -2 0.69480487E-02 0.36362273E+03</pdfrwt>
<totfact> 0.56355575E+03</totfact>
</mgrwt>
</event>
<event>
 4    1  0.5387486E-005  0.3728546E+03  0.7818608E-02  0.1053607E+00
         -2   -1    0    0    0  501 -0.00000000000E+00  0.00000000000E+00  0.13513421824E+02  0.13513422065E+02  0.25500000000E-02 0. -1.
          2   -1    0    0  501    0  0.00000000000E+00 -0.00000000000E+00 -0.25718975305E+04  0.25718975305E+04  0.25500000000E-02 0.  1.
    5000001    1    1    2    0    0  0.21440050827E+02 -0.83381973942E+02 -0.13544860255E+04  0.13672123546E+04  0.16500000000E+03 0.  0.
   -5000001    1    1    2    0    0 -0.21440050827E+02  0.83381973942E+02 -0.12038980832E+04  0.12181985980E+04  0.16500000000E+03 0.  0.
<mgrwt>
<rscale>  0 0.37285459E+03</rscale>
<asrwt>0</asrwt>
<pdfrwt beam="1">  1        2 0.36741362E+00 0.37285459E+03</pdfrwt>
<pdfrwt beam="2">  1       -2 0.19304905E-02 0.37285459E+03</pdfrwt>
<totfact> 0.37419792E+03</totfact>
</mgrwt>
</event>
<event>
 4    1  0.5387486E-005  0.5248820E+03  0.7818608E-02  0.1007481E+00
          2   -1    0    0  501    0  0.00000000000E+00  0.00000000000E+00  0.12857382012E+04  0.12857382012E+04  0.25500000000E-02 0.  1.
         -2   -1    0    0    0  501 -0.00000000000E+00 -0.00000000000E+00 -0.53568660327E+02  0.53568660388E+02  0.25500000000E-02 0. -1.
    5000001    1    1    2    0    0  0.17810522532E+03 -0.44190515943E+02  0.38820225489E+03  0.46000028661E+03  0.16500000000E+03 0.  0.
   -5000001    1    1    2    0    0 -0.17810522532E+03  0.44190515943E+02  0.84396728597E+03  0.87930657496E+03  0.16500000000E+03 0.  0.
<mgrwt>
<rscale>  0 0.52488198E+03</rscale>
<asrwt>0</asrwt>
<pdfrwt beam="1">  1        2 0.18367691E+00 0.52488198E+03</pdfrwt>
<pdfrwt beam="2">  1       -2 0.76526647E-02 0.52488198E+03</pdfrwt>
<totfact> 0.20377104E+03</totfact>
</mgrwt>
</event>
<event>
 4    1  0.5387486E-005  0.3939062E+03  0.7818608E-02  0.1045910E+00
          2   -1    0    0  501    0  0.00000000000E+00  0.00000000000E+00  0.15520216361E+04  0.15520216361E+04  0.25500000000E-02 0.  1.
         -2   -1    0    0    0  501 -0.00000000000E+00 -0.00000000000E+00 -0.24993540565E+02  0.24993540696E+02  0.25500000000E-02 0. -1.
    5000001    1    1    2    0    0 -0.13359361075E+02  0.10293641616E+03  0.65090608748E+03  0.67946899342E+03  0.16500000000E+03 0.  0.
   -5000001    1    1    2    0    0  0.13359361075E+02 -0.10293641616E+03  0.87612200806E+03  0.89754618338E+03  0.16500000000E+03 0.  0.
<mgrwt>
<rscale>  0 0.39390616E+03</rscale>
<asrwt>0</asrwt>
<pdfrwt beam="1">  1        2 0.22171741E+00 0.39390616E+03</pdfrwt>
<pdfrwt beam="2">  1       -2 0.35705053E-02 0.39390616E+03</pdfrwt>
<totfact> 0.48049217E+03</totfact>
</mgrwt>
</event>
<event>
 4    1  0.5387486E-005  0.4039553E+03  0.7818608E-02  0.1042419E+00
         -2   -1    0    0    0  501 -0.00000000000E+00  0.00000000000E+00  0.10472177894E+03  0.10472177897E+03  0.25500000000E-02 0. -1.
          2   -1    0    0  501    0  0.00000000000E+00 -0.00000000000E+00 -0.38955584599E+03  0.38955584599E+03  0.25500000000E-02 0.  1.
    5000001    1    1    2    0    0 -0.85999074145E+02 -0.73469474307E+02 -0.10832335530E+03  0.22749187615E+03  0.16500000000E+03 0.  0.
   -5000001    1    1    2    0    0  0.85999074145E+02  0.73469474307E+02 -0.17651071175E+03  0.26678574882E+03  0.16500000000E+03 0.  0.
<mgrwt>
<rscale>  0 0.40395535E+03</rscale>
<asrwt>0</asrwt>
<pdfrwt beam="1">  1        2 0.55650834E-01 0.40395535E+03</pdfrwt>
<pdfrwt beam="2">  1       -2 0.14960254E-01 0.40395535E+03</pdfrwt>
<totfact> 0.30871042E+03</totfact>
</mgrwt>
</event>
<event>
 4    1  0.5387486E-005  0.7508224E+03  0.7818608E-02  0.9634061E-01
          2   -1    0    0  501    0  0.00000000000E+00  0.00000000000E+00  0.45016943093E+03  0.45016943094E+03  0.25500000000E-02 0.  1.
         -2   -1    0    0    0  501 -0.00000000000E+00 -0.00000000000E+00 -0.31306781517E+03  0.31306781518E+03  0.25500000000E-02 0. -1.
    5000001    1    1    2    0    0  0.23765866252E+03 -0.22283221451E+03 -0.19909496133E+02  0.36572834691E+03  0.16500000000E+03 0.  0.
   -5000001    1    1    2    0    0 -0.23765866252E+03  0.22283221451E+03  0.15701111189E+03  0.39750889921E+03  0.16500000000E+03 0.  0.
<mgrwt>
<rscale>  0 0.75082238E+03</rscale>
<asrwt>0</asrwt>
<pdfrwt beam="1">  1        2 0.64309919E-01 0.75082238E+03</pdfrwt>
<pdfrwt beam="2">  1       -2 0.44723974E-01 0.75082238E+03</pdfrwt>
<totfact> 0.36128733E+02</totfact>
</mgrwt>
</event>
<event>
 4    1  0.5387486E-005  0.8384440E+03  0.7818608E-02  0.9505980E-01
          2   -1    0    0  501    0  0.00000000000E+00  0.00000000000E+00  0.71080333632E+03  0.71080333632E+03  0.25500000000E-02 0.  1.
         -2   -1    0    0    0  501 -0.00000000000E+00 -0.00000000000E+00 -0.24725137445E+03  0.24725137447E+03  0.25500000000E-02 0. -1.
    5000001    1    1    2    0    0  0.32646605784E+03 -0.67285886165E+02  0.10753258346E+02  0.37208615933E+03  0.16500000000E+03 0.  0.
   -5000001    1    1    2    0    0 -0.32646605784E+03  0.67285886165E+02  0.45279870352E+03  0.58596855146E+03  0.16500000000E+03 0.  0.
<mgrwt>
<rscale>  0 0.83844404E+03</rscale>
<asrwt>0</asrwt>
<pdfrwt beam="1">  1        2 0.10154333E+00 0.83844404E+03</pdfrwt>
<pdfrwt beam="2">  1       -2 0.35321625E-01 0.83844404E+03</pdfrwt>
<totfact> 0.33331931E+02</totfact>
</mgrwt>
</event>
<event>
 4    1  0.5387486E-005  0.3825642E+03  0.7818608E-02  0.1049990E+00
          2   -1    0    0  501    0  0.00000000000E+00  0.00000000000E+00  0.85043184685E+03  0.85043184685E+03  0.25500000000E-02 0.  1.
         -2   -1    0    0    0  501 -0.00000000000E+00 -0.00000000000E+00 -0.43023839055E+02  0.43023839131E+02  0.25500000000E-02 0. -1.
    5000001    1    1    2    0    0 -0.89851407732E+02 -0.35775279419E+02  0.39606570419E+03  0.43982517905E+03  0.16500000000E+03 0.  0.
   -5000001    1    1    2    0    0  0.89851407732E+02  0.35775279419E+02  0.41134230360E+03  0.45363050693E+03  0.16500000000E+03 0.  0.
<mgrwt>
<rscale>  0 0.38256421E+03</rscale>
<asrwt>0</asrwt>
<pdfrwt beam="1">  1        2 0.12149026E+00 0.38256421E+03</pdfrwt>
<pdfrwt beam="2">  1       -2 0.61462629E-02 0.38256421E+03</pdfrwt>
<totfact> 0.51763315E+03</totfact>
</mgrwt>
</event>
<event>
 4    1  0.5387486E-005  0.8035653E+03  0.7818608E-02  0.9554871E-01
          2   -1    0    0  501    0  0.00000000000E+00  0.00000000000E+00  0.16200533265E+03  0.16200533267E+03  0.25500000000E-02 0.  1.
         -2   -1    0    0    0  501 -0.00000000000E+00 -0.00000000000E+00 -0.99644442943E+03  0.99644442943E+03  0.25500000000E-02 0. -1.
    5000001    1    1    2    0    0  0.17065692969E+03 -0.31273416497E+03 -0.29423288191E+03  0.49063676420E+03  0.16500000000E+03 0.  0.
   -5000001    1    1    2    0    0 -0.17065692969E+03  0.31273416497E+03 -0.54020621486E+03  0.66781299790E+03  0.16500000000E+03 0.  0.
<mgrwt>
<rscale>  0 0.80356533E+03</rscale>
<asrwt>0</asrwt>
<pdfrwt beam="1">  1        2 0.23143620E-01 0.80356533E+03</pdfrwt>
<pdfrwt beam="2">  1       -2 0.14234920E+00 0.80356533E+03</pdfrwt>
<totfact> 0.83068030E+01</totfact>
</mgrwt>
</event>
<event>
 4    1  0.5387486E-005  0.6519534E+03  0.7818608E-02  0.9803121E-01
          2   -1    0    0  501    0  0.00000000000E+00  0.00000000000E+00  0.34602864508E+04  0.34602864508E+04  0.25500000000E-02 0.  1.
         -2   -1    0    0    0  501 -0.00000000000E+00 -0.00000000000E+00 -0.30708672738E+02  0.30708672844E+02  0.25500000000E-02 0. -1.
    5000001    1    1    2    0    0 -0.19998885402E+03 -0.62381320743E+02  0.27186835743E+04  0.27317306507E+04  0.16500000000E+03 0.  0.
   -5000001    1    1    2    0    0  0.19998885402E+03  0.62381320743E+02  0.71089420379E+03  0.75926447295E+03  0.16500000000E+03 0.  0.
<mgrwt>
<rscale>  0 0.65195339E+03</rscale>
<asrwt>0</asrwt>
<pdfrwt beam="1">  1        2 0.49432624E+00 0.65195339E+03</pdfrwt>
<pdfrwt beam="2">  1       -2 0.43869567E-02 0.65195339E+03</pdfrwt>
<totfact> 0.34601657E+02</totfact>
</mgrwt>
</event>
<event>
 4    1  0.5387486E-005  0.8073592E+03  0.7818608E-02  0.9549426E-01
          2   -1    0    0  501    0  0.00000000000E+00  0.00000000000E+00  0.71285085993E+03  0.71285085993E+03  0.25500000000E-02 0.  1.
         -2   -1    0    0    0  501 -0.00000000000E+00 -0.00000000000E+00 -0.22859931657E+03  0.22859931658E+03  0.25500000000E-02 0. -1.
    5000001    1    1    2    0    0 -0.24513775666E+03 -0.13083845769E+03  0.52421493545E+03  0.61582263705E+03  0.16500000000E+03 0.  0.
   -5000001    1    1    2    0    0  0.24513775666E+03  0.13083845769E+03 -0.39963392093E+02  0.32562753947E+03  0.16500000000E+03 0.  0.
<mgrwt>
<rscale>  0 0.80735920E+03</rscale>
<asrwt>0</asrwt>
<pdfrwt beam="1">  1        2 0.10183584E+00 0.80735920E+03</pdfrwt>
<pdfrwt beam="2">  1       -2 0.32657045E-01 0.80735920E+03</pdfrwt>
<totfact> 0.38580622E+02</totfact>
</mgrwt>
</event>
<event>
 4    1  0.5387486E-005  0.6611382E+03  0.7818608E-02  0.9786101E-01
          2   -1    0    0  501    0  0.00000000000E+00  0.00000000000E+00  0.81901749026E+03  0.81901749027E+03  0.25500000000E-02 0.  1.
         -2   -1    0    0    0  501 -0.00000000000E+00 -0.00000000000E+00 -0.13342320974E+03  0.13342320976E+03  0.25500000000E-02 0. -1.
    5000001    1    1    2    0    0 -0.22513084758E+03 -0.27990887324E+02  0.59473280170E+03  0.65757090395E+03  0.16500000000E+03 0.  0.
   -5000001    1    1    2    0    0  0.22513084758E+03  0.27990887324E+02  0.90861478828E+02  0.29486979608E+03  0.16500000000E+03 0.  0.
<mgrwt>
<rscale>  0 0.66113824E+03</rscale>
<asrwt>0</asrwt>
<pdfrwt beam="1">  1        2 0.11700250E+00 0.66113824E+03</pdfrwt>
<pdfrwt beam="2">  1       -2 0.19060459E-01 0.66113824E+03</pdfrwt>
<totfact> 0.85863520E+02</totfact>
</mgrwt>
</event>
<event>
 4    1  0.5387486E-005  0.5517478E+03  0.7818608E-02  0.1001090E+00
          2   -1    0    0  501    0  0.00000000000E+00  0.00000000000E+00  0.23976651973E+04  0.23976651973E+04  0.25500000000E-02 0.  1.
         -2   -1    0    0    0  501 -0.00000000000E+00 -0.00000000000E+00 -0.31741884640E+02  0.31741884743E+02  0.25500000000E-02 0. -1.
    5000001    1    1    2    0    0 -0.46825534432E+01  0.21102220744E+03  0.14726687827E+04  0.14968402192E+04  0.16500000000E+03 0.  0.
   -5000001    1    1    2    0    0  0.46825534432E+01 -0.21102220744E+03  0.89325452991E+03  0.93256686278E+03  0.16500000000E+03 0.  0.
<mgrwt>
<rscale>  0 0.55174781E+03</rscale>
<asrwt>0</asrwt>
<pdfrwt beam="1">  1        2 0.34252359E+00 0.55174781E+03</pdfrwt>
<pdfrwt beam="2">  1       -2 0.45345550E-02 0.55174781E+03</pdfrwt>
<totfact> 0.12500113E+03</totfact>
</mgrwt>
</event>
<event>
 4    1  0.5387486E-005  0.3611755E+03  0.7818608E-02  0.1058119E+00
         -2   -1    0    0    0  501 -0.00000000000E+00  0.00000000000E+00  0.55239069313E+02  0.55239069372E+02  0.25500000000E-02 0. -1.
          2   -1    0    0  501    0  0.00000000000E+00 -0.00000000000E+00 -0.59037796127E+03  0.59037796128E+03  0.25500000000E-02 0.  1.
    5000001    1    1    2    0    0  0.66475300549E+02  0.29688537561E+02 -0.25093910865E+03  0.30902396525E+03  0.16500000000E+03 0.  0.
   -5000001    1    1    2    0    0 -0.66475300549E+02 -0.29688537561E+02 -0.28419978330E+03  0.33659306540E+03  0.16500000000E+03 0.  0.
<mgrwt>
<rscale>  0 0.36117547E+03</rscale>
<asrwt>0</asrwt>
<pdfrwt beam="1">  1        2 0.84339705E-01 0.36117547E+03</pdfrwt>
<pdfrwt beam="2">  1       -2 0.78912960E-02 0.36117547E+03</pdfrwt>
<totfact> 0.54427884E+03</totfact>
</mgrwt>
</event>
<event>
 4    1  0.5387486E-005  0.4208793E+03  0.7818608E-02  0.1036781E+00
         -2   -1    0    0    0  501 -0.00000000000E+00  0.00000000000E+00  0.52812173906E+02  0.52812173968E+02  0.25500000000E-02 0. -1.
          2   -1    0    0  501    0  0.00000000000E+00 -0.00000000000E+00 -0.83853485598E+03  0.83853485598E+03  0.25500000000E-02 0.  1.
    5000001    1    1    2    0    0  0.35468134836E+02  0.99792095010E+02 -0.23097061456E+03  0.30296678961E+03  0.16500000000E+03 0.  0.
   -5000001    1    1    2    0    0 -0.35468134836E+02 -0.99792095010E+02 -0.55475206751E+03  0.58838024034E+03  0.16500000000E+03 0.  0.
<mgrwt>
<rscale>  0 0.42087931E+03</rscale>
<asrwt>0</asrwt>
<pdfrwt beam="1">  1        2 0.11979069E+00 0.42087931E+03</pdfrwt>
<pdfrwt beam="2">  1       -2 0.75445968E-02 0.42087931E+03</pdfrwt>
<totfact> 0.38320204E+03</totfact>
</mgrwt>
</event>
<event>
 4    1  0.5387486E-005  0.3974410E+03  0.7818608E-02  0.1044669E+00
          2   -1    0    0  501    0  0.00000000000E+00  0.00000000000E+00  0.18161779073E+04  0.18161779073E+04  0.25500000000E-02 0.  1.
         -2   -1    0    0    0  501 -0.00000000000E+00 -0.00000000000E+00 -0.21743380066E+02  0.21743380215E+02  0.25500000000E-02 0. -1.
    5000001    1    1    2    0    0 -0.10630495812E+03 -0.30805594394E+02  0.91519767476E+03  0.93651562328E+03  0.16500000000E+03 0.  0.
   -5000001    1    1    2    0    0  0.10630495812E+03  0.30805594394E+02  0.87923685248E+03  0.90140566424E+03  0.16500000000E+03 0.  0.
<mgrwt>
<rscale>  0 0.39744105E+03</rscale>
<asrwt>0</asrwt>
<pdfrwt beam="1">  1        2 0.25945415E+00 0.39744105E+03</pdfrwt>
<pdfrwt beam="2">  1       -2 0.31061953E-02 0.39744105E+03</pdfrwt>
<totfact> 0.43698944E+03</totfact>
</mgrwt>
</event>
<event>
 4    1  0.5387486E-005  0.5039856E+03  0.7818608E-02  0.1012744E+00
         -2   -1    0    0    0  501 -0.00000000000E+00  0.00000000000E+00  0.36309061213E+03  0.36309061214E+03  0.25500000000E-02 0. -1.
          2   -1    0    0  501    0  0.00000000000E+00 -0.00000000000E+00 -0.17488851028E+03  0.17488851030E+03  0.25500000000E-02 0.  1.
    5000001    1    1    2    0    0  0.18950404156E+03  0.32482535807E+01  0.11415783450E+03  0.27600605808E+03  0.16500000000E+03 0.  0.
   -5000001    1    1    2    0    0 -0.18950404156E+03 -0.32482535807E+01  0.74044267351E+02  0.26197306435E+03  0.16500000000E+03 0.  0.
<mgrwt>
<rscale>  0 0.50398562E+03</rscale>
<asrwt>0</asrwt>
<pdfrwt beam="1">  1        2 0.24984073E-01 0.50398562E+03</pdfrwt>
<pdfrwt beam="2">  1       -2 0.51870088E-01 0.50398562E+03</pdfrwt>
<totfact> 0.77334726E+02</totfact>
</mgrwt>
</event>
<event>
 4    1  0.5387486E-005  0.4793243E+03  0.7818608E-02  0.1019321E+00
          2   -1    0    0  501    0  0.00000000000E+00  0.00000000000E+00  0.14851047222E+04  0.14851047222E+04  0.25500000000E-02 0. -1.
         -2   -1    0    0    0  501 -0.00000000000E+00 -0.00000000000E+00 -0.38676016643E+02  0.38676016727E+02  0.25500000000E-02 0.  1.
    5000001    1    1    2    0    0  0.14359453906E+03 -0.97339709652E+02  0.75782396765E+03  0.79474308847E+03  0.16500000000E+03 0.  0.
   -5000001    1    1    2    0    0 -0.14359453906E+03  0.97339709652E+02  0.68860473791E+03  0.72903765046E+03  0.16500000000E+03 0.  0.
<mgrwt>
<rscale>  0 0.47932425E+03</rscale>
<asrwt>0</asrwt>
<pdfrwt beam="1">  1        2 0.21215787E+00 0.47932425E+03</pdfrwt>
<pdfrwt beam="2">  1       -2 0.55251438E-02 0.47932425E+03</pdfrwt>
<totfact> 0.26641013E+03</totfact>
</mgrwt>
</event>
<event>
 4    1  0.5387486E-005  0.4834237E+03  0.7818608E-02  0.1018198E+00
          2   -1    0    0  501    0  0.00000000000E+00  0.00000000000E+00  0.25863245041E+03  0.25863245042E+03  0.25500000000E-02 0.  1.
         -2   -1    0    0    0  501 -0.00000000000E+00 -0.00000000000E+00 -0.22589828517E+03  0.22589828519E+03  0.25500000000E-02 0. -1.
    5000001    1    1    2    0    0  0.99741542654E+02  0.13175441245E+03 -0.46161884693E+02  0.23804100514E+03  0.16500000000E+03 0.  0.
   -5000001    1    1    2    0    0 -0.99741542654E+02 -0.13175441245E+03  0.78896049930E+02  0.24648973047E+03  0.16500000000E+03 0.  0.
<mgrwt>
<rscale>  0 0.48342374E+03</rscale>
<asrwt>0</asrwt>
<pdfrwt beam="1">  1        2 0.36947493E-01 0.48342374E+03</pdfrwt>
<pdfrwt beam="2">  1       -2 0.32271184E-01 0.48342374E+03</pdfrwt>
<totfact> 0.12560171E+03</totfact>
</mgrwt>
</event>
<event>
 4    1  0.5387486E-005  0.9285036E+03  0.7818608E-02  0.9390636E-01
          2   -1    0    0  501    0  0.00000000000E+00  0.00000000000E+00  0.22555707461E+04  0.22555707462E+04  0.25500000000E-02 0.  1.
         -2   -1    0    0    0  501 -0.00000000000E+00 -0.00000000000E+00 -0.95554412443E+02  0.95554412477E+02  0.25500000000E-02 0. -1.
    5000001    1    1    2    0    0  0.82100410178E+02 -0.37210218742E+03  0.55429112016E+03  0.69257790978E+03  0.16500000000E+03 0.  0.
   -5000001    1    1    2    0    0 -0.82100410178E+02  0.37210218742E+03  0.16057252135E+04  0.16585472488E+04  0.16500000000E+03 0.  0.
<mgrwt>
<rscale>  0 0.92850361E+03</rscale>
<asrwt>0</asrwt>
<pdfrwt beam="1">  1        2 0.32222439E+00 0.92850361E+03</pdfrwt>
<pdfrwt beam="2">  1       -2 0.13650630E-01 0.92850361E+03</pdfrwt>
<totfact> 0.24592548E+02</totfact>
</mgrwt>
</event>
<event>
 4    1  0.5387486E-005  0.4420232E+03  0.7818608E-02  0.1030128E+00
          2   -1    0    0  501    0  0.00000000000E+00  0.00000000000E+00  0.10641695824E+04  0.10641695824E+04  0.25500000000E-02 0.  1.
         -2   -1    0    0    0  501 -0.00000000000E+00 -0.00000000000E+00 -0.45900692700E+02  0.45900692771E+02  0.25500000000E-02 0. -1.
    5000001    1    1    2    0    0 -0.10492622684E+03 -0.68088379965E+02  0.31500317899E+03  0.37695827798E+03  0.16500000000E+03 0.  0.
   -5000001    1    1    2    0    0  0.10492622684E+03  0.68088379965E+02  0.70326571068E+03  0.73311199716E+03  0.16500000000E+03 0.  0.
<mgrwt>
<rscale>  0 0.44202317E+03</rscale>
<asrwt>0</asrwt>
<pdfrwt beam="1">  1        2 0.15202421E+00 0.44202317E+03</pdfrwt>
<pdfrwt beam="2">  1       -2 0.65572425E-02 0.44202317E+03</pdfrwt>
<totfact> 0.34614149E+03</totfact>
</mgrwt>
</event>
<event>
 4    1  0.5387486E-005  0.6464721E+03  0.7818608E-02  0.9813422E-01
          2   -1    0    0  501    0  0.00000000000E+00  0.00000000000E+00  0.31953899448E+04  0.31953899448E+04  0.25500000000E-02 0.  1.
         -2   -1    0    0    0  501 -0.00000000000E+00 -0.00000000000E+00 -0.32697587318E+02  0.32697587417E+02  0.25500000000E-02 0. -1.
    5000001    1    1    2    0    0  0.22134282942E+03  0.80488461829E+02  0.23183662223E+04  0.23361331258E+04  0.16500000000E+03 0.  0.
   -5000001    1    1    2    0    0 -0.22134282942E+03 -0.80488461829E+02  0.84432613513E+03  0.89195440639E+03  0.16500000000E+03 0.  0.
<mgrwt>
<rscale>  0 0.64647209E+03</rscale>
<asrwt>0</asrwt>
<pdfrwt beam="1">  1        2 0.45648395E+00 0.64647209E+03</pdfrwt>
<pdfrwt beam="2">  1       -2 0.46710873E-02 0.64647209E+03</pdfrwt>
<totfact> 0.44642437E+02</totfact>
</mgrwt>
</event>
<event>
 4    1  0.5387486E-005  0.4475804E+03  0.7818608E-02  0.1028446E+00
          2   -1    0    0  501    0  0.00000000000E+00  0.00000000000E+00  0.62597563677E+03  0.62597563677E+03  0.25500000000E-02 0.  1.
         -2   -1    0    0    0  501 -0.00000000000E+00 -0.00000000000E+00 -0.80006384056E+02  0.80006384096E+02  0.25500000000E-02 0. -1.
    5000001    1    1    2    0    0 -0.81451052928E+02  0.11765461586E+03  0.34993772309E+03  0.41250247599E+03  0.16500000000E+03 0.  0.
   -5000001    1    1    2    0    0  0.81451052928E+02 -0.11765461586E+03  0.19603152962E+03  0.29347954488E+03  0.16500000000E+03 0.  0.
<mgrwt>
<rscale>  0 0.44758037E+03</rscale>
<asrwt>0</asrwt>
<pdfrwt beam="1">  1        2 0.89425085E-01 0.44758037E+03</pdfrwt>
<pdfrwt beam="2">  1       -2 0.11429484E-01 0.44758037E+03</pdfrwt>
<totfact> 0.28221239E+03</totfact>
</mgrwt>
</event>
<event>
 4    1  0.5387486E-005  0.4414769E+03  0.7818608E-02  0.1030295E+00
         -2   -1    0    0    0  501 -0.00000000000E+00  0.00000000000E+00  0.55536238406E+02  0.55536238464E+02  0.25500000000E-02 0. -1.
          2   -1    0    0  501    0  0.00000000000E+00 -0.00000000000E+00 -0.87736357329E+03  0.87736357329E+03  0.25500000000E-02 0.  1.
    5000001    1    1    2    0    0  0.74908365654E+02  0.12092619096E+03 -0.48610280461E+03  0.53268690950E+03  0.16500000000E+03 0.  0.
   -5000001    1    1    2    0    0 -0.74908365654E+02 -0.12092619096E+03 -0.33572453027E+03  0.40021290226E+03  0.16500000000E+03 0.  0.
<mgrwt>
<rscale>  0 0.44147694E+03</rscale>
<asrwt>0</asrwt>
<pdfrwt beam="1">  1        2 0.12533765E+00 0.44147694E+03</pdfrwt>
<pdfrwt beam="2">  1       -2 0.79337489E-02 0.44147694E+03</pdfrwt>
<totfact> 0.33396816E+03</totfact>
</mgrwt>
</event>
<event>
 4    1  0.5387486E-005  0.4917193E+03  0.7818608E-02  0.1015963E+00
         -2   -1    0    0    0  501 -0.00000000000E+00  0.00000000000E+00  0.62668007128E+02  0.62668007180E+02  0.25500000000E-02 0. -1.
          2   -1    0    0  501    0  0.00000000000E+00 -0.00000000000E+00 -0.96455875357E+03  0.96455875358E+03  0.25500000000E-02 0.  1.
    5000001    1    1    2    0    0 -0.67677253772E+02 -0.16465751044E+03 -0.53265019710E+03  0.58534907440E+03  0.16500000000E+03 0.  0.
   -5000001    1    1    2    0    0  0.67677253772E+02  0.16465751044E+03 -0.36924054934E+03  0.44187768636E+03  0.16500000000E+03 0.  0.
<mgrwt>
<rscale>  0 0.49171933E+03</rscale>
<asrwt>0</asrwt>
<pdfrwt beam="1">  1        2 0.13779410E+00 0.49171933E+03</pdfrwt>
<pdfrwt beam="2">  1       -2 0.89525731E-02 0.49171933E+03</pdfrwt>
<totfact> 0.24290547E+03</totfact>
</mgrwt>
</event>
<event>
 4    1  0.5387486E-005  0.4957905E+03  0.7818608E-02  0.1014884E+00
          2   -1    0    0  501    0  0.00000000000E+00  0.00000000000E+00  0.33892512027E+03  0.33892512028E+03  0.25500000000E-02 0.  1.
         -2   -1    0    0    0  501 -0.00000000000E+00 -0.00000000000E+00 -0.18131455388E+03  0.18131455390E+03  0.25500000000E-02 0. -1.
    5000001    1    1    2    0    0  0.52296823229E+02  0.13069558456E+03 -0.47159387497E+02  0.22195788198E+03  0.16500000000E+03 0.  0.
   -5000001    1    1    2    0    0 -0.52296823229E+02 -0.13069558456E+03  0.20476995389E+03  0.29828179220E+03  0.16500000000E+03 0.  0.
<mgrwt>
<rscale>  0 0.49579051E+03</rscale>
<asrwt>0</asrwt>
<pdfrwt beam="1">  1        2 0.48417874E-01 0.49579051E+03</pdfrwt>
<pdfrwt beam="2">  1       -2 0.25902079E-01 0.49579051E+03</pdfrwt>
<totfact> 0.13953750E+03</totfact>
</mgrwt>
</event>
<event>
 4    1  0.5387486E-005  0.4847403E+03  0.7818608E-02  0.1017840E+00
         -2   -1    0    0    0  501 -0.00000000000E+00  0.00000000000E+00  0.20813645787E+04  0.20813645787E+04  0.25500000000E-02 0. -1.
          2   -1    0    0  501    0  0.00000000000E+00 -0.00000000000E+00 -0.28223455648E+02  0.28223455763E+02  0.25500000000E-02 0.  1.
    5000001    1    1    2    0    0 -0.13903197029E+03 -0.97369189329E+02  0.80011395054E+03  0.83439677710E+03  0.16500000000E+03 0.  0.
   -5000001    1    1    2    0    0  0.13903197029E+03  0.97369189329E+02  0.12530271725E+04  0.12751912573E+04  0.16500000000E+03 0.  0.
<mgrwt>
<rscale>  0 0.48474035E+03</rscale>
<asrwt>0</asrwt>
<pdfrwt beam="1">  1        2 0.40319214E-02 0.48474035E+03</pdfrwt>
<pdfrwt beam="2">  1       -2 0.29733786E+00 0.48474035E+03</pdfrwt>
<totfact> 0.77890381E+01</totfact>
</mgrwt>
</event>
<event>
 4    1  0.5387486E-005  0.4312422E+03  0.7818608E-02  0.1033468E+00
          2   -1    0    0  501    0  0.00000000000E+00  0.00000000000E+00  0.78364315780E+02  0.78364315821E+02  0.25500000000E-02 0.  1.
         -2   -1    0    0    0  501 -0.00000000000E+00 -0.00000000000E+00 -0.59328602920E+03  0.59328602921E+03  0.25500000000E-02 0. -1.
    5000001    1    1    2    0    0 -0.20768407376E+01  0.73353008293E+02 -0.44096906235E+03  0.47651200514E+03  0.16500000000E+03 0.  0.
   -5000001    1    1    2    0    0  0.20768407376E+01 -0.73353008293E+02 -0.73952651070E+02  0.19513833989E+03  0.16500000000E+03 0.  0.
<mgrwt>
<rscale>  0 0.43124218E+03</rscale>
<asrwt>0</asrwt>
<pdfrwt beam="1">  1        2 0.11194903E-01 0.43124218E+03</pdfrwt>
<pdfrwt beam="2">  1       -2 0.84755145E-01 0.43124218E+03</pdfrwt>
<totfact> 0.70222784E+02</totfact>
</mgrwt>
</event>
<event>
 4    1  0.5387486E-005  0.3591243E+03  0.7818608E-02  0.1058931E+00
          2   -1    0    0  501    0  0.00000000000E+00  0.00000000000E+00  0.51488211399E+03  0.51488211400E+03  0.25500000000E-02 0.  1.
         -2   -1    0    0    0  501 -0.00000000000E+00 -0.00000000000E+00 -0.62621255100E+02  0.62621255152E+02  0.25500000000E-02 0. -1.
    5000001    1    1    2    0    0 -0.88474083498E+01 -0.68892729919E+02  0.24847529047E+03  0.30625064056E+03  0.16500000000E+03 0.  0.
   -5000001    1    1    2    0    0  0.88474083498E+01  0.68892729919E+02  0.20378556842E+03  0.27125272859E+03  0.16500000000E+03 0.  0.
<mgrwt>
<rscale>  0 0.35912429E+03</rscale>
<asrwt>0</asrwt>
<pdfrwt beam="1">  1        2 0.73554586E-01 0.35912429E+03</pdfrwt>
<pdfrwt beam="2">  1       -2 0.89458938E-02 0.35912429E+03</pdfrwt>
<totfact> 0.52148037E+03</totfact>
</mgrwt>
</event>
<event>
 4    1  0.5387486E-005  0.3967963E+03  0.7818608E-02  0.1044895E+00
         -2   -1    0    0    0  501 -0.00000000000E+00  0.00000000000E+00  0.55078192694E+02  0.55078192753E+02  0.25500000000E-02 0. -1.
          2   -1    0    0  501    0  0.00000000000E+00 -0.00000000000E+00 -0.71465360557E+03  0.71465360558E+03  0.25500000000E-02 0.  1.
    5000001    1    1    2    0    0 -0.58932272998E+01  0.10516318081E+03 -0.26714461199E+03  0.33118766348E+03  0.16500000000E+03 0.  0.
   -5000001    1    1    2    0    0  0.58932272998E+01 -0.10516318081E+03 -0.39243080089E+03  0.43854413485E+03  0.16500000000E+03 0.  0.
<mgrwt>
<rscale>  0 0.39679632E+03</rscale>
<asrwt>0</asrwt>
<pdfrwt beam="1">  1        2 0.10209337E+00 0.39679632E+03</pdfrwt>
<pdfrwt beam="2">  1       -2 0.78683137E-02 0.39679632E+03</pdfrwt>
<totfact> 0.43732127E+03</totfact>
</mgrwt>
</event>
<event>
 4    1  0.5387486E-005  0.5113442E+03  0.7818608E-02  0.1010860E+00
         -2   -1    0    0    0  501 -0.00000000000E+00  0.00000000000E+00  0.10272168075E+03  0.10272168078E+03  0.25500000000E-02 0. -1.
          2   -1    0    0  501    0  0.00000000000E+00 -0.00000000000E+00 -0.63636256801E+03  0.63636256801E+03  0.25500000000E-02 0.  1.
    5000001    1    1    2    0    0 -0.14192553800E+03 -0.12510215123E+03 -0.33688500881E+03  0.42013083170E+03  0.16500000000E+03 0.  0.
   -5000001    1    1    2    0    0  0.14192553800E+03  0.12510215123E+03 -0.19675587844E+03  0.31895341710E+03  0.16500000000E+03 0.  0.
<mgrwt>
<rscale>  0 0.51134424E+03</rscale>
<asrwt>0</asrwt>
<pdfrwt beam="1">  1        2 0.90908936E-01 0.51134424E+03</pdfrwt>
<pdfrwt beam="2">  1       -2 0.14674526E-01 0.51134424E+03</pdfrwt>
<totfact> 0.18339874E+03</totfact>
</mgrwt>
</event>
<event>
 4    1  0.5387486E-005  0.4995502E+03  0.7818608E-02  0.1013896E+00
         -2   -1    0    0    0  501 -0.00000000000E+00  0.00000000000E+00  0.11781835501E+03  0.11781835504E+03  0.25500000000E-02 0. -1.
          2   -1    0    0  501    0  0.00000000000E+00 -0.00000000000E+00 -0.52952364786E+03  0.52952364787E+03  0.25500000000E-02 0.  1.
    5000001    1    1    2    0    0 -0.17687686604E+03  0.21252042365E+01 -0.12521098214E+03  0.27238342879E+03  0.16500000000E+03 0.  0.
   -5000001    1    1    2    0    0  0.17687686604E+03 -0.21252042365E+01 -0.28649431071E+03  0.37495857411E+03  0.16500000000E+03 0.  0.
<mgrwt>
<rscale>  0 0.49955022E+03</rscale>
<asrwt>0</asrwt>
<pdfrwt beam="1">  1        2 0.75646234E-01 0.49955022E+03</pdfrwt>
<pdfrwt beam="2">  1       -2 0.16831194E-01 0.49955022E+03</pdfrwt>
<totfact> 0.18020595E+03</totfact>
</mgrwt>
</event>
<event>
 4    1  0.5387486E-005  0.6451720E+03  0.7818608E-02  0.9815881E-01
         -2   -1    0    0    0  501 -0.00000000000E+00  0.00000000000E+00  0.39623778702E+03  0.39623778703E+03  0.25500000000E-02 0. -1.
          2   -1    0    0  501    0  0.00000000000E+00 -0.00000000000E+00 -0.26262447272E+03  0.26262447273E+03  0.25500000000E-02 0.  1.
    5000001    1    1    2    0    0  0.14260338643E+03  0.18357152474E+03 -0.87402589607E+02  0.29815841961E+03  0.16500000000E+03 0.  0.
   -5000001    1    1    2    0    0 -0.14260338643E+03 -0.18357152474E+03  0.22101590390E+03  0.36070384015E+03  0.16500000000E+03 0.  0.
<mgrwt>
<rscale>  0 0.64517204E+03</rscale>
<asrwt>0</asrwt>
<pdfrwt beam="1">  1        2 0.37517782E-01 0.64517204E+03</pdfrwt>
<pdfrwt beam="2">  1       -2 0.56605398E-01 0.64517204E+03</pdfrwt>
<totfact> 0.40864414E+02</totfact>
</mgrwt>
</event>
<event>
 4    1  0.5387486E-005  0.3838096E+03  0.7818608E-02  0.1049535E+00
          2   -1    0    0  501    0  0.00000000000E+00  0.00000000000E+00  0.10297136446E+04  0.10297136446E+04  0.25500000000E-02 0.  1.
         -2   -1    0    0    0  501 -0.00000000000E+00 -0.00000000000E+00 -0.35764745215E+02  0.35764745306E+02  0.25500000000E-02 0. -1.
    5000001    1    1    2    0    0 -0.62382979149E+02  0.73559231818E+02  0.44890374075E+03  0.48789564984E+03  0.16500000000E+03 0.  0.
   -5000001    1    1    2    0    0  0.62382979149E+02 -0.73559231818E+02  0.54504515862E+03  0.57758274005E+03  0.16500000000E+03 0.  0.
<mgrwt>
<rscale>  0 0.38380957E+03</rscale>
<asrwt>0</asrwt>
<pdfrwt beam="1">  1        2 0.14710193E+00 0.38380957E+03</pdfrwt>
<pdfrwt beam="2">  1       -2 0.51092500E-02 0.38380957E+03</pdfrwt>
<totfact> 0.53291474E+03</totfact>
</mgrwt>
</event>
<event>
 4    1  0.5387486E-005  0.6328257E+03  0.7818608E-02  0.9839550E-01
          2   -1    0    0  501    0  0.00000000000E+00  0.00000000000E+00  0.94482843585E+03  0.94482843585E+03  0.25500000000E-02 0.  1.
         -2   -1    0    0    0  501 -0.00000000000E+00 -0.00000000000E+00 -0.10596326483E+03  0.10596326486E+03  0.25500000000E-02 0. -1.
    5000001    1    1    2    0    0  0.20164438867E+03  0.13076799409E+03  0.62368713365E+03  0.68845578539E+03  0.16500000000E+03 0.  0.
   -5000001    1    1    2    0    0 -0.20164438867E+03 -0.13076799409E+03  0.21517803737E+03  0.36233591532E+03  0.16500000000E+03 0.  0.
<mgrwt>
<rscale>  0 0.63282574E+03</rscale>
<asrwt>0</asrwt>
<pdfrwt beam="1">  1        2 0.13497549E+00 0.63282574E+03</pdfrwt>
<pdfrwt beam="2">  1       -2 0.15137609E-01 0.63282574E+03</pdfrwt>
<totfact> 0.10536388E+03</totfact>
</mgrwt>
</event>
<event>
 4    1  0.5387486E-005  0.5123042E+03  0.7818608E-02  0.1010616E+00
          2   -1    0    0  501    0  0.00000000000E+00  0.00000000000E+00  0.65519364936E+03  0.65519364936E+03  0.25500000000E-02 0.  1.
         -2   -1    0    0    0  501 -0.00000000000E+00 -0.00000000000E+00 -0.10014426565E+03  0.10014426568E+03  0.25500000000E-02 0. -1.
    5000001    1    1    2    0    0  0.17890306315E+03 -0.39317450494E+02  0.17498574945E+03  0.30231966596E+03  0.16500000000E+03 0.  0.
   -5000001    1    1    2    0    0 -0.17890306315E+03  0.39317450494E+02  0.38006363426E+03  0.45301824908E+03  0.16500000000E+03 0.  0.
<mgrwt>
<rscale>  0 0.51230416E+03</rscale>
<asrwt>0</asrwt>
<pdfrwt beam="1">  1        2 0.93599094E-01 0.51230416E+03</pdfrwt>
<pdfrwt beam="2">  1       -2 0.14306324E-01 0.51230416E+03</pdfrwt>
<totfact> 0.18482684E+03</totfact>
</mgrwt>
</event>
<event>
 4    1  0.5387486E-005  0.6940204E+03  0.7818608E-02  0.9727513E-01
          2   -1    0    0  501    0  0.00000000000E+00  0.00000000000E+00  0.21467368964E+04  0.21467368964E+04  0.25500000000E-02 0.  1.
         -2   -1    0    0    0  501 -0.00000000000E+00 -0.00000000000E+00 -0.56092617709E+02  0.56092617767E+02  0.25500000000E-02 0. -1.
    5000001    1    1    2    0    0 -0.13322366626E+03 -0.20977331194E+03  0.16080961589E+04  0.16355279405E+04  0.16500000000E+03 0.  0.
   -5000001    1    1    2    0    0  0.13322366626E+03  0.20977331194E+03  0.48254811979E+03  0.56730157374E+03  0.16500000000E+03 0.  0.
<mgrwt>
<rscale>  0 0.69402044E+03</rscale>
<asrwt>0</asrwt>
<pdfrwt beam="1">  1        2 0.30667669E+00 0.69402044E+03</pdfrwt>
<pdfrwt beam="2">  1       -2 0.80132313E-02 0.69402044E+03</pdfrwt>
<totfact> 0.67920092E+02</totfact>
</mgrwt>
</event>
<event>
 4    1  0.5387486E-005  0.5645021E+03  0.7818608E-02  0.9981919E-01
         -2   -1    0    0    0  501 -0.00000000000E+00  0.00000000000E+00  0.71386122546E+03  0.71386122546E+03  0.25500000000E-02 0. -1.
          2   -1    0    0  501    0  0.00000000000E+00 -0.00000000000E+00 -0.11159823585E+03  0.11159823588E+03  0.25500000000E-02 0.  1.
    5000001    1    1    2    0    0 -0.33414663700E+02 -0.20306259615E+03  0.15424927505E+03  0.30556308114E+03  0.16500000000E+03 0.  0.
   -5000001    1    1    2    0    0  0.33414663700E+02  0.20306259615E+03  0.44801371456E+03  0.51989638019E+03  0.16500000000E+03 0.  0.
<mgrwt>
<rscale>  0 0.56450209E+03</rscale>
<asrwt>0</asrwt>
<pdfrwt beam="1">  1        2 0.15942605E-01 0.56450209E+03</pdfrwt>
<pdfrwt beam="2">  1       -2 0.10198018E+00 0.56450209E+03</pdfrwt>
<totfact> 0.29703738E+02</totfact>
</mgrwt>
</event>
<event>
 4    1  0.5387486E-005  0.5055223E+03  0.7818608E-02  0.1012347E+00
          2   -1    0    0  501    0  0.00000000000E+00  0.00000000000E+00  0.74426795854E+03  0.74426795855E+03  0.25500000000E-02 0.  1.
         -2   -1    0    0    0  501 -0.00000000000E+00 -0.00000000000E+00 -0.85840309286E+02  0.85840309324E+02  0.25500000000E-02 0. -1.
    5000001    1    1    2    0    0  0.14505427066E+03 -0.98635211903E+02  0.20315224092E+03  0.31506424655E+03  0.16500000000E+03 0.  0.
   -5000001    1    1    2    0    0 -0.14505427066E+03  0.98635211903E+02  0.45527540834E+03  0.51504402132E+03  0.16500000000E+03 0.  0.
<mgrwt>
<rscale>  0 0.50552227E+03</rscale>
<asrwt>0</asrwt>
<pdfrwt beam="1">  1        2 0.10632399E+00 0.50552227E+03</pdfrwt>
<pdfrwt beam="2">  1       -2 0.12262902E-01 0.50552227E+03</pdfrwt>
<totfact> 0.20430311E+03</totfact>
</mgrwt>
</event>
<event>
 4    1  0.5387486E-005  0.4081528E+03  0.7818608E-02  0.1040993E+00
         -2   -1    0    0    0  501 -0.00000000000E+00  0.00000000000E+00  0.28126600609E+02  0.28126600725E+02  0.25500000000E-02 0. -1.
          2   -1    0    0  501    0  0.00000000000E+00 -0.00000000000E+00 -0.14807038897E+04  0.14807038897E+04  0.25500000000E-02 0.  1.
    5000001    1    1    2    0    0  0.50528484054E+02  0.10243101292E+03 -0.58911421364E+03  0.62235504081E+03  0.16500000000E+03 0.  0.
   -5000001    1    1    2    0    0 -0.50528484054E+02 -0.10243101292E+03 -0.86346307548E+03  0.88647544964E+03  0.16500000000E+03 0.  0.
<mgrwt>
<rscale>  0 0.40815275E+03</rscale>
<asrwt>0</asrwt>
<pdfrwt beam="1">  1        2 0.21152908E+00 0.40815275E+03</pdfrwt>
<pdfrwt beam="2">  1       -2 0.40180868E-02 0.40815275E+03</pdfrwt>
<totfact> 0.43694082E+03</totfact>
</mgrwt>
</event>
<event>
 4    1  0.5387486E-005  0.8750559E+03  0.7818608E-02  0.9457311E-01
         -2   -1    0    0    0  501 -0.00000000000E+00  0.00000000000E+00  0.65275366893E+03  0.65275366893E+03  0.25500000000E-02 0. -1.
          2   -1    0    0  501    0  0.00000000000E+00 -0.00000000000E+00 -0.29326638338E+03  0.29326638340E+03  0.25500000000E-02 0.  1.
    5000001    1    1    2    0    0  0.17910154793E+03 -0.25156920146E+03 -0.10391042286E+03  0.36522158147E+03  0.16500000000E+03 0.  0.
   -5000001    1    1    2    0    0 -0.17910154793E+03  0.25156920146E+03  0.46339770840E+03  0.58079847085E+03  0.16500000000E+03 0.  0.
<mgrwt>
<rscale>  0 0.87505590E+03</rscale>
<asrwt>0</asrwt>
<pdfrwt beam="1">  1        2 0.41895199E-01 0.87505590E+03</pdfrwt>
<pdfrwt beam="2">  1       -2 0.93250522E-01 0.87505590E+03</pdfrwt>
<totfact> 0.11961078E+02</totfact>
</mgrwt>
</event>
<event>
 4    1  0.5387486E-005  0.3498210E+03  0.7818608E-02  0.1062689E+00
         -2   -1    0    0    0  501 -0.00000000000E+00  0.00000000000E+00  0.30729890530E+02  0.30729890636E+02  0.25500000000E-02 0. -1.
          2   -1    0    0  501    0  0.00000000000E+00 -0.00000000000E+00 -0.99556736273E+03  0.99556736274E+03  0.25500000000E-02 0.  1.
    5000001    1    1    2    0    0 -0.42830820023E+02 -0.37513418888E+01 -0.36803430772E+03  0.40561410647E+03  0.16500000000E+03 0.  0.
   -5000001    1    1    2    0    0  0.42830820023E+02  0.37513418888E+01 -0.59680316448E+03  0.62068314690E+03  0.16500000000E+03 0.  0.
<mgrwt>
<rscale>  0 0.34982096E+03</rscale>
<asrwt>0</asrwt>
<pdfrwt beam="1">  1        2 0.14222389E+00 0.34982096E+03</pdfrwt>
<pdfrwt beam="2">  1       -2 0.43899850E-02 0.34982096E+03</pdfrwt>
<totfact> 0.70291294E+03</totfact>
</mgrwt>
</event>
<event>
 4    1  0.5387486E-005  0.4190664E+03  0.7818608E-02  0.1037371E+00
          2   -1    0    0  501    0  0.00000000000E+00  0.00000000000E+00  0.24414440951E+03  0.24414440952E+03  0.25500000000E-02 0.  1.
         -2   -1    0    0    0  501 -0.00000000000E+00 -0.00000000000E+00 -0.17982867216E+03  0.17982867218E+03  0.25500000000E-02 0. -1.
    5000001    1    1    2    0    0 -0.10780112236E+03  0.55978876468E+02  0.76540041662E+02  0.21871921400E+03  0.16500000000E+03 0.  0.
   -5000001    1    1    2    0    0  0.10780112236E+03 -0.55978876468E+02 -0.12224304318E+02  0.20525386771E+03  0.16500000000E+03 0.  0.
<mgrwt>
<rscale>  0 0.41906641E+03</rscale>
<asrwt>0</asrwt>
<pdfrwt beam="1">  1        2 0.34877773E-01 0.41906641E+03</pdfrwt>
<pdfrwt beam="2">  1       -2 0.25689810E-01 0.41906641E+03</pdfrwt>
<totfact> 0.20267460E+03</totfact>
</mgrwt>
</event>
<event>
 4    1  0.5387486E-005  0.6643145E+03  0.7818608E-02  0.9780284E-01
         -2   -1    0    0    0  501 -0.00000000000E+00  0.00000000000E+00  0.61642649841E+02  0.61642649894E+02  0.25500000000E-02 0. -1.
          2   -1    0    0  501    0  0.00000000000E+00 -0.00000000000E+00 -0.17898068708E+04  0.17898068708E+04  0.25500000000E-02 0.  1.
    5000001    1    1    2    0    0 -0.22426783506E+03  0.17951456032E+03 -0.79685228657E+03  0.86297167150E+03  0.16500000000E+03 0.  0.
   -5000001    1    1    2    0    0  0.22426783506E+03 -0.17951456032E+03 -0.93131193441E+03  0.98847784922E+03  0.16500000000E+03 0.  0.
<mgrwt>
<rscale>  0 0.66431450E+03</rscale>
<asrwt>0</asrwt>
<pdfrwt beam="1">  1        2 0.25568666E+00 0.66431450E+03</pdfrwt>
<pdfrwt beam="2">  1       -2 0.88060940E-02 0.66431450E+03</pdfrwt>
<totfact> 0.88575907E+02</totfact>
</mgrwt>
</event>
<event>
 4    1  0.5387486E-005  0.4411178E+03  0.7818608E-02  0.1030404E+00
          2   -1    0    0  501    0  0.00000000000E+00  0.00000000000E+00  0.29815360286E+03  0.29815360287E+03  0.25500000000E-02 0.  1.
         -2   -1    0    0    0  501 -0.00000000000E+00 -0.00000000000E+00 -0.16315824992E+03  0.16315824994E+03  0.25500000000E-02 0. -1.
    5000001    1    1    2    0    0 -0.45339841845E+02  0.13525944041E+03  0.10171244774E+03  0.24066831845E+03  0.16500000000E+03 0.  0.
   -5000001    1    1    2    0    0  0.45339841845E+02 -0.13525944041E+03  0.33282905198E+02  0.22064353436E+03  0.16500000000E+03 0.  0.
<mgrwt>
<rscale>  0 0.44111776E+03</rscale>
<asrwt>0</asrwt>
<pdfrwt beam="1">  1        2 0.42593372E-01 0.44111776E+03</pdfrwt>
<pdfrwt beam="2">  1       -2 0.23308321E-01 0.44111776E+03</pdfrwt>
<totfact> 0.19361192E+03</totfact>
</mgrwt>
</event>
<event>
 4    1  0.5387486E-005  0.3853610E+03  0.7818608E-02  0.1048970E+00
          2   -1    0    0  501    0  0.00000000000E+00  0.00000000000E+00  0.60977575591E+03  0.60977575591E+03  0.25500000000E-02 0.  1.
         -2   -1    0    0    0  501 -0.00000000000E+00 -0.00000000000E+00 -0.60884308868E+02  0.60884308922E+02  0.25500000000E-02 0. -1.
    5000001    1    1    2    0    0 -0.85685538531E+02 -0.21539409692E+02  0.35409976422E+03  0.40052166072E+03  0.16500000000E+03 0.  0.
   -5000001    1    1    2    0    0  0.85685538531E+02  0.21539409692E+02  0.19479168282E+03  0.27013840412E+03  0.16500000000E+03 0.  0.
<mgrwt>
<rscale>  0 0.38536100E+03</rscale>
<asrwt>0</asrwt>
<pdfrwt beam="1">  1        2 0.87110819E-01 0.38536100E+03</pdfrwt>
<pdfrwt beam="2">  1       -2 0.86977587E-02 0.38536100E+03</pdfrwt>
<totfact> 0.45027351E+03</totfact>
</mgrwt>
</event>
<event>
 4    1  0.5387486E-005  0.6317538E+03  0.7818608E-02  0.9841632E-01
         -2   -1    0    0    0  501 -0.00000000000E+00  0.00000000000E+00  0.21615009646E+03  0.21615009647E+03  0.25500000000E-02 0. -1.
          2   -1    0    0  501    0  0.00000000000E+00 -0.00000000000E+00 -0.46161536809E+03  0.46161536810E+03  0.25500000000E-02 0.  1.
    5000001    1    1    2    0    0 -0.24751024912E+03  0.71765852271E+02 -0.20680832311E+03  0.36933229412E+03  0.16500000000E+03 0.  0.
   -5000001    1    1    2    0    0  0.24751024912E+03 -0.71765852271E+02 -0.38656948528E+02  0.30843317046E+03  0.16500000000E+03 0.  0.
<mgrwt>
<rscale>  0 0.63175377E+03</rscale>
<asrwt>0</asrwt>
<pdfrwt beam="1">  1        2 0.65945052E-01 0.63175377E+03</pdfrwt>
<pdfrwt beam="2">  1       -2 0.30878585E-01 0.63175377E+03</pdfrwt>
<totfact> 0.71759493E+02</totfact>
</mgrwt>
</event>
<event>
 4    1  0.5387486E-005  0.4734703E+03  0.7818608E-02  0.1020945E+00
         -2   -1    0    0    0  501 -0.00000000000E+00  0.00000000000E+00  0.64775530607E+02  0.64775530657E+02  0.25500000000E-02 0. -1.
          2   -1    0    0  501    0  0.00000000000E+00 -0.00000000000E+00 -0.86519611449E+03  0.86519611449E+03  0.25500000000E-02 0.  1.
    5000001    1    1    2    0    0 -0.15470925200E+03 -0.54286379219E+01 -0.26336433947E+03  0.34720339582E+03  0.16500000000E+03 0.  0.
   -5000001    1    1    2    0    0  0.15470925200E+03  0.54286379219E+01 -0.53705624441E+03  0.58276824933E+03  0.16500000000E+03 0.  0.
<mgrwt>
<rscale>  0 0.47347033E+03</rscale>
<asrwt>0</asrwt>
<pdfrwt beam="1">  1        2 0.12359944E+00 0.47347033E+03</pdfrwt>
<pdfrwt beam="2">  1       -2 0.92536477E-02 0.47347033E+03</pdfrwt>
<totfact> 0.26635619E+03</totfact>
</mgrwt>
</event>
<event>
 4    1  0.5387486E-005  0.6116985E+03  0.7818608E-02  0.9881428E-01
          2   -1    0    0  501    0  0.00000000000E+00  0.00000000000E+00  0.14078244341E+04  0.14078244341E+04  0.25500000000E-02 0.  1.
         -2   -1    0    0    0  501 -0.00000000000E+00 -0.00000000000E+00 -0.66445609028E+02  0.66445609077E+02  0.25500000000E-02 0. -1.
    5000001    1    1    2    0    0  0.94681891497E+02 -0.14911062603E+03  0.11223556236E+04  0.11480878822E+04  0.16500000000E+03 0.  0.
   -5000001    1    1    2    0    0 -0.94681891497E+02  0.14911062603E+03  0.21902320147E+03  0.32618216100E+03  0.16500000000E+03 0.  0.
<mgrwt>
<rscale>  0 0.61169846E+03</rscale>
<asrwt>0</asrwt>
<pdfrwt beam="1">  1        2 0.20111778E+00 0.61169846E+03</pdfrwt>
<pdfrwt beam="2">  1       -2 0.94922298E-02 0.61169846E+03</pdfrwt>
<totfact> 0.12388890E+03</totfact>
</mgrwt>
</event>
<event>
 4    1  0.5387486E-005  0.4207315E+03  0.7818608E-02  0.1036828E+00
          2   -1    0    0  501    0  0.00000000000E+00  0.00000000000E+00  0.12644595355E+03  0.12644595358E+03  0.25500000000E-02 0.  1.
         -2   -1    0    0    0  501 -0.00000000000E+00 -0.00000000000E+00 -0.34998154591E+03  0.34998154592E+03  0.25500000000E-02 0. -1.
    5000001    1    1    2    0    0  0.11997959214E+03 -0.41947712139E+02 -0.14524558375E+03  0.25392123323E+03  0.16500000000E+03 0.  0.
   -5000001    1    1    2    0    0 -0.11997959214E+03  0.41947712139E+02 -0.78290008604E+02  0.22250626627E+03  0.16500000000E+03 0.  0.
<mgrwt>
<rscale>  0 0.42073151E+03</rscale>
<asrwt>0</asrwt>
<pdfrwt beam="1">  1        2 0.18063708E-01 0.42073151E+03</pdfrwt>
<pdfrwt beam="2">  1       -2 0.49997363E-01 0.42073151E+03</pdfrwt>
<totfact> 0.12110387E+03</totfact>
</mgrwt>
</event>
<event>
 4    1  0.5387486E-005  0.4317957E+03  0.7818608E-02  0.1033294E+00
          2   -1    0    0  501    0  0.00000000000E+00  0.00000000000E+00  0.48596685131E+03  0.48596685132E+03  0.25500000000E-02 0.  1.
         -2   -1    0    0    0  501 -0.00000000000E+00 -0.00000000000E+00 -0.95915758028E+02  0.95915758062E+02  0.25500000000E-02 0. -1.
    5000001    1    1    2    0    0 -0.17152747526E+02  0.70441390778E+02  0.35521668773E+03  0.39832160564E+03  0.16500000000E+03 0.  0.
   -5000001    1    1    2    0    0  0.17152747526E+02 -0.70441390778E+02  0.34834405557E+02  0.18356100374E+03  0.16500000000E+03 0.  0.
<mgrwt>
<rscale>  0 0.43179569E+03</rscale>
<asrwt>0</asrwt>
<pdfrwt beam="1">  1        2 0.69423836E-01 0.43179569E+03</pdfrwt>
<pdfrwt beam="2">  1       -2 0.13702251E-01 0.43179569E+03</pdfrwt>
<totfact> 0.27996242E+03</totfact>
</mgrwt>
</event>
<event>
 4    1  0.5387486E-005  0.6124125E+03  0.7818608E-02  0.9879983E-01
         -2   -1    0    0    0  501 -0.00000000000E+00  0.00000000000E+00  0.27644293012E+02  0.27644293130E+02  0.25500000000E-02 0. -1.
          2   -1    0    0  501    0  0.00000000000E+00 -0.00000000000E+00 -0.33917408049E+04  0.33917408049E+04  0.25500000000E-02 0.  1.
    5000001    1    1    2    0    0 -0.24650307522E+03  0.62162831497E+02 -0.19260204043E+04  0.19497198726E+04  0.16500000000E+03 0.  0.
   -5000001    1    1    2    0    0  0.24650307522E+03 -0.62162831497E+02 -0.14380761076E+04  0.14696652255E+04  0.16500000000E+03 0.  0.
<mgrwt>
<rscale>  0 0.61241253E+03</rscale>
<asrwt>0</asrwt>
<pdfrwt beam="1">  1        2 0.48453413E+00 0.61241253E+03</pdfrwt>
<pdfrwt beam="2">  1       -2 0.39491869E-02 0.61241253E+03</pdfrwt>
<totfact> 0.44826687E+02</totfact>
</mgrwt>
</event>
<event>
 4    1  0.5387486E-005  0.4595433E+03  0.7818608E-02  0.1024914E+00
          2   -1    0    0  501    0  0.00000000000E+00  0.00000000000E+00  0.34868750522E+03  0.34868750523E+03  0.25500000000E-02 0.  1.
         -2   -1    0    0    0  501 -0.00000000000E+00 -0.00000000000E+00 -0.15141068161E+03  0.15141068164E+03  0.25500000000E-02 0. -1.
    5000001    1    1    2    0    0 -0.15374035439E+03  0.43502955353E+02  0.10564129682E+03  0.25281156478E+03  0.16500000000E+03 0.  0.
   -5000001    1    1    2    0    0  0.15374035439E+03 -0.43502955353E+02  0.91635526791E+02  0.24728662209E+03  0.16500000000E+03 0.  0.
<mgrwt>
<rscale>  0 0.45954331E+03</rscale>
<asrwt>0</asrwt>
<pdfrwt beam="1">  1        2 0.49812500E-01 0.45954331E+03</pdfrwt>
<pdfrwt beam="2">  1       -2 0.21630098E-01 0.45954331E+03</pdfrwt>
<totfact> 0.18609569E+03</totfact>
</mgrwt>
</event>
<event>
 4    1  0.5387486E-005  0.4606117E+03  0.7818608E-02  0.1024604E+00
         -2   -1    0    0    0  501 -0.00000000000E+00  0.00000000000E+00  0.51064941031E+02  0.51064941095E+02  0.25500000000E-02 0. -1.
          2   -1    0    0  501    0  0.00000000000E+00 -0.00000000000E+00 -0.10386929039E+04  0.10386929039E+04  0.25500000000E-02 0.  1.
    5000001    1    1    2    0    0  0.13062566267E+03 -0.92256696404E+02 -0.53057527248E+03  0.57819502034E+03  0.16500000000E+03 0.  0.
   -5000001    1    1    2    0    0 -0.13062566267E+03  0.92256696404E+02 -0.45705269037E+03  0.51156282464E+03  0.16500000000E+03 0.  0.
<mgrwt>
<rscale>  0 0.46061173E+03</rscale>
<asrwt>0</asrwt>
<pdfrwt beam="1">  1        2 0.14838469E+00 0.46061173E+03</pdfrwt>
<pdfrwt beam="2">  1       -2 0.72949923E-02 0.46061173E+03</pdfrwt>
<totfact> 0.30317107E+03</totfact>
</mgrwt>
</event>
<event>
 4    1  0.5387486E-005  0.8678630E+03  0.7818608E-02  0.9466671E-01
         -2   -1    0    0    0  501 -0.00000000000E+00  0.00000000000E+00  0.72334830285E+03  0.72334830285E+03  0.25500000000E-02 0. -1.
          2   -1    0    0  501    0  0.00000000000E+00 -0.00000000000E+00 -0.26031242612E+03  0.26031242613E+03  0.25500000000E-02 0.  1.
    5000001    1    1    2    0    0  0.31836426797E+03 -0.23371043926E+03  0.15061324587E+03  0.45374632381E+03  0.16500000000E+03 0.  0.
   -5000001    1    1    2    0    0 -0.31836426797E+03  0.23371043926E+03  0.31242263085E+03  0.52991440517E+03  0.16500000000E+03 0.  0.
<mgrwt>
<rscale>  0 0.86786301E+03</rscale>
<asrwt>0</asrwt>
<pdfrwt beam="1">  1        2 0.37187489E-01 0.86786301E+03</pdfrwt>
<pdfrwt beam="2">  1       -2 0.10333547E+00 0.86786301E+03</pdfrwt>
<totfact> 0.10724664E+02</totfact>
</mgrwt>
</event>
<event>
 4    1  0.5387486E-005  0.5125072E+03  0.7818608E-02  0.1010565E+00
         -2   -1    0    0    0  501 -0.00000000000E+00  0.00000000000E+00  0.11174124352E+03  0.11174124355E+03  0.25500000000E-02 0. -1.
          2   -1    0    0  501    0  0.00000000000E+00 -0.00000000000E+00 -0.58766043364E+03  0.58766043364E+03  0.25500000000E-02 0.  1.
    5000001    1    1    2    0    0 -0.11405050746E+03  0.15945788029E+03 -0.24145852215E+03  0.35208174016E+03  0.16500000000E+03 0.  0.
   -5000001    1    1    2    0    0  0.11405050746E+03 -0.15945788029E+03 -0.23446066797E+03  0.34731993704E+03  0.16500000000E+03 0.  0.
<mgrwt>
<rscale>  0 0.51250720E+03</rscale>
<asrwt>0</asrwt>
<pdfrwt beam="1">  1        2 0.83951489E-01 0.51250720E+03</pdfrwt>
<pdfrwt beam="2">  1       -2 0.15963035E-01 0.51250720E+03</pdfrwt>
<totfact> 0.17481751E+03</totfact>
</mgrwt>
</event>
<event>
 4    1  0.5387486E-005  0.5257035E+03  0.7818608E-02  0.1007279E+00
         -2   -1    0    0    0  501 -0.00000000000E+00  0.00000000000E+00  0.22639971340E+03  0.22639971341E+03  0.25500000000E-02 0. -1.
          2   -1    0    0  501    0  0.00000000000E+00 -0.00000000000E+00 -0.30517287620E+03  0.30517287622E+03  0.25500000000E-02 0.  1.
    5000001    1    1    2    0    0  0.19831293284E+03 -0.75686230826E+01  0.10976585932E+02  0.25832303193E+03  0.16500000000E+03 0.  0.
   -5000001    1    1    2    0    0 -0.19831293284E+03  0.75686230826E+01 -0.89749748737E+02  0.27324955770E+03  0.16500000000E+03 0.  0.
<mgrwt>
<rscale>  0 0.52570354E+03</rscale>
<asrwt>0</asrwt>
<pdfrwt beam="1">  1        2 0.43596125E-01 0.52570354E+03</pdfrwt>
<pdfrwt beam="2">  1       -2 0.32342816E-01 0.52570354E+03</pdfrwt>
<totfact> 0.10427458E+03</totfact>
</mgrwt>
</event>
<event>
 4    1  0.5387486E-005  0.4387471E+03  0.7818608E-02  0.1031132E+00
         -2   -1    0    0    0  501 -0.00000000000E+00  0.00000000000E+00  0.15778626156E+02  0.15778626362E+02  0.25500000000E-02 0. -1.
          2   -1    0    0  501    0  0.00000000000E+00 -0.00000000000E+00 -0.30499963663E+04  0.30499963663E+04  0.25500000000E-02 0.  1.
    5000001    1    1    2    0    0 -0.33665035666E+02  0.12832905114E+03 -0.19183968422E+04  0.19300448503E+04  0.16500000000E+03 0.  0.
   -5000001    1    1    2    0    0  0.33665035666E+02 -0.12832905114E+03 -0.11158208979E+04  0.11357301423E+04  0.16500000000E+03 0.  0.
<mgrwt>
<rscale>  0 0.43874709E+03</rscale>
<asrwt>0</asrwt>
<pdfrwt beam="1">  1        2 0.43571339E+00 0.43874709E+03</pdfrwt>
<pdfrwt beam="2">  1       -2 0.22540914E-02 0.43874709E+03</pdfrwt>
<totfact> 0.16607203E+03</totfact>
</mgrwt>
</event>
<event>
 4    1  0.5387486E-005  0.3626439E+03  0.7818608E-02  0.1057542E+00
          2   -1    0    0  501    0  0.00000000000E+00  0.00000000000E+00  0.26123733855E+04  0.26123733855E+04  0.25500000000E-02 0.  1.
         -2   -1    0    0    0  501 -0.00000000000E+00 -0.00000000000E+00 -0.12585356034E+02  0.12585356292E+02  0.25500000000E-02 0. -1.
    5000001    1    1    2    0    0 -0.60259569280E+02  0.25215922328E+02  0.15693325085E+04  0.15793342207E+04  0.16500000000E+03 0.  0.
   -5000001    1    1    2    0    0  0.60259569280E+02 -0.25215922328E+02  0.10304555209E+04  0.10456245211E+04  0.16500000000E+03 0.  0.
<mgrwt>
<rscale>  0 0.36264390E+03</rscale>
<asrwt>0</asrwt>
<pdfrwt beam="1">  1        2 0.37319627E+00 0.36264390E+03</pdfrwt>
<pdfrwt beam="2">  1       -2 0.17979077E-02 0.36264390E+03</pdfrwt>
<totfact> 0.39671412E+03</totfact>
</mgrwt>
</event>
<event>
 4    1  0.5387486E-005  0.4824197E+03  0.7818608E-02  0.1018472E+00
          2   -1    0    0  501    0  0.00000000000E+00  0.00000000000E+00  0.21056833490E+04  0.21056833490E+04  0.25500000000E-02 0.  1.
         -2   -1    0    0    0  501 -0.00000000000E+00 -0.00000000000E+00 -0.27631028533E+02  0.27631028651E+02  0.25500000000E-02 0. -1.
    5000001    1    1    2    0    0  0.74437707010E+02  0.14641774912E+03  0.13179373077E+04  0.13383433328E+04  0.16500000000E+03 0.  0.
   -5000001    1    1    2    0    0 -0.74437707010E+02 -0.14641774912E+03  0.76011501276E+03  0.79497104482E+03  0.16500000000E+03 0.  0.
<mgrwt>
<rscale>  0 0.48241972E+03</rscale>
<asrwt>0</asrwt>
<pdfrwt beam="1">  1        2 0.30081198E+00 0.48241972E+03</pdfrwt>
<pdfrwt beam="2">  1       -2 0.39472888E-02 0.48241972E+03</pdfrwt>
<totfact> 0.21764874E+03</totfact>
</mgrwt>
</event>
<event>
 4    1  0.5387486E-005  0.5208323E+03  0.7818608E-02  0.1008480E+00
         -2   -1    0    0    0  501 -0.00000000000E+00  0.00000000000E+00  0.96743005242E+02  0.96743005276E+02  0.25500000000E-02 0. -1.
          2   -1    0    0  501    0  0.00000000000E+00 -0.00000000000E+00 -0.70099712151E+03  0.70099712152E+03  0.25500000000E-02 0.  1.
    5000001    1    1    2    0    0 -0.16064383015E+03  0.11257573923E+03 -0.37251416537E+03  0.45218529457E+03  0.16500000000E+03 0.  0.
   -5000001    1    1    2    0    0  0.16064383015E+03 -0.11257573923E+03 -0.23173995090E+03  0.34555483222E+03  0.16500000000E+03 0.  0.
<mgrwt>
<rscale>  0 0.52083229E+03</rscale>
<asrwt>0</asrwt>
<pdfrwt beam="1">  1        2 0.10014244E+00 0.52083229E+03</pdfrwt>
<pdfrwt beam="2">  1       -2 0.13820430E-01 0.52083229E+03</pdfrwt>
<totfact> 0.18045862E+03</totfact>
</mgrwt>
</event>
<event>
 4    1  0.5387486E-005  0.5056463E+03  0.7818608E-02  0.1012316E+00
          2   -1    0    0  501    0  0.00000000000E+00  0.00000000000E+00  0.12667868968E+04  0.12667868968E+04  0.25500000000E-02 0.  1.
         -2   -1    0    0    0  501 -0.00000000000E+00 -0.00000000000E+00 -0.50458006844E+02  0.50458006908E+02  0.25500000000E-02 0. -1.
    5000001    1    1    2    0    0  0.12216056351E+02  0.19068337495E+03  0.57271627624E+03  0.62589001797E+03  0.16500000000E+03 0.  0.
   -5000001    1    1    2    0    0 -0.12216056351E+02 -0.19068337495E+03  0.64361261371E+03  0.69135488574E+03  0.16500000000E+03 0.  0.
<mgrwt>
<rscale>  0 0.50564629E+03</rscale>
<asrwt>0</asrwt>
<pdfrwt beam="1">  1        2 0.18096954E+00 0.50564629E+03</pdfrwt>
<pdfrwt beam="2">  1       -2 0.72082876E-02 0.50564629E+03</pdfrwt>
<totfact> 0.22942974E+03</totfact>
</mgrwt>
</event>
<event>
 4    1  0.5387486E-005  0.4848137E+03  0.7818608E-02  0.1017821E+00
          2   -1    0    0  501    0  0.00000000000E+00  0.00000000000E+00  0.11351875900E+04  0.11351875900E+04  0.25500000000E-02 0.  1.
         -2   -1    0    0    0  501 -0.00000000000E+00 -0.00000000000E+00 -0.51763331276E+02  0.51763331339E+02  0.25500000000E-02 0. -1.
    5000001    1    1    2    0    0 -0.13505396495E+03 -0.38464182387E+02  0.80785320545E+03  0.83640353199E+03  0.16500000000E+03 0.  0.
   -5000001    1    1    2    0    0  0.13505396495E+03  0.38464182387E+02  0.27557105327E+03  0.35054738934E+03  0.16500000000E+03 0.  0.
<mgrwt>
<rscale>  0 0.48481374E+03</rscale>
<asrwt>0</asrwt>
<pdfrwt beam="1">  1        2 0.16216964E+00 0.48481374E+03</pdfrwt>
<pdfrwt beam="2">  1       -2 0.73947625E-02 0.48481374E+03</pdfrwt>
<totfact> 0.26089190E+03</totfact>
</mgrwt>
</event>
<event>
 4    1  0.5387486E-005  0.4436636E+03  0.7818608E-02  0.1029629E+00
          2   -1    0    0  501    0  0.00000000000E+00  0.00000000000E+00  0.46468917667E+03  0.46468917668E+03  0.25500000000E-02 0.  1.
         -2   -1    0    0    0  501 -0.00000000000E+00 -0.00000000000E+00 -0.10589735722E+03  0.10589735725E+03  0.25500000000E-02 0. -1.
    5000001    1    1    2    0    0 -0.32812739952E+02  0.12865289002E+03  0.26427823884E+03  0.33866831788E+03  0.16500000000E+03 0.  0.
   -5000001    1    1    2    0    0  0.32812739952E+02 -0.12865289002E+03  0.94513580611E+02  0.23191821604E+03  0.16500000000E+03 0.  0.
<mgrwt>
<rscale>  0 0.44366364E+03</rscale>
<asrwt>0</asrwt>
<pdfrwt beam="1">  1        2 0.66384169E-01 0.44366364E+03</pdfrwt>
<pdfrwt beam="2">  1       -2 0.15128194E-01 0.44366364E+03</pdfrwt>
<totfact> 0.24970469E+03</totfact>
</mgrwt>
</event>
<event>
 4    1  0.5387486E-005  0.9132500E+03  0.7818608E-02  0.9409168E-01
         -2   -1    0    0    0  501 -0.00000000000E+00  0.00000000000E+00  0.64242106546E+03  0.64242106546E+03  0.25500000000E-02 0. -1.
          2   -1    0    0  501    0  0.00000000000E+00 -0.00000000000E+00 -0.32456343831E+03  0.32456343832E+03  0.25500000000E-02 0.  1.
    5000001    1    1    2    0    0 -0.18265146522E+03 -0.17148029943E+03  0.52344371219E+03  0.60331200110E+03  0.16500000000E+03 0.  0.
   -5000001    1    1    2    0    0  0.18265146522E+03  0.17148029943E+03 -0.20558608505E+03  0.36367250268E+03  0.16500000000E+03 0.  0.
<mgrwt>
<rscale>  0 0.91325000E+03</rscale>
<asrwt>0</asrwt>
<pdfrwt beam="1">  1        2 0.46366206E-01 0.91325000E+03</pdfrwt>
<pdfrwt beam="2">  1       -2 0.91774437E-01 0.91325000E+03</pdfrwt>
<totfact> 0.11069856E+02</totfact>
</mgrwt>
</event>
<event>
 4    1  0.5387486E-005  0.5651353E+03  0.7818608E-02  0.9980502E-01
          2   -1    0    0  501    0  0.00000000000E+00  0.00000000000E+00  0.46643732786E+03  0.46643732787E+03  0.25500000000E-02 0.  1.
         -2   -1    0    0    0  501 -0.00000000000E+00 -0.00000000000E+00 -0.17117944956E+03  0.17117944958E+03  0.25500000000E-02 0. -1.
    5000001    1    1    2    0    0 -0.91101841064E+02 -0.19954121185E+03  0.22334186612E+03  0.35386837925E+03  0.16500000000E+03 0.  0.
   -5000001    1    1    2    0    0  0.91101841064E+02  0.19954121185E+03  0.71916012180E+02  0.28374839820E+03  0.16500000000E+03 0.  0.
<mgrwt>
<rscale>  0 0.56513533E+03</rscale>
<asrwt>0</asrwt>
<pdfrwt beam="1">  1        2 0.66633904E-01 0.56513533E+03</pdfrwt>
<pdfrwt beam="2">  1       -2 0.24454207E-01 0.56513533E+03</pdfrwt>
<totfact> 0.10856809E+03</totfact>
</mgrwt>
</event>
<event>
 4    1  0.5387486E-005  0.5320080E+03  0.7818608E-02  0.1005746E+00
          2   -1    0    0  501    0  0.00000000000E+00  0.00000000000E+00  0.21016223583E+04  0.21016223583E+04  0.25500000000E-02 0.  1.
         -2   -1    0    0    0  501 -0.00000000000E+00 -0.00000000000E+00 -0.33668342349E+02  0.33668342445E+02  0.25500000000E-02 0. -1.
    5000001    1    1    2    0    0  0.18937601276E+03  0.65091750600E+02  0.79881273700E+03  0.83989701690E+03  0.16500000000E+03 0.  0.
   -5000001    1    1    2    0    0 -0.18937601276E+03 -0.65091750600E+02  0.12691412789E+04  0.12953936838E+04  0.16500000000E+03 0.  0.
<mgrwt>
<rscale>  0 0.53200805E+03</rscale>
<asrwt>0</asrwt>
<pdfrwt beam="1">  1        2 0.30023181E+00 0.53200805E+03</pdfrwt>
<pdfrwt beam="2">  1       -2 0.48097625E-02 0.53200805E+03</pdfrwt>
<totfact> 0.16104836E+03</totfact>
</mgrwt>
</event>
<event>
 4    1  0.5387486E-005  0.4574227E+03  0.7818608E-02  0.1025531E+00
         -2   -1    0    0    0  501 -0.00000000000E+00  0.00000000000E+00  0.23221658622E+03  0.23221658623E+03  0.25500000000E-02 0. -1.
          2   -1    0    0  501    0  0.00000000000E+00 -0.00000000000E+00 -0.22525904330E+03  0.22525904332E+03  0.25500000000E-02 0.  1.
    5000001    1    1    2    0    0 -0.44961403066E+02 -0.14902536664E+03  0.32701980044E+02  0.22918225753E+03  0.16500000000E+03 0.  0.
   -5000001    1    1    2    0    0  0.44961403066E+02  0.14902536664E+03 -0.25744437128E+02  0.22829337202E+03  0.16500000000E+03 0.  0.
<mgrwt>
<rscale>  0 0.45742272E+03</rscale>
<asrwt>0</asrwt>
<pdfrwt beam="1">  1        2 0.32179863E-01 0.45742272E+03</pdfrwt>
<pdfrwt beam="2">  1       -2 0.33173798E-01 0.45742272E+03</pdfrwt>
<totfact> 0.13895847E+03</totfact>
</mgrwt>
</event>
<event>
 4    1  0.5387486E-005  0.3971494E+03  0.7818608E-02  0.1044771E+00
         -2   -1    0    0    0  501 -0.00000000000E+00  0.00000000000E+00  0.15408500314E+03  0.15408500316E+03  0.25500000000E-02 0. -1.
          2   -1    0    0  501    0  0.00000000000E+00 -0.00000000000E+00 -0.25591010463E+03  0.25591010464E+03  0.25500000000E-02 0.  1.
    5000001    1    1    2    0    0  0.32687384222E+02 -0.80540139602E+01 -0.15954729390E+03  0.23197773863E+03  0.16500000000E+03 0.  0.
   -5000001    1    1    2    0    0 -0.32687384222E+02  0.80540139602E+01  0.57722192411E+02  0.17801736917E+03  0.16500000000E+03 0.  0.
<mgrwt>
<rscale>  0 0.39714939E+03</rscale>
<asrwt>0</asrwt>
<pdfrwt beam="1">  1        2 0.36558586E-01 0.39714939E+03</pdfrwt>
<pdfrwt beam="2">  1       -2 0.22012143E-01 0.39714939E+03</pdfrwt>
<totfact> 0.25270950E+03</totfact>
</mgrwt>
</event>
<event>
 4    1  0.5387486E-005  0.3969113E+03  0.7818608E-02  0.1044854E+00
         -2   -1    0    0    0  501 -0.00000000000E+00  0.00000000000E+00  0.29820051092E+02  0.29820051201E+02  0.25500000000E-02 0. -1.
          2   -1    0    0  501    0  0.00000000000E+00 -0.00000000000E+00 -0.13207438355E+04  0.13207438356E+04  0.25500000000E-02 0.  1.
    5000001    1    1    2    0    0  0.81009176913E+02 -0.59767546813E+02 -0.79858277106E+03  0.82164109478E+03  0.16500000000E+03 0.  0.
   -5000001    1    1    2    0    0 -0.81009176913E+02  0.59767546813E+02 -0.49234101340E+03  0.52892279197E+03  0.16500000000E+03 0.  0.
<mgrwt>
<rscale>  0 0.39691132E+03</rscale>
<asrwt>0</asrwt>
<pdfrwt beam="1">  1        2 0.18867765E+00 0.39691132E+03</pdfrwt>
<pdfrwt beam="2">  1       -2 0.42600081E-02 0.39691132E+03</pdfrwt>
<totfact> 0.48457400E+03</totfact>
</mgrwt>
</event>
<event>
 4    1  0.5387486E-005  0.5074004E+03  0.7818608E-02  0.1011865E+00
          2   -1    0    0  501    0  0.00000000000E+00  0.00000000000E+00  0.14296952892E+04  0.14296952892E+04  0.25500000000E-02 0.  1.
         -2   -1    0    0    0  501 -0.00000000000E+00 -0.00000000000E+00 -0.45019239095E+02  0.45019239167E+02  0.25500000000E-02 0. -1.
    5000001    1    1    2    0    0 -0.81391664220E+02 -0.17055403895E+03  0.58260372028E+03  0.63432277122E+03  0.16500000000E+03 0.  0.
   -5000001    1    1    2    0    0  0.81391664220E+02  0.17055403895E+03  0.80207232980E+03  0.84039175712E+03  0.16500000000E+03 0.  0.
<mgrwt>
<rscale>  0 0.50740041E+03</rscale>
<asrwt>0</asrwt>
<pdfrwt beam="1">  1        2 0.20424214E+00 0.50740041E+03</pdfrwt>
<pdfrwt beam="2">  1       -2 0.64313212E-02 0.50740041E+03</pdfrwt>
<totfact> 0.22461977E+03</totfact>
</mgrwt>
</event>
<event>
 4    1  0.5387486E-005  0.4500835E+03  0.7818608E-02  0.1027697E+00
          2   -1    0    0  501    0  0.00000000000E+00  0.00000000000E+00  0.43533979382E+03  0.43533979383E+03  0.25500000000E-02 0.  1.
         -2   -1    0    0    0  501 -0.00000000000E+00 -0.00000000000E+00 -0.11633164989E+03  0.11633164991E+03  0.25500000000E-02 0. -1.
    5000001    1    1    2    0    0 -0.55462470504E+02 -0.13561607879E+03  0.10536448910E+03  0.24452910261E+03  0.16500000000E+03 0.  0.
   -5000001    1    1    2    0    0  0.55462470504E+02  0.13561607879E+03  0.21364365484E+03  0.30714234113E+03  0.16500000000E+03 0.  0.
<mgrwt>
<rscale>  0 0.45008353E+03</rscale>
<asrwt>0</asrwt>
<pdfrwt beam="1">  1        2 0.62191400E-01 0.45008353E+03</pdfrwt>
<pdfrwt beam="2">  1       -2 0.16618807E-01 0.45008353E+03</pdfrwt>
<totfact> 0.22926333E+03</totfact>
</mgrwt>
</event>
<event>
 4    1  0.5387486E-005  0.4260695E+03  0.7818608E-02  0.1035109E+00
          2   -1    0    0  501    0  0.00000000000E+00  0.00000000000E+00  0.60921796707E+03  0.60921796708E+03  0.25500000000E-02 0.  1.
         -2   -1    0    0    0  501 -0.00000000000E+00 -0.00000000000E+00 -0.74495173566E+02  0.74495173609E+02  0.25500000000E-02 0. -1.
    5000001    1    1    2    0    0 -0.71066650644E+02  0.10703315974E+03  0.20213415131E+03  0.29084322451E+03  0.16500000000E+03 0.  0.
   -5000001    1    1    2    0    0  0.71066650644E+02 -0.10703315974E+03  0.33258864219E+03  0.39286991617E+03  0.16500000000E+03 0.  0.
<mgrwt>
<rscale>  0 0.42606947E+03</rscale>
<asrwt>0</asrwt>
<pdfrwt beam="1">  1        2 0.87031136E-01 0.42606947E+03</pdfrwt>
<pdfrwt beam="2">  1       -2 0.10642168E-01 0.42606947E+03</pdfrwt>
<totfact> 0.32688766E+03</totfact>
</mgrwt>
</event>
<event>
 4    1  0.5387486E-005  0.4007245E+03  0.7818608E-02  0.1043529E+00
         -2   -1    0    0    0  501 -0.00000000000E+00  0.00000000000E+00  0.54518026335E+02  0.54518026395E+02  0.25500000000E-02 0. -1.
          2   -1    0    0  501    0  0.00000000000E+00 -0.00000000000E+00 -0.73636256233E+03  0.73636256233E+03  0.25500000000E-02 0.  1.
    5000001    1    1    2    0    0  0.96446881054E+02  0.44586546513E+02 -0.26123875344E+03  0.32674247856E+03  0.16500000000E+03 0.  0.
   -5000001    1    1    2    0    0 -0.96446881054E+02 -0.44586546513E+02 -0.42060578255E+03  0.46413811017E+03  0.16500000000E+03 0.  0.
<mgrwt>
<rscale>  0 0.40072451E+03</rscale>
<asrwt>0</asrwt>
<pdfrwt beam="1">  1        2 0.10519465E+00 0.40072451E+03</pdfrwt>
<pdfrwt beam="2">  1       -2 0.77882899E-02 0.40072451E+03</pdfrwt>
<totfact> 0.42858771E+03</totfact>
</mgrwt>
</event>
<event>
 4    1  0.5387486E-005  0.5155777E+03  0.7818608E-02  0.1009791E+00
         -2   -1    0    0    0  501 -0.00000000000E+00  0.00000000000E+00  0.12021354527E+04  0.12021354527E+04  0.25500000000E-02 0. -1.
          2   -1    0    0  501    0  0.00000000000E+00 -0.00000000000E+00 -0.55280866616E+02  0.55280866675E+02  0.25500000000E-02 0.  1.
    5000001    1    1    2    0    0 -0.14347812273E+03 -0.13399629038E+03  0.63744939301E+03  0.68710094323E+03  0.16500000000E+03 0.  0.
   -5000001    1    1    2    0    0  0.14347812273E+03  0.13399629038E+03  0.50940519307E+03  0.57031537615E+03  0.16500000000E+03 0.  0.
<mgrwt>
<rscale>  0 0.51557769E+03</rscale>
<asrwt>0</asrwt>
<pdfrwt beam="1">  1        2 0.78972669E-02 0.51557769E+03</pdfrwt>
<pdfrwt beam="2">  1       -2 0.17173363E+00 0.51557769E+03</pdfrwt>
<totfact> 0.19063445E+02</totfact>
</mgrwt>
</event>
<event>
 4    1  0.5387486E-005  0.3964108E+03  0.7818608E-02  0.1045030E+00
         -2   -1    0    0    0  501 -0.00000000000E+00  0.00000000000E+00  0.38860981166E+02  0.38860981250E+02  0.25500000000E-02 0. -1.
          2   -1    0    0  501    0  0.00000000000E+00 -0.00000000000E+00 -0.10109209785E+04  0.10109209785E+04  0.25500000000E-02 0.  1.
    5000001    1    1    2    0    0  0.20437177749E+02 -0.10188244789E+03 -0.58013192387E+03  0.61202594758E+03  0.16500000000E+03 0.  0.
   -5000001    1    1    2    0    0 -0.20437177749E+02  0.10188244789E+03 -0.39192807349E+03  0.43775601220E+03  0.16500000000E+03 0.  0.
<mgrwt>
<rscale>  0 0.39641080E+03</rscale>
<asrwt>0</asrwt>
<pdfrwt beam="1">  1        2 0.14441727E+00 0.39641080E+03</pdfrwt>
<pdfrwt beam="2">  1       -2 0.55515694E-02 0.39641080E+03</pdfrwt>
<totfact> 0.48138961E+03</totfact>
</mgrwt>
</event>
<event>
 4    1  0.5387486E-005  0.3852972E+03  0.7818608E-02  0.1048993E+00
          2   -1    0    0  501    0  0.00000000000E+00  0.00000000000E+00  0.26702096329E+04  0.26702096329E+04  0.25500000000E-02 0.  1.
         -2   -1    0    0    0  501 -0.00000000000E+00 -0.00000000000E+00 -0.13899089874E+02  0.13899090108E+02  0.25500000000E-02 0. -1.
    5000001    1    1    2    0    0  0.79581621191E+02  0.58023812082E+02  0.12325141411E+04  0.12474037459E+04  0.16500000000E+03 0.  0.
   -5000001    1    1    2    0    0 -0.79581621191E+02 -0.58023812082E+02  0.14237964019E+04  0.14367049771E+04  0.16500000000E+03 0.  0.
<mgrwt>
<rscale>  0 0.38529720E+03</rscale>
<asrwt>0</asrwt>
<pdfrwt beam="1">  1        2 0.38145804E+00 0.38529720E+03</pdfrwt>
<pdfrwt beam="2">  1       -2 0.19855868E-02 0.38529720E+03</pdfrwt>
<totfact> 0.31948907E+03</totfact>
</mgrwt>
</event>
<event>
 4    1  0.5387486E-005  0.6934447E+03  0.7818608E-02  0.9728509E-01
          2   -1    0    0  501    0  0.00000000000E+00  0.00000000000E+00  0.12442046051E+04  0.12442046051E+04  0.25500000000E-02 0.  1.
         -2   -1    0    0    0  501 -0.00000000000E+00 -0.00000000000E+00 -0.96621080935E+02  0.96621080969E+02  0.25500000000E-02 0. -1.
    5000001    1    1    2    0    0 -0.28777043778E+03 -0.59831230439E+02  0.73087347569E+03  0.80485566313E+03  0.16500000000E+03 0.  0.
   -5000001    1    1    2    0    0  0.28777043778E+03  0.59831230439E+02  0.41671004849E+03  0.53597002296E+03  0.16500000000E+03 0.  0.
<mgrwt>
<rscale>  0 0.69344472E+03</rscale>
<asrwt>0</asrwt>
<pdfrwt beam="1">  1        2 0.17774352E+00 0.69344472E+03</pdfrwt>
<pdfrwt beam="2">  1       -2 0.13803011E-01 0.69344472E+03</pdfrwt>
<totfact> 0.81908402E+02</totfact>
</mgrwt>
</event>
<event>
 4    1  0.5387486E-005  0.5797823E+03  0.7818608E-02  0.9948262E-01
         -2   -1    0    0    0  501 -0.00000000000E+00  0.00000000000E+00  0.25676571295E+02  0.25676571421E+02  0.25500000000E-02 0. -1.
          2   -1    0    0  501    0  0.00000000000E+00 -0.00000000000E+00 -0.32729015837E+04  0.32729015837E+04  0.25500000000E-02 0.  1.
    5000001    1    1    2    0    0 -0.12417478759E+03  0.19698742007E+03 -0.13341559954E+04  0.13643389028E+04  0.16500000000E+03 0.  0.
   -5000001    1    1    2    0    0  0.12417478759E+03 -0.19698742007E+03 -0.19130690170E+04  0.19342392524E+04  0.16500000000E+03 0.  0.
<mgrwt>
<rscale>  0 0.57978234E+03</rscale>
<asrwt>0</asrwt>
<pdfrwt beam="1">  1        2 0.46755711E+00 0.57978234E+03</pdfrwt>
<pdfrwt beam="2">  1       -2 0.36680837E-02 0.57978234E+03</pdfrwt>
<totfact> 0.58961691E+02</totfact>
</mgrwt>
</event>
<event>
 4    1  0.5387486E-005  0.4654176E+03  0.7818608E-02  0.1023222E+00
          2   -1    0    0  501    0  0.00000000000E+00  0.00000000000E+00  0.45870224110E+03  0.45870224111E+03  0.25500000000E-02 0.  1.
         -2   -1    0    0    0  501 -0.00000000000E+00 -0.00000000000E+00 -0.11805779850E+03  0.11805779853E+03  0.25500000000E-02 0. -1.
    5000001    1    1    2    0    0  0.70929226811E+02 -0.91711423081E+02  0.26408898464E+02  0.20338232533E+03  0.16500000000E+03 0.  0.
   -5000001    1    1    2    0    0 -0.70929226811E+02  0.91711423081E+02  0.31423554414E+03  0.37337771430E+03  0.16500000000E+03 0.  0.
<mgrwt>
<rscale>  0 0.46541756E+03</rscale>
<asrwt>0</asrwt>
<pdfrwt beam="1">  1        2 0.65528892E-01 0.46541756E+03</pdfrwt>
<pdfrwt beam="2">  1       -2 0.16865400E-01 0.46541756E+03</pdfrwt>
<totfact> 0.21105592E+03</totfact>
</mgrwt>
</event>
<event>
 4    1  0.5387486E-005  0.4287773E+03  0.7818608E-02  0.1034247E+00
          2   -1    0    0  501    0  0.00000000000E+00  0.00000000000E+00  0.10437703293E+04  0.10437703293E+04  0.25500000000E-02 0.  1.
         -2   -1    0    0    0  501 -0.00000000000E+00 -0.00000000000E+00 -0.44035056305E+02  0.44035056379E+02  0.25500000000E-02 0. -1.
    5000001    1    1    2    0    0  0.10921717418E+03 -0.22398423975E+02  0.70135360488E+03  0.72907610001E+03  0.16500000000E+03 0.  0.
   -5000001    1    1    2    0    0 -0.10921717418E+03  0.22398423975E+02  0.29838166812E+03  0.35872928568E+03  0.16500000000E+03 0.  0.
<mgrwt>
<rscale>  0 0.42877726E+03</rscale>
<asrwt>0</asrwt>
<pdfrwt beam="1">  1        2 0.14911003E+00 0.42877726E+03</pdfrwt>
<pdfrwt beam="2">  1       -2 0.62907231E-02 0.42877726E+03</pdfrwt>
<totfact> 0.37952507E+03</totfact>
</mgrwt>
</event>
<event>
 4    1  0.5387486E-005  0.5278191E+03  0.7818608E-02  0.1006762E+00
         -2   -1    0    0    0  501 -0.00000000000E+00  0.00000000000E+00  0.10388679654E+03  0.10388679657E+03  0.25500000000E-02 0. -1.
          2   -1    0    0  501    0  0.00000000000E+00 -0.00000000000E+00 -0.67042442805E+03  0.67042442806E+03  0.25500000000E-02 0.  1.
    5000001    1    1    2    0    0 -0.86364115576E+02 -0.17462506689E+03 -0.18518169192E+03  0.31538854366E+03  0.16500000000E+03 0.  0.
   -5000001    1    1    2    0    0  0.86364115576E+02  0.17462506689E+03 -0.38135593959E+03  0.45892268097E+03  0.16500000000E+03 0.  0.
<mgrwt>
<rscale>  0 0.52781908E+03</rscale>
<asrwt>0</asrwt>
<pdfrwt beam="1">  1        2 0.95774916E-01 0.52781908E+03</pdfrwt>
<pdfrwt beam="2">  1       -2 0.14840971E-01 0.52781908E+03</pdfrwt>
<totfact> 0.16909900E+03</totfact>
</mgrwt>
</event>
<event>
 4    1  0.5387486E-005  0.5687613E+03  0.7818608E-02  0.9972423E-01
         -2   -1    0    0    0  501 -0.00000000000E+00  0.00000000000E+00  0.25958194468E+03  0.25958194469E+03  0.25500000000E-02 0. -1.
          2   -1    0    0  501    0  0.00000000000E+00 -0.00000000000E+00 -0.31154849309E+03  0.31154849310E+03  0.25500000000E-02 0.  1.
    5000001    1    1    2    0    0  0.18829569098E+02 -0.21499509927E+03  0.58449768523E+02  0.27788274653E+03  0.16500000000E+03 0.  0.
   -5000001    1    1    2    0    0 -0.18829569098E+02  0.21499509927E+03 -0.11041631693E+03  0.29324769125E+03  0.16500000000E+03 0.  0.
<mgrwt>
<rscale>  0 0.56876133E+03</rscale>
<asrwt>0</asrwt>
<pdfrwt beam="1">  1        2 0.44506928E-01 0.56876133E+03</pdfrwt>
<pdfrwt beam="2">  1       -2 0.37083135E-01 0.56876133E+03</pdfrwt>
<totfact> 0.78708043E+02</totfact>
</mgrwt>
</event>
<event>
 4    1  0.5387486E-005  0.8787647E+03  0.7818608E-02  0.9452523E-01
         -2   -1    0    0    0  501 -0.00000000000E+00  0.00000000000E+00  0.18408434357E+03  0.18408434359E+03  0.25500000000E-02 0. -1.
          2   -1    0    0  501    0  0.00000000000E+00 -0.00000000000E+00 -0.10487412121E+04  0.10487412121E+04  0.25500000000E-02 0.  1.
    5000001    1    1    2    0    0 -0.30124791181E+03  0.27139079432E+03 -0.37930354110E+03  0.57922313827E+03  0.16500000000E+03 0.  0.
   -5000001    1    1    2    0    0  0.30124791181E+03 -0.27139079432E+03 -0.48535332741E+03  0.65360241741E+03  0.16500000000E+03 0.  0.
<mgrwt>
<rscale>  0 0.87876467E+03</rscale>
<asrwt>0</asrwt>
<pdfrwt beam="1">  1        2 0.14982017E+00 0.87876467E+03</pdfrwt>
<pdfrwt beam="2">  1       -2 0.26297764E-01 0.87876467E+03</pdfrwt>
<totfact> 0.34292023E+02</totfact>
</mgrwt>
</event>
<event>
 4    1  0.5387486E-005  0.7031715E+03  0.7818608E-02  0.9711824E-01
         -2   -1    0    0    0  501 -0.00000000000E+00  0.00000000000E+00  0.66205759515E+02  0.66205759564E+02  0.25500000000E-02 0.  1.
          2   -1    0    0  501    0  0.00000000000E+00 -0.00000000000E+00 -0.18670966276E+04  0.18670966276E+04  0.25500000000E-02 0. -1.
    5000001    1    1    2    0    0 -0.26055363998E+03  0.14972677194E+03 -0.68604051151E+03  0.76693082412E+03  0.16500000000E+03 0.  0.
   -5000001    1    1    2    0    0  0.26055363998E+03 -0.14972677194E+03 -0.11148503566E+04  0.11663715631E+04  0.16500000000E+03 0.  0.
<mgrwt>
<rscale>  0 0.70317153E+03</rscale>
<asrwt>0</asrwt>
<pdfrwt beam="1">  1        2 0.26672806E+00 0.70317153E+03</pdfrwt>
<pdfrwt beam="2">  1       -2 0.94579668E-02 0.70317153E+03</pdfrwt>
<totfact> 0.71976324E+02</totfact>
</mgrwt>
</event>
<event>
 4    1  0.5387486E-005  0.7381328E+03  0.7818608E-02  0.9654154E-01
          2   -1    0    0  501    0  0.00000000000E+00  0.00000000000E+00  0.26832827444E+04  0.26832827444E+04  0.25500000000E-02 0.  1.
         -2   -1    0    0    0  501 -0.00000000000E+00 -0.00000000000E+00 -0.50762446813E+02  0.50762446877E+02  0.25500000000E-02 0. -1.
    5000001    1    1    2    0    0  0.29483964581E+03 -0.86618105049E+02  0.17630783179E+04  0.17972488053E+04  0.16500000000E+03 0.  0.
   -5000001    1    1    2    0    0 -0.29483964581E+03  0.86618105049E+02  0.86944197968E+03  0.93679638604E+03  0.16500000000E+03 0.  0.
<mgrwt>
<rscale>  0 0.73813277E+03</rscale>
<asrwt>0</asrwt>
<pdfrwt beam="1">  1        2 0.38332611E+00 0.73813277E+03</pdfrwt>
<pdfrwt beam="2">  1       -2 0.72517780E-02 0.73813277E+03</pdfrwt>
<totfact> 0.42084870E+02</totfact>
</mgrwt>
</event>
<event>
 4    1  0.5387486E-005  0.4965398E+03  0.7818608E-02  0.1014686E+00
          2   -1    0    0  501    0  0.00000000000E+00  0.00000000000E+00  0.10183603305E+03  0.10183603308E+03  0.25500000000E-02 0.  1.
         -2   -1    0    0    0  501 -0.00000000000E+00 -0.00000000000E+00 -0.60526644194E+03  0.60526644195E+03  0.25500000000E-02 0. -1.
    5000001    1    1    2    0    0  0.81938649228E+02 -0.10816156460E+03 -0.71583885438E+02  0.22530450273E+03  0.16500000000E+03 0.  0.
   -5000001    1    1    2    0    0 -0.81938649228E+02  0.10816156460E+03 -0.43184652345E+03  0.48179797230E+03  0.16500000000E+03 0.  0.
<mgrwt>
<rscale>  0 0.49653976E+03</rscale>
<asrwt>0</asrwt>
<pdfrwt beam="1">  1        2 0.14548005E-01 0.49653976E+03</pdfrwt>
<pdfrwt beam="2">  1       -2 0.86466633E-01 0.49653976E+03</pdfrwt>
<totfact> 0.48666457E+02</totfact>
</mgrwt>
</event>
<event>
 4    1  0.5387486E-005  0.1027736E+04  0.7818608E-02  0.9278637E-01
          2   -1    0    0  501    0  0.00000000000E+00  0.00000000000E+00  0.35462810456E+03  0.35462810457E+03  0.25500000000E-02 0.  1.
         -2   -1    0    0    0  501 -0.00000000000E+00 -0.00000000000E+00 -0.74461211310E+03  0.74461211310E+03  0.25500000000E-02 0. -1.
    5000001    1    1    2    0    0  0.44111438453E+03 -0.13839492741E+03 -0.35755438301E+03  0.60729333356E+03  0.16500000000E+03 0.  0.
   -5000001    1    1    2    0    0 -0.44111438453E+03  0.13839492741E+03 -0.32429625517E+02  0.49194688411E+03  0.16500000000E+03 0.  0.
<mgrwt>
<rscale>  0 0.10277361E+04</rscale>
<asrwt>0</asrwt>
<pdfrwt beam="1">  1        2 0.50661158E-01 0.10277361E+04</pdfrwt>
<pdfrwt beam="2">  1       -2 0.10637316E+00 0.10277361E+04</pdfrwt>
<totfact> 0.70331279E+01</totfact>
</mgrwt>
</event>
<event>
 4    1  0.5387486E-005  0.5062273E+03  0.7818608E-02  0.1012166E+00
         -2   -1    0    0    0  501 -0.00000000000E+00  0.00000000000E+00  0.26194765336E+03  0.26194765337E+03  0.25500000000E-02 0. -1.
          2   -1    0    0  501    0  0.00000000000E+00 -0.00000000000E+00 -0.24457756564E+03  0.24457756565E+03  0.25500000000E-02 0.  1.
    5000001    1    1    2    0    0  0.13056693536E+03  0.12886932234E+03 -0.47797203100E+02  0.25132568407E+03  0.16500000000E+03 0.  0.
   -5000001    1    1    2    0    0 -0.13056693536E+03 -0.12886932234E+03  0.65167290819E+02  0.25519953496E+03  0.16500000000E+03 0.  0.
<mgrwt>
<rscale>  0 0.50622730E+03</rscale>
<asrwt>0</asrwt>
<pdfrwt beam="1">  1        2 0.34939652E-01 0.50622730E+03</pdfrwt>
<pdfrwt beam="2">  1       -2 0.37421094E-01 0.50622730E+03</pdfrwt>
<totfact> 0.10106279E+03</totfact>
</mgrwt>
</event>
<event>
 4    1  0.5387486E-005  0.3978285E+03  0.7818608E-02  0.1044534E+00
          2   -1    0    0  501    0  0.00000000000E+00  0.00000000000E+00  0.11812092159E+04  0.11812092159E+04  0.25500000000E-02 0.  1.
         -2   -1    0    0    0  501 -0.00000000000E+00 -0.00000000000E+00 -0.33496925665E+02  0.33496925762E+02  0.25500000000E-02 0. -1.
    5000001    1    1    2    0    0  0.40905742366E+02  0.88073909869E+02  0.40910061326E+03  0.45168418738E+03  0.16500000000E+03 0.  0.
   -5000001    1    1    2    0    0 -0.40905742366E+02 -0.88073909869E+02  0.73861167698E+03  0.76302195429E+03  0.16500000000E+03 0.  0.
<mgrwt>
<rscale>  0 0.39782849E+03</rscale>
<asrwt>0</asrwt>
<pdfrwt beam="1">  1        2 0.16874423E+00 0.39782849E+03</pdfrwt>
<pdfrwt beam="2">  1       -2 0.47852735E-02 0.39782849E+03</pdfrwt>
<totfact> 0.48300408E+03</totfact>
</mgrwt>
</event>
<event>
 4    1  0.5387486E-005  0.4649107E+03  0.7818608E-02  0.1023367E+00
         -2   -1    0    0    0  501 -0.00000000000E+00  0.00000000000E+00  0.86370038675E+02  0.86370038712E+02  0.25500000000E-02 0. -1.
          2   -1    0    0  501    0  0.00000000000E+00 -0.00000000000E+00 -0.62562774849E+03  0.62562774850E+03  0.25500000000E-02 0.  1.
    5000001    1    1    2    0    0 -0.15629903273E+03 -0.29072556272E+02 -0.20960976791E+03  0.31054123070E+03  0.16500000000E+03 0.  0.
   -5000001    1    1    2    0    0  0.15629903273E+03  0.29072556272E+02 -0.32964794191E+03  0.40145655651E+03  0.16500000000E+03 0.  0.
<mgrwt>
<rscale>  0 0.46491071E+03</rscale>
<asrwt>0</asrwt>
<pdfrwt beam="1">  1        2 0.89375390E-01 0.46491071E+03</pdfrwt>
<pdfrwt beam="2">  1       -2 0.12338577E-01 0.46491071E+03</pdfrwt>
<totfact> 0.24928290E+03</totfact>
</mgrwt>
</event>
<event>
 4    1  0.5387486E-005  0.9030953E+03  0.7818608E-02  0.9421720E-01
         -2   -1    0    0    0  501 -0.00000000000E+00  0.00000000000E+00  0.26147157780E+03  0.26147157781E+03  0.25500000000E-02 0. -1.
          2   -1    0    0  501    0  0.00000000000E+00 -0.00000000000E+00 -0.77979909249E+03  0.77979909249E+03  0.25500000000E-02 0.  1.
    5000001    1    1    2    0    0  0.34114669548E+01  0.38994196180E+03 -0.44001947862E+03  0.61066235617E+03  0.16500000000E+03 0.  0.
   -5000001    1    1    2    0    0 -0.34114669548E+01 -0.38994196180E+03 -0.78308036067E+02  0.43060831413E+03  0.16500000000E+03 0.  0.
<mgrwt>
<rscale>  0 0.90309534E+03</rscale>
<asrwt>0</asrwt>
<pdfrwt beam="1">  1        2 0.11139987E+00 0.90309534E+03</pdfrwt>
<pdfrwt beam="2">  1       -2 0.37353083E-01 0.90309534E+03</pdfrwt>
<totfact> 0.26569663E+02</totfact>
</mgrwt>
</event>
<event>
 4    1  0.5387486E-005  0.5085027E+03  0.7818608E-02  0.1011583E+00
          2   -1    0    0  501    0  0.00000000000E+00  0.00000000000E+00  0.65850695023E+03  0.65850695023E+03  0.25500000000E-02 0.  1.
         -2   -1    0    0    0  501 -0.00000000000E+00 -0.00000000000E+00 -0.98167160770E+02  0.98167160803E+02  0.25500000000E-02 0. -1.
    5000001    1    1    2    0    0 -0.32237407530E+02  0.12448590723E+03  0.65134675972E+02  0.21909705055E+03  0.16500000000E+03 0.  0.
   -5000001    1    1    2    0    0  0.32237407530E+02 -0.12448590723E+03  0.49520511349E+03  0.53757706049E+03  0.16500000000E+03 0.  0.
<mgrwt>
<rscale>  0 0.50850273E+03</rscale>
<asrwt>0</asrwt>
<pdfrwt beam="1">  1        2 0.94072426E-01 0.50850273E+03</pdfrwt>
<pdfrwt beam="2">  1       -2 0.14023879E-01 0.50850273E+03</pdfrwt>
<totfact> 0.18992461E+03</totfact>
</mgrwt>
</event>
<event>
 4    1  0.5387486E-005  0.5475019E+03  0.7818608E-02  0.1002074E+00
         -2   -1    0    0    0  501 -0.00000000000E+00  0.00000000000E+00  0.88913275265E+02  0.88913275302E+02  0.25500000000E-02 0. -1.
          2   -1    0    0  501    0  0.00000000000E+00 -0.00000000000E+00 -0.84283917022E+03  0.84283917023E+03  0.25500000000E-02 0.  1.
    5000001    1    1    2    0    0 -0.26360602255E+02  0.14573811377E+03 -0.10371476250E+03  0.24477792204E+03  0.16500000000E+03 0.  0.
   -5000001    1    1    2    0    0  0.26360602255E+02 -0.14573811377E+03 -0.65021113246E+03  0.68697452349E+03  0.16500000000E+03 0.  0.
<mgrwt>
<rscale>  0 0.54750193E+03</rscale>
<asrwt>0</asrwt>
<pdfrwt beam="1">  1        2 0.12040559E+00 0.54750193E+03</pdfrwt>
<pdfrwt beam="2">  1       -2 0.12701897E-01 0.54750193E+03</pdfrwt>
<totfact> 0.16465973E+03</totfact>
</mgrwt>
</event>
<event>
 4    1  0.5387486E-005  0.4903718E+03  0.7818608E-02  0.1016323E+00
          2   -1    0    0  501    0  0.00000000000E+00  0.00000000000E+00  0.19385275826E+03  0.19385275828E+03  0.25500000000E-02 0.  1.
         -2   -1    0    0    0  501 -0.00000000000E+00 -0.00000000000E+00 -0.31011224783E+03  0.31011224784E+03  0.25500000000E-02 0. -1.
    5000001    1    1    2    0    0 -0.77921425558E+02  0.16186109283E+03 -0.83727051242E+02  0.25788753565E+03  0.16500000000E+03 0.  0.
   -5000001    1    1    2    0    0  0.77921425558E+02 -0.16186109283E+03 -0.32532438328E+02  0.24607747048E+03  0.16500000000E+03 0.  0.
<mgrwt>
<rscale>  0 0.49037176E+03</rscale>
<asrwt>0</asrwt>
<pdfrwt beam="1">  1        2 0.27693251E-01 0.49037176E+03</pdfrwt>
<pdfrwt beam="2">  1       -2 0.44301750E-01 0.49037176E+03</pdfrwt>
<totfact> 0.94389930E+02</totfact>
</mgrwt>
</event>
<event>
 4    1  0.5387486E-005  0.8384901E+03  0.7818608E-02  0.9505917E-01
         -2   -1    0    0    0  501 -0.00000000000E+00  0.00000000000E+00  0.12930116277E+03  0.12930116279E+03  0.25500000000E-02 0. -1.
          2   -1    0    0  501    0  0.00000000000E+00 -0.00000000000E+00 -0.13593568916E+04  0.13593568916E+04  0.25500000000E-02 0.  1.
    5000001    1    1    2    0    0  0.35151878237E+03  0.15781630661E+03 -0.62988043860E+03  0.75660148554E+03  0.16500000000E+03 0.  0.
   -5000001    1    1    2    0    0 -0.35151878237E+03 -0.15781630661E+03 -0.60017529019E+03  0.73205656881E+03  0.16500000000E+03 0.  0.
<mgrwt>
<rscale>  0 0.83849014E+03</rscale>
<asrwt>0</asrwt>
<pdfrwt beam="1">  1        2 0.19419383E+00 0.83849014E+03</pdfrwt>
<pdfrwt beam="2">  1       -2 0.18471596E-01 0.83849014E+03</pdfrwt>
<totfact> 0.42848004E+02</totfact>
</mgrwt>
</event>
<event>
 4    1  0.5387486E-005  0.7091924E+03  0.7818608E-02  0.9701640E-01
         -2   -1    0    0    0  501 -0.00000000000E+00  0.00000000000E+00  0.73960828909E+02  0.73960828953E+02  0.25500000000E-02 0. -1.
          2   -1    0    0  501    0  0.00000000000E+00 -0.00000000000E+00 -0.17000681974E+04  0.17000681974E+04  0.25500000000E-02 0.  1.
    5000001    1    1    2    0    0  0.13593985728E+03 -0.27392317119E+03 -0.98993319516E+03  0.10491454996E+04  0.16500000000E+03 0.  0.
   -5000001    1    1    2    0    0 -0.13593985728E+03  0.27392317119E+03 -0.63617417335E+03  0.72488352675E+03  0.16500000000E+03 0.  0.
<mgrwt>
<rscale>  0 0.70919237E+03</rscale>
<asrwt>0</asrwt>
<pdfrwt beam="1">  1        2 0.24286686E+00 0.70919237E+03</pdfrwt>
<pdfrwt beam="2">  1       -2 0.10565834E-01 0.70919237E+03</pdfrwt>
<totfact> 0.73073689E+02</totfact>
</mgrwt>
</event>
<event>
 4    1  0.5387486E-005  0.5358052E+03  0.7818608E-02  0.1004834E+00
          2   -1    0    0  501    0  0.00000000000E+00  0.00000000000E+00  0.15701510276E+04  0.15701510276E+04  0.25500000000E-02 0.  1.
         -2   -1    0    0    0  501 -0.00000000000E+00 -0.00000000000E+00 -0.45710118907E+02  0.45710118978E+02  0.25500000000E-02 0. -1.
    5000001    1    1    2    0    0 -0.13668847282E+03 -0.15238724064E+03  0.60723312456E+03  0.66171192923E+03  0.16500000000E+03 0.  0.
   -5000001    1    1    2    0    0  0.13668847282E+03  0.15238724064E+03  0.91720778417E+03  0.95414921740E+03  0.16500000000E+03 0.  0.
<mgrwt>
<rscale>  0 0.53580515E+03</rscale>
<asrwt>0</asrwt>
<pdfrwt beam="1">  1        2 0.22430732E+00 0.53580515E+03</pdfrwt>
<pdfrwt beam="2">  1       -2 0.65300161E-02 0.53580515E+03</pdfrwt>
<totfact> 0.18531561E+03</totfact>
</mgrwt>
</event>
<event>
 4    1  0.5387486E-005  0.5755227E+03  0.7818608E-02  0.9957532E-01
          2   -1    0    0  501    0  0.00000000000E+00  0.00000000000E+00  0.12547001270E+04  0.12547001270E+04  0.25500000000E-02 0. -1.
         -2   -1    0    0    0  501 -0.00000000000E+00 -0.00000000000E+00 -0.65997124577E+02  0.65997124626E+02  0.25500000000E-02 0.  1.
    5000001    1    1    2    0    0  0.23061869331E+03 -0.64772185728E+01  0.70570537340E+03  0.76057347450E+03  0.16500000000E+03 0.  0.
   -5000001    1    1    2    0    0 -0.23061869331E+03  0.64772185728E+01  0.48299762904E+03  0.56012377715E+03  0.16500000000E+03 0.  0.
<mgrwt>
<rscale>  0 0.57552272E+03</rscale>
<asrwt>0</asrwt>
<pdfrwt beam="1">  1        2 0.17924286E+00 0.57552272E+03</pdfrwt>
<pdfrwt beam="2">  1       -2 0.94281616E-02 0.57552272E+03</pdfrwt>
<totfact> 0.15166054E+03</totfact>
</mgrwt>
</event>
<event>
 4    1  0.5387486E-005  0.4935417E+03  0.7818608E-02  0.1015479E+00
          2   -1    0    0  501    0  0.00000000000E+00  0.00000000000E+00  0.16055070077E+03  0.16055070079E+03  0.25500000000E-02 0.  1.
         -2   -1    0    0    0  501 -0.00000000000E+00 -0.00000000000E+00 -0.37929353765E+03  0.37929353766E+03  0.25500000000E-02 0. -1.
    5000001    1    1    2    0    0 -0.81807290644E+02  0.16371138585E+03 -0.94819433925E+02  0.26402571032E+03  0.16500000000E+03 0.  0.
   -5000001    1    1    2    0    0  0.81807290644E+02 -0.16371138585E+03 -0.12392340296E+03  0.27581852813E+03  0.16500000000E+03 0.  0.
<mgrwt>
<rscale>  0 0.49354166E+03</rscale>
<asrwt>0</asrwt>
<pdfrwt beam="1">  1        2 0.22935814E-01 0.49354166E+03</pdfrwt>
<pdfrwt beam="2">  1       -2 0.54184791E-01 0.49354166E+03</pdfrwt>
<totfact> 0.78001479E+02</totfact>
</mgrwt>
</event>
<event>
 4    1  0.5387486E-005  0.4716748E+03  0.7818608E-02  0.1021449E+00
         -2   -1    0    0    0  501 -0.00000000000E+00  0.00000000000E+00  0.20412528324E+03  0.20412528325E+03  0.25500000000E-02 0. -1.
          2   -1    0    0  501    0  0.00000000000E+00 -0.00000000000E+00 -0.27247617217E+03  0.27247617219E+03  0.25500000000E-02 0.  1.
    5000001    1    1    2    0    0  0.55708207634E+02  0.14360647111E+03 -0.10321223408E+03  0.24820150726E+03  0.16500000000E+03 0.  0.
   -5000001    1    1    2    0    0 -0.55708207634E+02 -0.14360647111E+03  0.34861345145E+02  0.22839994818E+03  0.16500000000E+03 0.  0.
<mgrwt>
<rscale>  0 0.47167479E+03</rscale>
<asrwt>0</asrwt>
<pdfrwt beam="1">  1        2 0.38925167E-01 0.47167479E+03</pdfrwt>
<pdfrwt beam="2">  1       -2 0.29160755E-01 0.47167479E+03</pdfrwt>
<totfact> 0.14296277E+03</totfact>
</mgrwt>
</event>
<event>
 4    1  0.5387486E-005  0.1115034E+04  0.7818608E-02  0.9190661E-01
          2   -1    0    0  501    0  0.00000000000E+00  0.00000000000E+00  0.22950630459E+04  0.22950630459E+04  0.25500000000E-02 0.  1.
         -2   -1    0    0    0  501 -0.00000000000E+00 -0.00000000000E+00 -0.13543213953E+03  0.13543213956E+03  0.25500000000E-02 0. -1.
    5000001    1    1    2    0    0  0.29992350868E+03 -0.37277685666E+03  0.57009137449E+03  0.76232924067E+03  0.16500000000E+03 0.  0.
   -5000001    1    1    2    0    0 -0.29992350868E+03  0.37277685666E+03  0.15895395318E+04  0.16681659447E+04  0.16500000000E+03 0.  0.
<mgrwt>
<rscale>  0 0.11150342E+04</rscale>
<asrwt>0</asrwt>
<pdfrwt beam="1">  1        2 0.32786612E+00 0.11150342E+04</pdfrwt>
<pdfrwt beam="2">  1       -2 0.19347450E-01 0.11150342E+04</pdfrwt>
<totfact> 0.12733057E+02</totfact>
</mgrwt>
</event>
<event>
 4    1  0.5387486E-005  0.4885344E+03  0.7818608E-02  0.1016816E+00
          2   -1    0    0  501    0  0.00000000000E+00  0.00000000000E+00  0.70405628155E+03  0.70405628156E+03  0.25500000000E-02 0.  1.
         -2   -1    0    0    0  501 -0.00000000000E+00 -0.00000000000E+00 -0.84746715314E+02  0.84746715353E+02  0.25500000000E-02 0. -1.
    5000001    1    1    2    0    0 -0.11084672254E+03  0.13716167694E+03  0.36878504477E+03  0.44082619111E+03  0.16500000000E+03 0.  0.
   -5000001    1    1    2    0    0  0.11084672254E+03 -0.13716167694E+03  0.25052452147E+03  0.34797680580E+03  0.16500000000E+03 0.  0.
<mgrwt>
<rscale>  0 0.48853437E+03</rscale>
<asrwt>0</asrwt>
<pdfrwt beam="1">  1        2 0.10057947E+00 0.48853437E+03</pdfrwt>
<pdfrwt beam="2">  1       -2 0.12106674E-01 0.48853437E+03</pdfrwt>
<totfact> 0.22335360E+03</totfact>
</mgrwt>
</event>
<event>
 4    1  0.5387486E-005  0.4886870E+03  0.7818608E-02  0.1016775E+00
         -2   -1    0    0    0  501 -0.00000000000E+00  0.00000000000E+00  0.28294890048E+03  0.28294890049E+03  0.25500000000E-02 0. -1.
          2   -1    0    0  501    0  0.00000000000E+00 -0.00000000000E+00 -0.21100544212E+03  0.21100544213E+03  0.25500000000E-02 0.  1.
    5000001    1    1    2    0    0  0.44335758417E+01 -0.15641576673E+03  0.12634012390E+03  0.26013914658E+03  0.16500000000E+03 0.  0.
   -5000001    1    1    2    0    0 -0.44335758417E+01  0.15641576673E+03 -0.54396665540E+02  0.23381519604E+03  0.16500000000E+03 0.  0.
<mgrwt>
<rscale>  0 0.48868705E+03</rscale>
<asrwt>0</asrwt>
<pdfrwt beam="1">  1        2 0.30143634E-01 0.48868705E+03</pdfrwt>
<pdfrwt beam="2">  1       -2 0.40421272E-01 0.48868705E+03</pdfrwt>
<totfact> 0.10266778E+03</totfact>
</mgrwt>
</event>
<event>
 4    1  0.5387486E-005  0.4241450E+03  0.7818608E-02  0.1035726E+00
         -2   -1    0    0    0  501 -0.00000000000E+00  0.00000000000E+00  0.40140044988E+03  0.40140044989E+03  0.25500000000E-02 0.  1.
          2   -1    0    0  501    0  0.00000000000E+00 -0.00000000000E+00 -0.11204458258E+03  0.11204458261E+03  0.25500000000E-02 0. -1.
    5000001    1    1    2    0    0 -0.28440308179E+02  0.12784728999E+03  0.11512571819E+03  0.24006813965E+03  0.16500000000E+03 0.  0.
   -5000001    1    1    2    0    0  0.28440308179E+02 -0.12784728999E+03  0.17423014911E+03  0.27337689285E+03  0.16500000000E+03 0.  0.
<mgrwt>
<rscale>  0 0.42414500E+03</rscale>
<asrwt>0</asrwt>
<pdfrwt beam="1">  1        2 0.16006369E-01 0.42414500E+03</pdfrwt>
<pdfrwt beam="2">  1       -2 0.57342923E-01 0.42414500E+03</pdfrwt>
<totfact> 0.10563063E+03</totfact>
</mgrwt>
</event>
<event>
 4    1  0.5387486E-005  0.4143910E+03  0.7818608E-02  0.1038907E+00
          2   -1    0    0  501    0  0.00000000000E+00  0.00000000000E+00  0.38899159243E+03  0.38899159244E+03  0.25500000000E-02 0.  1.
         -2   -1    0    0    0  501 -0.00000000000E+00 -0.00000000000E+00 -0.11036219711E+03  0.11036219714E+03  0.25500000000E-02 0. -1.
    5000001    1    1    2    0    0  0.87323902324E+02 -0.87377300048E+02  0.16472657116E+03  0.26385621033E+03  0.16500000000E+03 0.  0.
   -5000001    1    1    2    0    0 -0.87323902324E+02  0.87377300048E+02  0.11390282417E+03  0.23549757925E+03  0.16500000000E+03 0.  0.
<mgrwt>
<rscale>  0 0.41439096E+03</rscale>
<asrwt>0</asrwt>
<pdfrwt beam="1">  1        2 0.55570228E-01 0.41439096E+03</pdfrwt>
<pdfrwt beam="2">  1       -2 0.15766028E-01 0.41439096E+03</pdfrwt>
<totfact> 0.28334032E+03</totfact>
</mgrwt>
</event>
<event>
 4    1  0.5387486E-005  0.4240609E+03  0.7818608E-02  0.1035753E+00
          2   -1    0    0  501    0  0.00000000000E+00  0.00000000000E+00  0.91728295521E+03  0.91728295522E+03  0.25500000000E-02 0.  1.
         -2   -1    0    0    0  501 -0.00000000000E+00 -0.00000000000E+00 -0.49010947598E+02  0.49010947665E+02  0.25500000000E-02 0. -1.
    5000001    1    1    2    0    0  0.37438752582E+02 -0.33309379441E+02  0.15301143618E+03  0.23053996304E+03  0.16500000000E+03 0.  0.
   -5000001    1    1    2    0    0 -0.37438752582E+02  0.33309379441E+02  0.71526057143E+03  0.73575393985E+03  0.16500000000E+03 0.  0.
<mgrwt>
<rscale>  0 0.42406088E+03</rscale>
<asrwt>0</asrwt>
<pdfrwt beam="1">  1        2 0.13104041E+00 0.42406088E+03</pdfrwt>
<pdfrwt beam="2">  1       -2 0.70015647E-02 0.42406088E+03</pdfrwt>
<totfact> 0.38326022E+03</totfact>
</mgrwt>
</event>
<event>
 4    1  0.5387486E-005  0.5315875E+03  0.7818608E-02  0.1005848E+00
          2   -1    0    0  501    0  0.00000000000E+00  0.00000000000E+00  0.29036267514E+03  0.29036267515E+03  0.25500000000E-02 0.  1.
         -2   -1    0    0    0  501 -0.00000000000E+00 -0.00000000000E+00 -0.24330372010E+03  0.24330372011E+03  0.25500000000E-02 0. -1.
    5000001    1    1    2    0    0 -0.19977044919E+03  0.11089253759E+02 -0.34922918097E+02  0.26167883775E+03  0.16500000000E+03 0.  0.
   -5000001    1    1    2    0    0  0.19977044919E+03 -0.11089253759E+02  0.81981873137E+02  0.27198755751E+03  0.16500000000E+03 0.  0.
<mgrwt>
<rscale>  0 0.53158751E+03</rscale>
<asrwt>0</asrwt>
<pdfrwt beam="1">  1        2 0.41480382E-01 0.53158751E+03</pdfrwt>
<pdfrwt beam="2">  1       -2 0.34757674E-01 0.53158751E+03</pdfrwt>
<totfact> 0.96214367E+02</totfact>
</mgrwt>
</event>
<event>
 4    1  0.5387486E-005  0.4517533E+03  0.7818608E-02  0.1027200E+00
         -2   -1    0    0    0  501 -0.00000000000E+00  0.00000000000E+00  0.43710017405E+02  0.43710017479E+02  0.25500000000E-02 0. -1.
          2   -1    0    0  501    0  0.00000000000E+00 -0.00000000000E+00 -0.11672441386E+04  0.11672441386E+04  0.25500000000E-02 0.  1.
    5000001    1    1    2    0    0 -0.68130933864E+02 -0.96962097688E+02 -0.29705817708E+03  0.35987780302E+03  0.16500000000E+03 0.  0.
   -5000001    1    1    2    0    0  0.68130933864E+02  0.96962097688E+02 -0.82647594409E+03  0.85107635304E+03  0.16500000000E+03 0.  0.
<mgrwt>
<rscale>  0 0.45175330E+03</rscale>
<asrwt>0</asrwt>
<pdfrwt beam="1">  1        2 0.16674914E+00 0.45175330E+03</pdfrwt>
<pdfrwt beam="2">  1       -2 0.62442889E-02 0.45175330E+03</pdfrwt>
<totfact> 0.32621675E+03</totfact>
</mgrwt>
</event>
<event>
 4    1  0.5387486E-005  0.5183782E+03  0.7818608E-02  0.1009090E+00
          2   -1    0    0  501    0  0.00000000000E+00  0.00000000000E+00  0.53336986983E+04  0.53336986983E+04  0.25500000000E-02 0.  1.
         -2   -1    0    0    0  501 -0.00000000000E+00 -0.00000000000E+00 -0.12595199460E+02  0.12595199718E+02  0.25500000000E-02 0. -1.
    5000001    1    1    2    0    0  0.19269460705E+03 -0.31306303048E+02  0.22178270082E+04  0.22325082160E+04  0.16500000000E+03 0.  0.
   -5000001    1    1    2    0    0 -0.19269460705E+03  0.31306303048E+02  0.31032764907E+04  0.31137856820E+04  0.16500000000E+03 0.  0.
<mgrwt>
<rscale>  0 0.51837824E+03</rscale>
<asrwt>0</asrwt>
<pdfrwt beam="1">  1        2 0.76195747E+00 0.51837824E+03</pdfrwt>
<pdfrwt beam="2">  1       -2 0.17993130E-02 0.51837824E+03</pdfrwt>
<totfact> 0.47522687E+01</totfact>
</mgrwt>
</event>
<event>
 4    1  0.5387486E-005  0.6319073E+03  0.7818608E-02  0.9841334E-01
          2   -1    0    0  501    0  0.00000000000E+00  0.00000000000E+00  0.23885041056E+04  0.23885041056E+04  0.25500000000E-02 0.  1.
         -2   -1    0    0    0  501 -0.00000000000E+00 -0.00000000000E+00 -0.41794655494E+02  0.41794655572E+02  0.25500000000E-02 0. -1.
    5000001    1    1    2    0    0  0.14477764949E+02  0.23291478720E+03  0.65532046109E+03  0.71493273145E+03  0.16500000000E+03 0.  0.
   -5000001    1    1    2    0    0 -0.14477764949E+02 -0.23291478720E+03  0.16913889890E+04  0.17153660297E+04  0.16500000000E+03 0.  0.
<mgrwt>
<rscale>  0 0.63190729E+03</rscale>
<asrwt>0</asrwt>
<pdfrwt beam="1">  1        2 0.34121496E+00 0.63190729E+03</pdfrwt>
<pdfrwt beam="2">  1       -2 0.59706635E-02 0.63190729E+03</pdfrwt>
<totfact> 0.81937205E+02</totfact>
</mgrwt>
</event>
<event>
 4    1  0.5387486E-005  0.6652904E+03  0.7818608E-02  0.9778503E-01
          2   -1    0    0  501    0  0.00000000000E+00  0.00000000000E+00  0.46613734656E+03  0.46613734656E+03  0.25500000000E-02 0.  1.
         -2   -1    0    0    0  501 -0.00000000000E+00 -0.00000000000E+00 -0.23738245359E+03  0.23738245360E+03  0.25500000000E-02 0. -1.
    5000001    1    1    2    0    0  0.79914681293E+02  0.13845869905E+03 -0.14000918685E+03  0.26904412283E+03  0.16500000000E+03 0.  0.
   -5000001    1    1    2    0    0 -0.79914681293E+02 -0.13845869905E+03  0.36876407982E+03  0.43447567733E+03  0.16500000000E+03 0.  0.
<mgrwt>
<rscale>  0 0.66529039E+03</rscale>
<asrwt>0</asrwt>
<pdfrwt beam="1">  1        2 0.66591049E-01 0.66529039E+03</pdfrwt>
<pdfrwt beam="2">  1       -2 0.33911779E-01 0.66529039E+03</pdfrwt>
<totfact> 0.59510961E+02</totfact>
</mgrwt>
</event>
<event>
 4    1  0.5387486E-005  0.5158629E+03  0.7818608E-02  0.1009719E+00
         -2   -1    0    0    0  501 -0.00000000000E+00  0.00000000000E+00  0.35519463480E+02  0.35519463572E+02  0.25500000000E-02 0. -1.
          2   -1    0    0  501    0  0.00000000000E+00 -0.00000000000E+00 -0.18730194176E+04  0.18730194176E+04  0.25500000000E-02 0.  1.
    5000001    1    1    2    0    0  0.35147486963E+02  0.18141572557E+03 -0.11844244411E+04  0.12100550681E+04  0.16500000000E+03 0.  0.
   -5000001    1    1    2    0    0 -0.35147486963E+02 -0.18141572557E+03 -0.65307551304E+03  0.69848381303E+03  0.16500000000E+03 0.  0.
<mgrwt>
<rscale>  0 0.51586295E+03</rscale>
<asrwt>0</asrwt>
<pdfrwt beam="1">  1        2 0.26757414E+00 0.51586295E+03</pdfrwt>
<pdfrwt beam="2">  1       -2 0.50742103E-02 0.51586295E+03</pdfrwt>
<totfact> 0.19303929E+03</totfact>
</mgrwt>
</event>
<event>
 4    1  0.5387486E-005  0.4669983E+03  0.7818608E-02  0.1022771E+00
         -2   -1    0    0    0  501 -0.00000000000E+00  0.00000000000E+00  0.15918992629E+03  0.15918992631E+03  0.25500000000E-02 0. -1.
          2   -1    0    0  501    0  0.00000000000E+00 -0.00000000000E+00 -0.34249562277E+03  0.34249562278E+03  0.25500000000E-02 0.  1.
    5000001    1    1    2    0    0  0.43282544560E+02 -0.42431665364E+01  0.79577171848E+02  0.18827880764E+03  0.16500000000E+03 0.  0.
   -5000001    1    1    2    0    0 -0.43282544560E+02  0.42431665364E+01 -0.26288286833E+03  0.31340674145E+03  0.16500000000E+03 0.  0.
<mgrwt>
<rscale>  0 0.46699830E+03</rscale>
<asrwt>0</asrwt>
<pdfrwt beam="1">  1        2 0.48927946E-01 0.46699830E+03</pdfrwt>
<pdfrwt beam="2">  1       -2 0.22741418E-01 0.46699830E+03</pdfrwt>
<totfact> 0.17382791E+03</totfact>
</mgrwt>
</event>
<event>
 4    1  0.5387486E-005  0.1354723E+04  0.7818608E-02  0.8987261E-01
          2   -1    0    0  501    0  0.00000000000E+00  0.00000000000E+00  0.40189186056E+04  0.40189186056E+04  0.25500000000E-02 0.  1.
         -2   -1    0    0    0  501 -0.00000000000E+00 -0.00000000000E+00 -0.11416465223E+03  0.11416465226E+03  0.25500000000E-02 0. -1.
    5000001    1    1    2    0    0 -0.54688553738E+03  0.35643834720E+03  0.21778393497E+04  0.22795484902E+04  0.16500000000E+03 0.  0.
   -5000001    1    1    2    0    0  0.54688553738E+03 -0.35643834720E+03  0.17269146037E+04  0.18535347676E+04  0.16500000000E+03 0.  0.
<mgrwt>
<rscale>  0 0.13547228E+04</rscale>
<asrwt>0</asrwt>
<pdfrwt beam="1">  1        2 0.57413118E+00 0.13547228E+04</pdfrwt>
<pdfrwt beam="2">  1       -2 0.16309237E-01 0.13547228E+04</pdfrwt>
<totfact> 0.16858797E+01</totfact>
</mgrwt>
</event>
<event>
 4    1  0.5387486E-005  0.7258210E+03  0.7818608E-02  0.9674066E-01
          2   -1    0    0  501    0  0.00000000000E+00  0.00000000000E+00  0.24196876566E+04  0.24196876566E+04  0.25500000000E-02 0.  1.
         -2   -1    0    0    0  501 -0.00000000000E+00 -0.00000000000E+00 -0.54430179329E+02  0.54430179389E+02  0.25500000000E-02 0. -1.
    5000001    1    1    2    0    0  0.12064285966E+03  0.24253525960E+03  0.17837718766E+04  0.18117519586E+04  0.16500000000E+03 0.  0.
   -5000001    1    1    2    0    0 -0.12064285966E+03 -0.24253525960E+03  0.58148560061E+03  0.66236587733E+03  0.16500000000E+03 0.  0.
<mgrwt>
<rscale>  0 0.72582101E+03</rscale>
<asrwt>0</asrwt>
<pdfrwt beam="1">  1        2 0.34566970E+00 0.72582101E+03</pdfrwt>
<pdfrwt beam="2">  1       -2 0.77757390E-02 0.72582101E+03</pdfrwt>
<totfact> 0.51647710E+02</totfact>
</mgrwt>
</event>
<event>
 4    1  0.5387486E-005  0.5491012E+03  0.7818608E-02  0.1001702E+00
         -2   -1    0    0    0  501 -0.00000000000E+00  0.00000000000E+00  0.10344755905E+03  0.10344755908E+03  0.25500000000E-02 0. -1.
          2   -1    0    0  501    0  0.00000000000E+00 -0.00000000000E+00 -0.72865936938E+03  0.72865936938E+03  0.25500000000E-02 0.  1.
    5000001    1    1    2    0    0 -0.66532401130E+01 -0.21637077269E+03 -0.25812620961E+03  0.37511960355E+03  0.16500000000E+03 0.  0.
   -5000001    1    1    2    0    0  0.66532401130E+01  0.21637077269E+03 -0.36708560072E+03  0.45698732491E+03  0.16500000000E+03 0.  0.
<mgrwt>
<rscale>  0 0.54910120E+03</rscale>
<asrwt>0</asrwt>
<pdfrwt beam="1">  1        2 0.10409419E+00 0.54910120E+03</pdfrwt>
<pdfrwt beam="2">  1       -2 0.14778223E-01 0.54910120E+03</pdfrwt>
<totfact> 0.15385262E+03</totfact>
</mgrwt>
</event>
<event>
 4    1  0.5387486E-005  0.1373649E+04  0.7818608E-02  0.8973116E-01
         -2   -1    0    0    0  501 -0.00000000000E+00  0.00000000000E+00  0.78234630175E+03  0.78234630175E+03  0.25500000000E-02 0. -1.
          2   -1    0    0  501    0  0.00000000000E+00 -0.00000000000E+00 -0.60296595623E+03  0.60296595624E+03  0.25500000000E-02 0.  1.
    5000001    1    1    2    0    0 -0.29489260729E+03 -0.50521949429E+03  0.41224128540E+03  0.73442240205E+03  0.16500000000E+03 0.  0.
   -5000001    1    1    2    0    0  0.29489260729E+03  0.50521949429E+03 -0.23286093988E+03  0.65088985594E+03  0.16500000000E+03 0.  0.
<mgrwt>
<rscale>  0 0.13736494E+04</rscale>
<asrwt>0</asrwt>
<pdfrwt beam="1">  1        2 0.86137993E-01 0.13736494E+04</pdfrwt>
<pdfrwt beam="2">  1       -2 0.11176376E+00 0.13736494E+04</pdfrwt>
<totfact> 0.33305259E+01</totfact>
</mgrwt>
</event>
<event>
 4    1  0.5387486E-005  0.7585379E+03  0.7818608E-02  0.9622050E-01
          2   -1    0    0  501    0  0.00000000000E+00  0.00000000000E+00  0.16557297689E+04  0.16557297689E+04  0.25500000000E-02 0.  1.
         -2   -1    0    0    0  501 -0.00000000000E+00 -0.00000000000E+00 -0.86877061024E+02  0.86877061062E+02  0.25500000000E-02 0. -1.
    5000001    1    1    2    0    0  0.18167252844E+03 -0.28846276572E+03  0.83061691825E+03  0.91288835006E+03  0.16500000000E+03 0.  0.
   -5000001    1    1    2    0    0 -0.18167252844E+03  0.28846276572E+03  0.73823578962E+03  0.82971847989E+03  0.16500000000E+03 0.  0.
<mgrwt>
<rscale>  0 0.75853790E+03</rscale>
<asrwt>0</asrwt>
<pdfrwt beam="1">  1        2 0.23653285E+00 0.75853790E+03</pdfrwt>
<pdfrwt beam="2">  1       -2 0.12411008E-01 0.75853790E+03</pdfrwt>
<totfact> 0.58929793E+02</totfact>
</mgrwt>
</event>
<event>
 4    1  0.5387486E-005  0.4296751E+03  0.7818608E-02  0.1033963E+00
         -2   -1    0    0    0  501 -0.00000000000E+00  0.00000000000E+00  0.46379237182E+03  0.46379237183E+03  0.25500000000E-02 0. -1.
          2   -1    0    0  501    0  0.00000000000E+00 -0.00000000000E+00 -0.99516907180E+02  0.99516907212E+02  0.25500000000E-02 0.  1.
    5000001    1    1    2    0    0 -0.15750800226E+02 -0.11898533184E+03  0.27032300753E+03  0.33868145107E+03  0.16500000000E+03 0.  0.
   -5000001    1    1    2    0    0  0.15750800226E+02  0.11898533184E+03  0.93952457117E+02  0.22462782797E+03  0.16500000000E+03 0.  0.
<mgrwt>
<rscale>  0 0.42967514E+03</rscale>
<asrwt>0</asrwt>
<pdfrwt beam="1">  1        2 0.14216701E-01 0.42967514E+03</pdfrwt>
<pdfrwt beam="2">  1       -2 0.66256054E-01 0.42967514E+03</pdfrwt>
<totfact> 0.89902747E+02</totfact>
</mgrwt>
</event>
<event>
 4    1  0.5387486E-005  0.6082244E+03  0.7818608E-02  0.9888488E-01
         -2   -1    0    0    0  501 -0.00000000000E+00  0.00000000000E+00  0.51020342930E+02  0.51020342994E+02  0.25500000000E-02 0. -1.
          2   -1    0    0  501    0  0.00000000000E+00 -0.00000000000E+00 -0.18126933039E+04  0.18126933039E+04  0.25500000000E-02 0.  1.
    5000001    1    1    2    0    0 -0.13123273633E+03 -0.21583878983E+03 -0.76412271764E+03  0.82153328714E+03  0.16500000000E+03 0.  0.
   -5000001    1    1    2    0    0  0.13123273633E+03  0.21583878983E+03 -0.99755024334E+03  0.10421803598E+04  0.16500000000E+03 0.  0.
<mgrwt>
<rscale>  0 0.60822441E+03</rscale>
<asrwt>0</asrwt>
<pdfrwt beam="1">  1        2 0.25895615E+00 0.60822441E+03</pdfrwt>
<pdfrwt beam="2">  1       -2 0.72886216E-02 0.60822441E+03</pdfrwt>
<totfact> 0.11696362E+03</totfact>
</mgrwt>
</event>
<event>
 4    1  0.5387486E-005  0.3900267E+03  0.7818608E-02  0.1047289E+00
         -2   -1    0    0    0  501 -0.00000000000E+00  0.00000000000E+00  0.30281439738E+02  0.30281439846E+02  0.25500000000E-02 0. -1.
          2   -1    0    0  501    0  0.00000000000E+00 -0.00000000000E+00 -0.12558914520E+04  0.12558914520E+04  0.25500000000E-02 0.  1.
    5000001    1    1    2    0    0 -0.35384771865E+02 -0.87265006413E+02 -0.46763564042E+03  0.50475276682E+03  0.16500000000E+03 0.  0.
   -5000001    1    1    2    0    0  0.35384771865E+02  0.87265006413E+02 -0.75797437180E+03  0.78142012499E+03  0.16500000000E+03 0.  0.
<mgrwt>
<rscale>  0 0.39002667E+03</rscale>
<asrwt>0</asrwt>
<pdfrwt beam="1">  1        2 0.17941303E+00 0.39002667E+03</pdfrwt>
<pdfrwt beam="2">  1       -2 0.43259208E-02 0.39002667E+03</pdfrwt>
<totfact> 0.51277690E+03</totfact>
</mgrwt>
</event>
<event>
 4    1  0.5387486E-005  0.5977876E+03  0.7818608E-02  0.9910007E-01
          2   -1    0    0  501    0  0.00000000000E+00  0.00000000000E+00  0.21595575097E+03  0.21595575099E+03  0.25500000000E-02 0.  1.
         -2   -1    0    0    0  501 -0.00000000000E+00 -0.00000000000E+00 -0.41368428410E+03  0.41368428411E+03  0.25500000000E-02 0. -1.
    5000001    1    1    2    0    0 -0.10279993225E+03  0.21518727556E+03 -0.17510274575E+03  0.33876151081E+03  0.16500000000E+03 0.  0.
   -5000001    1    1    2    0    0  0.10279993225E+03 -0.21518727556E+03 -0.22625787370E+02  0.29087852428E+03  0.16500000000E+03 0.  0.
<mgrwt>
<rscale>  0 0.59778759E+03</rscale>
<asrwt>0</asrwt>
<pdfrwt beam="1">  1        2 0.30850822E-01 0.59778759E+03</pdfrwt>
<pdfrwt beam="2">  1       -2 0.59097755E-01 0.59778759E+03</pdfrwt>
<totfact> 0.46505657E+02</totfact>
</mgrwt>
</event>
<event>
 4    1  0.5387486E-005  0.4957153E+03  0.7818608E-02  0.1014903E+00
          2   -1    0    0  501    0  0.00000000000E+00  0.00000000000E+00  0.17086127572E+04  0.17086127572E+04  0.25500000000E-02 0. -1.
         -2   -1    0    0    0  501 -0.00000000000E+00 -0.00000000000E+00 -0.35955148809E+02  0.35955148899E+02  0.25500000000E-02 0.  1.
    5000001    1    1    2    0    0 -0.71491941893E+02  0.17005553360E+03  0.78931707804E+03  0.82721002893E+03  0.16500000000E+03 0.  0.
   -5000001    1    1    2    0    0  0.71491941893E+02 -0.17005553360E+03  0.88334053036E+03  0.91735787719E+03  0.16500000000E+03 0.  0.
<mgrwt>
<rscale>  0 0.49571535E+03</rscale>
<asrwt>0</asrwt>
<pdfrwt beam="1">  1        2 0.24408760E+00 0.49571535E+03</pdfrwt>
<pdfrwt beam="2">  1       -2 0.51364485E-02 0.49571535E+03</pdfrwt>
<totfact> 0.22926550E+03</totfact>
</mgrwt>
</event>
<event>
 4    1  0.5387486E-005  0.3837601E+03  0.7818608E-02  0.1049553E+00
          2   -1    0    0  501    0  0.00000000000E+00  0.00000000000E+00  0.10361407123E+03  0.10361407126E+03  0.25500000000E-02 0.  1.
         -2   -1    0    0    0  501 -0.00000000000E+00 -0.00000000000E+00 -0.35533736006E+03  0.35533736007E+03  0.25500000000E-02 0. -1.
    5000001    1    1    2    0    0  0.49800526938E+02  0.61819845563E+02 -0.19447074718E+03  0.26710607874E+03  0.16500000000E+03 0.  0.
   -5000001    1    1    2    0    0 -0.49800526938E+02 -0.61819845563E+02 -0.57252541653E+02  0.19184535260E+03  0.16500000000E+03 0.  0.
<mgrwt>
<rscale>  0 0.38376008E+03</rscale>
<asrwt>0</asrwt>
<pdfrwt beam="1">  1        2 0.14802010E-01 0.38376008E+03</pdfrwt>
<pdfrwt beam="2">  1       -2 0.50762479E-01 0.38376008E+03</pdfrwt>
<totfact> 0.14862132E+03</totfact>
</mgrwt>
</event>
<event>
 4    1  0.5387486E-005  0.5112412E+03  0.7818608E-02  0.1010886E+00
         -2   -1    0    0    0  501 -0.00000000000E+00  0.00000000000E+00  0.67919457332E+02  0.67919457380E+02  0.25500000000E-02 0. -1.
          2   -1    0    0  501    0  0.00000000000E+00 -0.00000000000E+00 -0.96204968772E+03  0.96204968772E+03  0.25500000000E-02 0.  1.
    5000001    1    1    2    0    0 -0.67072548187E+02 -0.12189411382E+03 -0.17112510430E+03  0.27543729419E+03  0.16500000000E+03 0.  0.
   -5000001    1    1    2    0    0  0.67072548187E+02  0.12189411382E+03 -0.72300512608E+03  0.75453185092E+03  0.16500000000E+03 0.  0.
<mgrwt>
<rscale>  0 0.51124121E+03</rscale>
<asrwt>0</asrwt>
<pdfrwt beam="1">  1        2 0.13743566E+00 0.51124121E+03</pdfrwt>
<pdfrwt beam="2">  1       -2 0.97027802E-02 0.51124121E+03</pdfrwt>
<totfact> 0.21422151E+03</totfact>
</mgrwt>
</event>
<event>
 4    1  0.5387486E-005  0.5599978E+03  0.7818608E-02  0.9992060E-01
         -2   -1    0    0    0  501 -0.00000000000E+00  0.00000000000E+00  0.26324539997E+03  0.26324539998E+03  0.25500000000E-02 0. -1.
          2   -1    0    0  501    0  0.00000000000E+00 -0.00000000000E+00 -0.29781859275E+03  0.29781859276E+03  0.25500000000E-02 0.  1.
    5000001    1    1    2    0    0 -0.21548968200E+03 -0.66258117392E+02  0.14153150747E+01  0.27937957027E+03  0.16500000000E+03 0.  0.
   -5000001    1    1    2    0    0  0.21548968200E+03  0.66258117392E+02 -0.35988507856E+02  0.28168442248E+03  0.16500000000E+03 0.  0.
<mgrwt>
<rscale>  0 0.55999777E+03</rscale>
<asrwt>0</asrwt>
<pdfrwt beam="1">  1        2 0.42545513E-01 0.55999777E+03</pdfrwt>
<pdfrwt beam="2">  1       -2 0.37606486E-01 0.55999777E+03</pdfrwt>
<totfact> 0.80530337E+02</totfact>
</mgrwt>
</event>
<event>
 4    1  0.5387486E-005  0.6349660E+03  0.7818608E-02  0.9835406E-01
         -2   -1    0    0    0  501 -0.00000000000E+00  0.00000000000E+00  0.69399928697E+02  0.69399928744E+02  0.25500000000E-02 0. -1.
          2   -1    0    0  501    0  0.00000000000E+00 -0.00000000000E+00 -0.14523857676E+04  0.14523857677E+04  0.25500000000E-02 0.  1.
    5000001    1    1    2    0    0 -0.18206380339E+03 -0.18420159164E+03 -0.49837340383E+03  0.58538748237E+03  0.16500000000E+03 0.  0.
   -5000001    1    1    2    0    0  0.18206380339E+03  0.18420159164E+03 -0.88461243512E+03  0.93639821403E+03  0.16500000000E+03 0.  0.
<mgrwt>
<rscale>  0 0.63496604E+03</rscale>
<asrwt>0</asrwt>
<pdfrwt beam="1">  1        2 0.20748366E+00 0.63496604E+03</pdfrwt>
<pdfrwt beam="2">  1       -2 0.99142765E-02 0.63496604E+03</pdfrwt>
<totfact> 0.10927860E+03</totfact>
</mgrwt>
</event>
<event>
 4    1  0.5387486E-005  0.1124737E+04  0.7818608E-02  0.9181412E-01
         -2   -1    0    0    0  501 -0.00000000000E+00  0.00000000000E+00  0.22244941011E+03  0.22244941012E+03  0.25500000000E-02 0. -1.
          2   -1    0    0  501    0  0.00000000000E+00 -0.00000000000E+00 -0.14217077811E+04  0.14217077811E+04  0.25500000000E-02 0.  1.
    5000001    1    1    2    0    0 -0.17926793019E+03 -0.40402133118E+03 -0.15224958215E+03  0.49575716042E+03  0.16500000000E+03 0.  0.
   -5000001    1    1    2    0    0  0.17926793019E+03  0.40402133118E+03 -0.10470087889E+04  0.11484000308E+04  0.16500000000E+03 0.  0.
<mgrwt>
<rscale>  0 0.11247365E+04</rscale>
<asrwt>0</asrwt>
<pdfrwt beam="1">  1        2 0.20310111E+00 0.11247365E+04</pdfrwt>
<pdfrwt beam="2">  1       -2 0.31778488E-01 0.11247365E+04</pdfrwt>
<totfact> 0.14670498E+02</totfact>
</mgrwt>
</event>
<event>
 4    1  0.5387486E-005  0.1187460E+04  0.7818608E-02  0.9123904E-01
         -2   -1    0    0    0  501 -0.00000000000E+00  0.00000000000E+00  0.11980296959E+03  0.11980296962E+03  0.25500000000E-02 0. -1.
          2   -1    0    0  501    0  0.00000000000E+00 -0.00000000000E+00 -0.29424569097E+04  0.29424569097E+04  0.25500000000E-02 0.  1.
    5000001    1    1    2    0    0 -0.60893962765E+02 -0.56634595294E+03 -0.14858129598E+04  0.15997877874E+04  0.16500000000E+03 0.  0.
   -5000001    1    1    2    0    0  0.60893962765E+02  0.56634595294E+03 -0.13368409804E+04  0.14624720920E+04  0.16500000000E+03 0.  0.
<mgrwt>
<rscale>  0 0.11874596E+04</rscale>
<asrwt>0</asrwt>
<pdfrwt beam="1">  1        2 0.42035094E+00 0.11874596E+04</pdfrwt>
<pdfrwt beam="2">  1       -2 0.17114712E-01 0.11874596E+04</pdfrwt>
<totfact> 0.71099800E+01</totfact>
</mgrwt>
</event>
<event>
 4    1  0.5387486E-005  0.4659732E+03  0.7818608E-02  0.1023063E+00
         -2   -1    0    0    0  501 -0.00000000000E+00  0.00000000000E+00  0.17836401729E+03  0.17836401731E+03  0.25500000000E-02 0. -1.
          2   -1    0    0  501    0  0.00000000000E+00 -0.00000000000E+00 -0.30433686375E+03  0.30433686376E+03  0.25500000000E-02 0.  1.
    5000001    1    1    2    0    0 -0.40612005015E+02  0.15876042256E+03 -0.48207563892E+02  0.23749352821E+03  0.16500000000E+03 0.  0.
   -5000001    1    1    2    0    0  0.40612005015E+02 -0.15876042256E+03 -0.77765282574E+02  0.24520735286E+03  0.16500000000E+03 0.  0.
<mgrwt>
<rscale>  0 0.46597316E+03</rscale>
<asrwt>0</asrwt>
<pdfrwt beam="1">  1        2 0.43476694E-01 0.46597316E+03</pdfrwt>
<pdfrwt beam="2">  1       -2 0.25480574E-01 0.46597316E+03</pdfrwt>
<totfact> 0.16164784E+03</totfact>
</mgrwt>
</event>
<event>
 4    1  0.5387486E-005  0.9874467E+03  0.7818608E-02  0.9322421E-01
          2   -1    0    0  501    0  0.00000000000E+00  0.00000000000E+00  0.26240411153E+04  0.26240411153E+04  0.25500000000E-02 0.  1.
         -2   -1    0    0    0  501 -0.00000000000E+00 -0.00000000000E+00 -0.92895935272E+02  0.92895935307E+02  0.25500000000E-02 0. -1.
    5000001    1    1    2    0    0 -0.53464328519E+02 -0.34050627162E+03  0.21257549207E+04  0.21598291456E+04  0.16500000000E+03 0.  0.
   -5000001    1    1    2    0    0  0.53464328519E+02  0.34050627162E+03  0.40539025934E+03  0.55710790499E+03  0.16500000000E+03 0.  0.
<mgrwt>
<rscale>  0 0.98744671E+03</rscale>
<asrwt>0</asrwt>
<pdfrwt beam="1">  1        2 0.37486299E+00 0.98744671E+03</pdfrwt>
<pdfrwt beam="2">  1       -2 0.13270849E-01 0.98744671E+03</pdfrwt>
<totfact> 0.16532983E+02</totfact>
</mgrwt>
</event>
<event>
 4    1  0.5387486E-005  0.5832875E+03  0.7818608E-02  0.9940699E-01
          2   -1    0    0  501    0  0.00000000000E+00  0.00000000000E+00  0.66023338054E+03  0.66023338054E+03  0.25500000000E-02 0.  1.
         -2   -1    0    0    0  501 -0.00000000000E+00 -0.00000000000E+00 -0.12882727728E+03  0.12882727730E+03  0.25500000000E-02 0. -1.
    5000001    1    1    2    0    0  0.20381055895E+03 -0.11577537899E+03  0.19299953925E+03  0.34556693197E+03  0.16500000000E+03 0.  0.
   -5000001    1    1    2    0    0 -0.20381055895E+03  0.11577537899E+03  0.33840656401E+03  0.44349372587E+03  0.16500000000E+03 0.  0.
<mgrwt>
<rscale>  0 0.58328747E+03</rscale>
<asrwt>0</asrwt>
<pdfrwt beam="1">  1        2 0.94319054E-01 0.58328747E+03</pdfrwt>
<pdfrwt beam="2">  1       -2 0.18403897E-01 0.58328747E+03</pdfrwt>
<totfact> 0.11947093E+03</totfact>
</mgrwt>
</event>
<event>
 4    1  0.5387486E-005  0.1059929E+04  0.7818608E-02  0.9245153E-01
          2   -1    0    0  501    0  0.00000000000E+00  0.00000000000E+00  0.13164739406E+04  0.13164739406E+04  0.25500000000E-02 0.  1.
         -2   -1    0    0    0  501 -0.00000000000E+00 -0.00000000000E+00 -0.21334436267E+03  0.21334436268E+03  0.25500000000E-02 0. -1.
    5000001    1    1    2    0    0 -0.32899666607E+03  0.50086995257E+00  0.12100535806E+01  0.36805641060E+03  0.16500000000E+03 0.  0.
   -5000001    1    1    2    0    0  0.32899666607E+03 -0.50086995257E+00  0.11019195243E+04  0.11617618926E+04  0.16500000000E+03 0.  0.
<mgrwt>
<rscale>  0 0.10599289E+04</rscale>
<asrwt>0</asrwt>
<pdfrwt beam="1">  1        2 0.18806770E+00 0.10599289E+04</pdfrwt>
<pdfrwt beam="2">  1       -2 0.30477767E-01 0.10599289E+04</pdfrwt>
<totfact> 0.18172291E+02</totfact>
</mgrwt>
</event>
<event>
 4    1  0.5387486E-005  0.6020538E+03  0.7818608E-02  0.9901154E-01
          2   -1    0    0  501    0  0.00000000000E+00  0.00000000000E+00  0.28125260503E+03  0.28125260505E+03  0.25500000000E-02 0.  1.
         -2   -1    0    0    0  501 -0.00000000000E+00 -0.00000000000E+00 -0.32219149936E+03  0.32219149937E+03  0.25500000000E-02 0. -1.
    5000001    1    1    2    0    0 -0.31842252309E+02  0.21641545700E+03 -0.14542738348E+03  0.31019945668E+03  0.16500000000E+03 0.  0.
   -5000001    1    1    2    0    0  0.31842252309E+02 -0.21641545700E+03  0.10448848916E+03  0.29324464773E+03  0.16500000000E+03 0.  0.
<mgrwt>
<rscale>  0 0.60205381E+03</rscale>
<asrwt>0</asrwt>
<pdfrwt beam="1">  1        2 0.40178943E-01 0.60205381E+03</pdfrwt>
<pdfrwt beam="2">  1       -2 0.46027357E-01 0.60205381E+03</pdfrwt>
<totfact> 0.57764800E+02</totfact>
</mgrwt>
</event>
<event>
 4    1  0.5387486E-005  0.7664493E+03  0.7818608E-02  0.9609892E-01
          2   -1    0    0  501    0  0.00000000000E+00  0.00000000000E+00  0.10290972830E+04  0.10290972830E+04  0.25500000000E-02 0.  1.
         -2   -1    0    0    0  501 -0.00000000000E+00 -0.00000000000E+00 -0.14270870990E+03  0.14270870992E+03  0.25500000000E-02 0. -1.
    5000001    1    1    2    0    0  0.21794050463E+03  0.19874166388E+03  0.16697994257E+03  0.37696632971E+03  0.16500000000E+03 0.  0.
   -5000001    1    1    2    0    0 -0.21794050463E+03 -0.19874166388E+03  0.71940863053E+03  0.79483966320E+03  0.16500000000E+03 0.  0.
<mgrwt>
<rscale>  0 0.76644933E+03</rscale>
<asrwt>0</asrwt>
<pdfrwt beam="1">  1        2 0.14701390E+00 0.76644933E+03</pdfrwt>
<pdfrwt beam="2">  1       -2 0.20386958E-01 0.76644933E+03</pdfrwt>
<totfact> 0.55794831E+02</totfact>
</mgrwt>
</event>
<event>
 4    1  0.5387486E-005  0.8290741E+03  0.7818608E-02  0.9518861E-01
          2   -1    0    0  501    0  0.00000000000E+00  0.00000000000E+00  0.62428386803E+03  0.62428386804E+03  0.25500000000E-02 0. -1.
         -2   -1    0    0    0  501 -0.00000000000E+00 -0.00000000000E+00 -0.27526094520E+03  0.27526094521E+03  0.25500000000E-02 0.  1.
    5000001    1    1    2    0    0  0.77328184018E+02  0.28820449674E+03 -0.81268894307E+02  0.35052976074E+03  0.16500000000E+03 0.  0.
   -5000001    1    1    2    0    0 -0.77328184018E+02 -0.28820449674E+03  0.43029181714E+03  0.54901505251E+03  0.16500000000E+03 0.  0.
<mgrwt>
<rscale>  0 0.82907410E+03</rscale>
<asrwt>0</asrwt>
<pdfrwt beam="1">  1        2 0.89183410E-01 0.82907410E+03</pdfrwt>
<pdfrwt beam="2">  1       -2 0.39322992E-01 0.82907410E+03</pdfrwt>
<totfact> 0.31765595E+02</totfact>
</mgrwt>
</event>
<event>
 4    1  0.5387486E-005  0.3677165E+03  0.7818608E-02  0.1055570E+00
         -2   -1    0    0    0  501 -0.00000000000E+00  0.00000000000E+00  0.19747989325E+03  0.19747989327E+03  0.25500000000E-02 0. -1.
          2   -1    0    0  501    0  0.00000000000E+00 -0.00000000000E+00 -0.17117616585E+03  0.17117616587E+03  0.25500000000E-02 0.  1.
    5000001    1    1    2    0    0 -0.68866773331E+02 -0.90828218306E+01 -0.28832591628E+02  0.18133242529E+03  0.16500000000E+03 0.  0.
   -5000001    1    1    2    0    0  0.68866773331E+02  0.90828218306E+01  0.55136319028E+02  0.18732363385E+03  0.16500000000E+03 0.  0.
<mgrwt>
<rscale>  0 0.36771647E+03</rscale>
<asrwt>0</asrwt>
<pdfrwt beam="1">  1        2 0.24453738E-01 0.36771647E+03</pdfrwt>
<pdfrwt beam="2">  1       -2 0.28211413E-01 0.36771647E+03</pdfrwt>
<totfact> 0.25379755E+03</totfact>
</mgrwt>
</event>
<event>
 4    1  0.5387486E-005  0.7381410E+03  0.7818608E-02  0.9654141E-01
         -2   -1    0    0    0  501 -0.00000000000E+00  0.00000000000E+00  0.36070304983E+02  0.36070305073E+02  0.25500000000E-02 0.  1.
          2   -1    0    0  501    0  0.00000000000E+00 -0.00000000000E+00 -0.37763204606E+04  0.37763204606E+04  0.25500000000E-02 0. -1.
    5000001    1    1    2    0    0  0.45563066852E+02  0.25474230941E+03 -0.29288370096E+04  0.29448736587E+04  0.16500000000E+03 0.  0.
   -5000001    1    1    2    0    0 -0.45563066852E+02 -0.25474230941E+03 -0.81141314611E+03  0.86751710700E+03  0.16500000000E+03 0.  0.
<mgrwt>
<rscale>  0 0.73814099E+03</rscale>
<asrwt>0</asrwt>
<pdfrwt beam="1">  1        2 0.53947410E+00 0.73814099E+03</pdfrwt>
<pdfrwt beam="2">  1       -2 0.51529031E-02 0.73814099E+03</pdfrwt>
<totfact> 0.17090461E+02</totfact>
</mgrwt>
</event>
<event>
 4    1  0.5387486E-005  0.7429372E+03  0.7818608E-02  0.9646496E-01
         -2   -1    0    0    0  501 -0.00000000000E+00  0.00000000000E+00  0.10421639407E+03  0.10421639410E+03  0.25500000000E-02 0. -1.
          2   -1    0    0  501    0  0.00000000000E+00 -0.00000000000E+00 -0.13240615918E+04  0.13240615918E+04  0.25500000000E-02 0.  1.
    5000001    1    1    2    0    0  0.24068787107E+03  0.22740748435E+03 -0.67423532349E+03  0.76906637337E+03  0.16500000000E+03 0.  0.
   -5000001    1    1    2    0    0 -0.24068787107E+03 -0.22740748435E+03 -0.54560987420E+03  0.65921161249E+03  0.16500000000E+03 0.  0.
<mgrwt>
<rscale>  0 0.74293721E+03</rscale>
<asrwt>0</asrwt>
<pdfrwt beam="1">  1        2 0.18915165E+00 0.74293721E+03</pdfrwt>
<pdfrwt beam="2">  1       -2 0.14888057E-01 0.74293721E+03</pdfrwt>
<totfact> 0.65056896E+02</totfact>
</mgrwt>
</event>
<event>
 4    1  0.5387486E-005  0.5734964E+03  0.7818608E-02  0.9961971E-01
          2   -1    0    0  501    0  0.00000000000E+00  0.00000000000E+00  0.36147715734E+03  0.36147715735E+03  0.25500000000E-02 0.  1.
         -2   -1    0    0    0  501 -0.00000000000E+00 -0.00000000000E+00 -0.22746810638E+03  0.22746810639E+03  0.25500000000E-02 0. -1.
    5000001    1    1    2    0    0  0.11156858265E+03 -0.20578534903E+03  0.81685285826E+02  0.29781310319E+03  0.16500000000E+03 0.  0.
   -5000001    1    1    2    0    0 -0.11156858265E+03  0.20578534903E+03  0.52323765137E+02  0.29113216055E+03  0.16500000000E+03 0.  0.
<mgrwt>
<rscale>  0 0.57349638E+03</rscale>
<asrwt>0</asrwt>
<pdfrwt beam="1">  1        2 0.51639593E-01 0.57349638E+03</pdfrwt>
<pdfrwt beam="2">  1       -2 0.32495444E-01 0.57349638E+03</pdfrwt>
<totfact> 0.85754723E+02</totfact>
</mgrwt>
</event>
<event>
 4    1  0.5387486E-005  0.5748520E+03  0.7818608E-02  0.9958999E-01
         -2   -1    0    0    0  501 -0.00000000000E+00  0.00000000000E+00  0.32187296927E+03  0.32187296928E+03  0.25500000000E-02 0. -1.
          2   -1    0    0  501    0  0.00000000000E+00 -0.00000000000E+00 -0.25666558943E+03  0.25666558944E+03  0.25500000000E-02 0.  1.
    5000001    1    1    2    0    0 -0.18427716871E+03  0.11283231026E+03  0.12647300270E+03  0.29984933810E+03  0.16500000000E+03 0.  0.
   -5000001    1    1    2    0    0  0.18427716871E+03 -0.11283231026E+03 -0.61265622862E+02  0.27868922062E+03  0.16500000000E+03 0.  0.
<mgrwt>
<rscale>  0 0.57485203E+03</rscale>
<asrwt>0</asrwt>
<pdfrwt beam="1">  1        2 0.36666513E-01 0.57485203E+03</pdfrwt>
<pdfrwt beam="2">  1       -2 0.45981853E-01 0.57485203E+03</pdfrwt>
<totfact> 0.64072243E+02</totfact>
</mgrwt>
</event>
<event>
 4    1  0.5387486E-005  0.5814761E+03  0.7818608E-02  0.9944600E-01
         -2   -1    0    0    0  501 -0.00000000000E+00  0.00000000000E+00  0.11811682592E+03  0.11811682595E+03  0.25500000000E-02 0. -1.
          2   -1    0    0  501    0  0.00000000000E+00 -0.00000000000E+00 -0.71563573973E+03  0.71563573974E+03  0.25500000000E-02 0.  1.
    5000001    1    1    2    0    0 -0.19950466051E+03  0.12213703835E+03 -0.22587141426E+03  0.36464018084E+03  0.16500000000E+03 0.  0.
   -5000001    1    1    2    0    0  0.19950466051E+03 -0.12213703835E+03 -0.37164749955E+03  0.46911238485E+03  0.16500000000E+03 0.  0.
<mgrwt>
<rscale>  0 0.58147613E+03</rscale>
<asrwt>0</asrwt>
<pdfrwt beam="1">  1        2 0.10223367E+00 0.58147613E+03</pdfrwt>
<pdfrwt beam="2">  1       -2 0.16873833E-01 0.58147613E+03</pdfrwt>
<totfact> 0.12568176E+03</totfact>
</mgrwt>
</event>
<event>
 4    1  0.5387486E-005  0.4570426E+03  0.7818608E-02  0.1025642E+00
          2   -1    0    0  501    0  0.00000000000E+00  0.00000000000E+00  0.11183814539E+03  0.11183814542E+03  0.25500000000E-02 0.  1.
         -2   -1    0    0    0  501 -0.00000000000E+00 -0.00000000000E+00 -0.46694245166E+03  0.46694245167E+03  0.25500000000E-02 0. -1.
    5000001    1    1    2    0    0  0.10040103623E+03  0.11258452763E+03 -0.23750510718E+03  0.32617375719E+03  0.16500000000E+03 0.  0.
   -5000001    1    1    2    0    0 -0.10040103623E+03 -0.11258452763E+03 -0.11759919909E+03  0.25260683990E+03  0.16500000000E+03 0.  0.
<mgrwt>
<rscale>  0 0.45704257E+03</rscale>
<asrwt>0</asrwt>
<pdfrwt beam="1">  1        2 0.15976878E-01 0.45704257E+03</pdfrwt>
<pdfrwt beam="2">  1       -2 0.66706063E-01 0.45704257E+03</pdfrwt>
<totfact> 0.77031914E+02</totfact>
</mgrwt>
</event>
<event>
 4    1  0.5387486E-005  0.6049327E+03  0.7818608E-02  0.9895225E-01
          2   -1    0    0  501    0  0.00000000000E+00  0.00000000000E+00  0.87532315152E+03  0.87532315153E+03  0.25500000000E-02 0.  1.
         -2   -1    0    0    0  501 -0.00000000000E+00 -0.00000000000E+00 -0.10451671510E+03  0.10451671513E+03  0.25500000000E-02 0. -1.
    5000001    1    1    2    0    0  0.18161333969E+03  0.93434643922E+02  0.14218457342E+03  0.29858816245E+03  0.16500000000E+03 0.  0.
   -5000001    1    1    2    0    0 -0.18161333969E+03 -0.93434643922E+02  0.62862186301E+03  0.68125170421E+03  0.16500000000E+03 0.  0.
<mgrwt>
<rscale>  0 0.60493273E+03</rscale>
<asrwt>0</asrwt>
<pdfrwt beam="1">  1        2 0.12504617E+00 0.60493273E+03</pdfrwt>
<pdfrwt beam="2">  1       -2 0.14930959E-01 0.60493273E+03</pdfrwt>
<totfact> 0.11958047E+03</totfact>
</mgrwt>
</event>
<event>
 4    1  0.5387486E-005  0.4371463E+03  0.7818608E-02  0.1031626E+00
          2   -1    0    0  501    0  0.00000000000E+00  0.00000000000E+00  0.44671932767E+03  0.44671932768E+03  0.25500000000E-02 0.  1.
         -2   -1    0    0    0  501 -0.00000000000E+00 -0.00000000000E+00 -0.10694462223E+03  0.10694462226E+03  0.25500000000E-02 0. -1.
    5000001    1    1    2    0    0  0.11515410019E+03 -0.29990779451E+02  0.27112606016E+03  0.33896054954E+03  0.16500000000E+03 0.  0.
   -5000001    1    1    2    0    0 -0.11515410019E+03  0.29990779451E+02  0.68648645285E+02  0.21470340040E+03  0.16500000000E+03 0.  0.
<mgrwt>
<rscale>  0 0.43714634E+03</rscale>
<asrwt>0</asrwt>
<pdfrwt beam="1">  1        2 0.63817046E-01 0.43714634E+03</pdfrwt>
<pdfrwt beam="2">  1       -2 0.15277803E-01 0.43714634E+03</pdfrwt>
<totfact> 0.25659982E+03</totfact>
</mgrwt>
</event>
<event>
 4    1  0.5387486E-005  0.4116103E+03  0.7818608E-02  0.1039832E+00
          2   -1    0    0  501    0  0.00000000000E+00  0.00000000000E+00  0.10157276094E+04  0.10157276094E+04  0.25500000000E-02 0.  1.
         -2   -1    0    0    0  501 -0.00000000000E+00 -0.00000000000E+00 -0.41699920167E+02  0.41699920245E+02  0.25500000000E-02 0. -1.
    5000001    1    1    2    0    0  0.87092865826E+02 -0.75891932289E+02  0.37844479704E+03  0.42870761256E+03  0.16500000000E+03 0.  0.
   -5000001    1    1    2    0    0 -0.87092865826E+02  0.75891932289E+02  0.59558289220E+03  0.62871991709E+03  0.16500000000E+03 0.  0.
<mgrwt>
<rscale>  0 0.41161030E+03</rscale>
<asrwt>0</asrwt>
<pdfrwt beam="1">  1        2 0.14510393E+00 0.41161030E+03</pdfrwt>
<pdfrwt beam="2">  1       -2 0.59571322E-02 0.41161030E+03</pdfrwt>
<totfact> 0.42900691E+03</totfact>
</mgrwt>
</event>
<event>
 4    1  0.5387486E-005  0.4007094E+03  0.7818608E-02  0.1043534E+00
         -2   -1    0    0    0  501 -0.00000000000E+00  0.00000000000E+00  0.25297455724E+02  0.25297455853E+02  0.25500000000E-02 0. -1.
          2   -1    0    0  501    0  0.00000000000E+00 -0.00000000000E+00 -0.15868002230E+04  0.15868002230E+04  0.25500000000E-02 0.  1.
    5000001    1    1    2    0    0 -0.10305322448E+03 -0.40960160779E+02 -0.88086996269E+03  0.90302524495E+03  0.16500000000E+03 0.  0.
   -5000001    1    1    2    0    0  0.10305322448E+03  0.40960160779E+02 -0.68063280460E+03  0.70907243391E+03  0.16500000000E+03 0.  0.
<mgrwt>
<rscale>  0 0.40070941E+03</rscale>
<asrwt>0</asrwt>
<pdfrwt beam="1">  1        2 0.22668568E+00 0.40070941E+03</pdfrwt>
<pdfrwt beam="2">  1       -2 0.36139233E-02 0.40070941E+03</pdfrwt>
<totfact> 0.45300264E+03</totfact>
</mgrwt>
</event>
<event>
 4    1  0.5387486E-005  0.6297043E+03  0.7818608E-02  0.9845626E-01
          2   -1    0    0  501    0  0.00000000000E+00  0.00000000000E+00  0.18174107412E+04  0.18174107412E+04  0.25500000000E-02 0.  1.
         -2   -1    0    0    0  501 -0.00000000000E+00 -0.00000000000E+00 -0.54545660122E+02  0.54545660181E+02  0.25500000000E-02 0. -1.
    5000001    1    1    2    0    0 -0.13317999918E+03  0.67652656156E+02  0.15434502456E+04  0.15594157415E+04  0.16500000000E+03 0.  0.
   -5000001    1    1    2    0    0  0.13317999918E+03 -0.67652656156E+02  0.21941483542E+03  0.31254065986E+03  0.16500000000E+03 0.  0.
<mgrwt>
<rscale>  0 0.62970428E+03</rscale>
<asrwt>0</asrwt>
<pdfrwt beam="1">  1        2 0.25963000E+00 0.62970428E+03</pdfrwt>
<pdfrwt beam="2">  1       -2 0.77922402E-02 0.62970428E+03</pdfrwt>
<totfact> 0.10449921E+03</totfact>
</mgrwt>
</event>
<event>
 4    1  0.5387486E-005  0.6180176E+03  0.7818608E-02  0.9868715E-01
          2   -1    0    0  501    0  0.00000000000E+00  0.00000000000E+00  0.20011454643E+03  0.20011454644E+03  0.25500000000E-02 0.  1.
         -2   -1    0    0    0  501 -0.00000000000E+00 -0.00000000000E+00 -0.47715887502E+03  0.47715887502E+03  0.25500000000E-02 0. -1.
    5000001    1    1    2    0    0  0.18090139551E+01 -0.13858919076E+03 -0.38123235030E+03  0.43791933189E+03  0.16500000000E+03 0.  0.
   -5000001    1    1    2    0    0 -0.18090139551E+01  0.13858919076E+03  0.10418802171E+03  0.23935408957E+03  0.16500000000E+03 0.  0.
<mgrwt>
<rscale>  0 0.61801758E+03</rscale>
<asrwt>0</asrwt>
<pdfrwt beam="1">  1        2 0.28587793E-01 0.61801758E+03</pdfrwt>
<pdfrwt beam="2">  1       -2 0.68165553E-01 0.61801758E+03</pdfrwt>
<totfact> 0.37378485E+02</totfact>
</mgrwt>
</event>
<event>
 4    1  0.5387486E-005  0.4399388E+03  0.7818608E-02  0.1030766E+00
         -2   -1    0    0    0  501 -0.00000000000E+00  0.00000000000E+00  0.14581192119E+03  0.14581192121E+03  0.25500000000E-02 0. -1.
          2   -1    0    0  501    0  0.00000000000E+00 -0.00000000000E+00 -0.33184216118E+03  0.33184216119E+03  0.25500000000E-02 0.  1.
    5000001    1    1    2    0    0 -0.13628452044E+03 -0.44277591739E+02 -0.65816216593E+02  0.22823398084E+03  0.16500000000E+03 0.  0.
   -5000001    1    1    2    0    0  0.13628452044E+03  0.44277591739E+02 -0.12021402340E+03  0.24942010156E+03  0.16500000000E+03 0.  0.
<mgrwt>
<rscale>  0 0.43993883E+03</rscale>
<asrwt>0</asrwt>
<pdfrwt beam="1">  1        2 0.47406023E-01 0.43993883E+03</pdfrwt>
<pdfrwt beam="2">  1       -2 0.20830275E-01 0.43993883E+03</pdfrwt>
<totfact> 0.20971803E+03</totfact>
</mgrwt>
</event>
<event>
 4    1  0.5387486E-005  0.5832494E+03  0.7818608E-02  0.9940781E-01
          2   -1    0    0  501    0  0.00000000000E+00  0.00000000000E+00  0.10137254114E+04  0.10137254114E+04  0.25500000000E-02 0.  1.
         -2   -1    0    0    0  501 -0.00000000000E+00 -0.00000000000E+00 -0.83893485458E+02  0.83893485497E+02  0.25500000000E-02 0. -1.
    5000001    1    1    2    0    0 -0.14316251930E+03  0.15680919149E+03  0.25254146177E+03  0.36889947056E+03  0.16500000000E+03 0.  0.
   -5000001    1    1    2    0    0  0.14316251930E+03 -0.15680919149E+03  0.67729046421E+03  0.72871942637E+03  0.16500000000E+03 0.  0.
<mgrwt>
<rscale>  0 0.58324937E+03</rscale>
<asrwt>0</asrwt>
<pdfrwt beam="1">  1        2 0.14481792E+00 0.58324937E+03</pdfrwt>
<pdfrwt beam="2">  1       -2 0.11984783E-01 0.58324937E+03</pdfrwt>
<totfact> 0.14112421E+03</totfact>
</mgrwt>
</event>
<event>
 4    1  0.5387486E-005  0.3819526E+03  0.7818608E-02  0.1050214E+00
         -2   -1    0    0    0  501 -0.00000000000E+00  0.00000000000E+00  0.47226634477E+02  0.47226634546E+02  0.25500000000E-02 0. -1.
          2   -1    0    0  501    0  0.00000000000E+00 -0.00000000000E+00 -0.77227491785E+03  0.77227491786E+03  0.25500000000E-02 0.  1.
    5000001    1    1    2    0    0  0.88610685968E+02  0.35625884008E+02 -0.38659726880E+03  0.43104930753E+03  0.16500000000E+03 0.  0.
   -5000001    1    1    2    0    0 -0.88610685968E+02 -0.35625884008E+02 -0.33845101457E+03  0.38845224487E+03  0.16500000000E+03 0.  0.
<mgrwt>
<rscale>  0 0.38195259E+03</rscale>
<asrwt>0</asrwt>
<pdfrwt beam="1">  1        2 0.11032498E+00 0.38195259E+03</pdfrwt>
<pdfrwt beam="2">  1       -2 0.67466626E-02 0.38195259E+03</pdfrwt>
<totfact> 0.50570895E+03</totfact>
</mgrwt>
</event>
<event>
 4    1  0.5387486E-005  0.5434416E+03  0.7818608E-02  0.1003023E+00
          2   -1    0    0  501    0  0.00000000000E+00  0.00000000000E+00  0.31684155945E+04  0.31684155945E+04  0.25500000000E-02 0.  1.
         -2   -1    0    0    0  501 -0.00000000000E+00 -0.00000000000E+00 -0.23302563601E+02  0.23302563741E+02  0.25500000000E-02 0. -1.
    5000001    1    1    2    0    0  0.97178719632E+02  0.19119761586E+03  0.14278604386E+04  0.14532758389E+04  0.16500000000E+03 0.  0.
   -5000001    1    1    2    0    0 -0.97178719632E+02 -0.19119761586E+03  0.17172525923E+04  0.17384423194E+04  0.16500000000E+03 0.  0.
<mgrwt>
<rscale>  0 0.54344165E+03</rscale>
<asrwt>0</asrwt>
<pdfrwt beam="1">  1        2 0.45263070E+00 0.54344165E+03</pdfrwt>
<pdfrwt beam="2">  1       -2 0.33289384E-02 0.54344165E+03</pdfrwt>
<totfact> 0.78579955E+02</totfact>
</mgrwt>
</event>
<event>
 4    1  0.5387486E-005  0.4935160E+03  0.7818608E-02  0.1015485E+00
         -2   -1    0    0    0  501 -0.00000000000E+00  0.00000000000E+00  0.53263450574E+02  0.53263450635E+02  0.25500000000E-02 0.  1.
          2   -1    0    0  501    0  0.00000000000E+00 -0.00000000000E+00 -0.11431760200E+04  0.11431760200E+04  0.25500000000E-02 0. -1.
    5000001    1    1    2    0    0 -0.13811005314E+03 -0.78663613427E+02 -0.76717708839E+03  0.80065475443E+03  0.16500000000E+03 0.  0.
   -5000001    1    1    2    0    0  0.13811005314E+03  0.78663613427E+02 -0.32273548103E+03  0.39578471619E+03  0.16500000000E+03 0.  0.
<mgrwt>
<rscale>  0 0.49351596E+03</rscale>
<asrwt>0</asrwt>
<pdfrwt beam="1">  1        2 0.16331085E+00 0.49351596E+03</pdfrwt>
<pdfrwt beam="2">  1       -2 0.76090651E-02 0.49351596E+03</pdfrwt>
<totfact> 0.24678030E+03</totfact>
</mgrwt>
</event>
<event>
 4    1  0.5387486E-005  0.6269753E+03  0.7818608E-02  0.9850969E-01
         -2   -1    0    0    0  501 -0.00000000000E+00  0.00000000000E+00  0.25435691764E+02  0.25435691892E+02  0.25500000000E-02 0. -1.
          2   -1    0    0  501    0  0.00000000000E+00 -0.00000000000E+00 -0.38636453479E+04  0.38636453479E+04  0.25500000000E-02 0.  1.
    5000001    1    1    2    0    0 -0.49435806088E+02 -0.25988595880E+03 -0.17166876735E+04  0.17447710964E+04  0.16500000000E+03 0.  0.
   -5000001    1    1    2    0    0  0.49435806088E+02  0.25988595880E+03 -0.21215219826E+04  0.21443099434E+04  0.16500000000E+03 0.  0.
<mgrwt>
<rscale>  0 0.62697525E+03</rscale>
<asrwt>0</asrwt>
<pdfrwt beam="1">  1        2 0.55194896E+00 0.62697525E+03</pdfrwt>
<pdfrwt beam="2">  1       -2 0.36336727E-02 0.62697525E+03</pdfrwt>
<totfact> 0.26163102E+02</totfact>
</mgrwt>
</event>
<event>
 4    1  0.5387486E-005  0.5067386E+03  0.7818608E-02  0.1012035E+00
         -2   -1    0    0    0  501 -0.00000000000E+00  0.00000000000E+00  0.22162861960E+03  0.22162861962E+03  0.25500000000E-02 0. -1.
          2   -1    0    0  501    0  0.00000000000E+00 -0.00000000000E+00 -0.28965577681E+03  0.28965577683E+03  0.25500000000E-02 0.  1.
    5000001    1    1    2    0    0  0.54596641792E+02  0.18336090729E+03 -0.53395123528E+02  0.25822094190E+03  0.16500000000E+03 0.  0.
   -5000001    1    1    2    0    0 -0.54596641792E+02 -0.18336090729E+03 -0.14632033682E+02  0.25306345455E+03  0.16500000000E+03 0.  0.
<mgrwt>
<rscale>  0 0.50673863E+03</rscale>
<asrwt>0</asrwt>
<pdfrwt beam="1">  1        2 0.41379397E-01 0.50673863E+03</pdfrwt>
<pdfrwt beam="2">  1       -2 0.31661231E-01 0.50673863E+03</pdfrwt>
<totfact> 0.11489489E+03</totfact>
</mgrwt>
</event>
<event>
 4    1  0.5387486E-005  0.1102157E+04  0.7818608E-02  0.9203092E-01
          2   -1    0    0  501    0  0.00000000000E+00  0.00000000000E+00  0.17613886814E+04  0.17613886814E+04  0.25500000000E-02 0.  1.
         -2   -1    0    0    0  501 -0.00000000000E+00 -0.00000000000E+00 -0.17241370653E+03  0.17241370655E+03  0.25500000000E-02 0. -1.
    5000001    1    1    2    0    0  0.16810943278E+03  0.35144724605E+03  0.17493443880E+03  0.45782420865E+03  0.16500000000E+03 0.  0.
   -5000001    1    1    2    0    0 -0.16810943278E+03 -0.35144724605E+03  0.14140405361E+04  0.14759781794E+04  0.16500000000E+03 0.  0.
<mgrwt>
<rscale>  0 0.11021571E+04</rscale>
<asrwt>0</asrwt>
<pdfrwt beam="1">  1        2 0.25162696E+00 0.11021571E+04</pdfrwt>
<pdfrwt beam="2">  1       -2 0.24630529E-01 0.11021571E+04</pdfrwt>
<totfact> 0.15580218E+02</totfact>
</mgrwt>
</event>
<event>
 4    1  0.5387486E-005  0.4530325E+03  0.7818608E-02  0.1026822E+00
          2   -1    0    0  501    0  0.00000000000E+00  0.00000000000E+00  0.95369033861E+03  0.95369033861E+03  0.25500000000E-02 0.  1.
         -2   -1    0    0    0  501 -0.00000000000E+00 -0.00000000000E+00 -0.53801117525E+02  0.53801117585E+02  0.25500000000E-02 0. -1.
    5000001    1    1    2    0    0 -0.29823956063E+02  0.15186605301E+03  0.47547955916E+03  0.52655348977E+03  0.16500000000E+03 0.  0.
   -5000001    1    1    2    0    0  0.29823956063E+02 -0.15186605301E+03  0.42440966192E+03  0.48093796642E+03  0.16500000000E+03 0.  0.
<mgrwt>
<rscale>  0 0.45303248E+03</rscale>
<asrwt>0</asrwt>
<pdfrwt beam="1">  1        2 0.13624146E+00 0.45303248E+03</pdfrwt>
<pdfrwt beam="2">  1       -2 0.76858747E-02 0.45303248E+03</pdfrwt>
<totfact> 0.31426676E+03</totfact>
</mgrwt>
</event>
<event>
 4    1  0.5387486E-005  0.4960334E+03  0.7818608E-02  0.1014819E+00
         -2   -1    0    0    0  501 -0.00000000000E+00  0.00000000000E+00  0.19267516842E+02  0.19267517011E+02  0.25500000000E-02 0. -1.
          2   -1    0    0  501    0  0.00000000000E+00 -0.00000000000E+00 -0.31925386568E+04  0.31925386568E+04  0.25500000000E-02 0.  1.
    5000001    1    1    2    0    0  0.72437407642E+02  0.13211768769E+03 -0.22835620717E+04  0.22944679115E+04  0.16500000000E+03 0.  0.
   -5000001    1    1    2    0    0 -0.72437407642E+02 -0.13211768769E+03 -0.88970906821E+03  0.91733826230E+03  0.16500000000E+03 0.  0.
<mgrwt>
<rscale>  0 0.49603344E+03</rscale>
<asrwt>0</asrwt>
<pdfrwt beam="1">  1        2 0.45607661E+00 0.49603344E+03</pdfrwt>
<pdfrwt beam="2">  1       -2 0.27525045E-02 0.49603344E+03</pdfrwt>
<totfact> 0.10211848E+03</totfact>
</mgrwt>
</event>
<event>
 4    1  0.5387486E-005  0.4966802E+03  0.7818608E-02  0.1014649E+00
         -2   -1    0    0    0  501 -0.00000000000E+00  0.00000000000E+00  0.81897177190E+03  0.81897177190E+03  0.25500000000E-02 0. -1.
          2   -1    0    0  501    0  0.00000000000E+00 -0.00000000000E+00 -0.75305165135E+02  0.75305165178E+02  0.25500000000E-02 0.  1.
    5000001    1    1    2    0    0 -0.14759592637E+03 -0.10040214285E+03  0.28033173609E+03  0.37104720728E+03  0.16500000000E+03 0.  0.
   -5000001    1    1    2    0    0  0.14759592637E+03  0.10040214285E+03  0.46333487068E+03  0.52322972981E+03  0.16500000000E+03 0.  0.
<mgrwt>
<rscale>  0 0.49668020E+03</rscale>
<asrwt>0</asrwt>
<pdfrwt beam="1">  1        2 0.10757880E-01 0.49668020E+03</pdfrwt>
<pdfrwt beam="2">  1       -2 0.11699597E+00 0.49668020E+03</pdfrwt>
<totfact> 0.34662047E+02</totfact>
</mgrwt>
</event>
<event>
 4    1  0.5387486E-005  0.7900881E+03  0.7818608E-02  0.9574476E-01
          2   -1    0    0  501    0  0.00000000000E+00  0.00000000000E+00  0.57698872366E+03  0.57698872366E+03  0.25500000000E-02 0.  1.
         -2   -1    0    0    0  501 -0.00000000000E+00 -0.00000000000E+00 -0.27047284808E+03  0.27047284810E+03  0.25500000000E-02 0. -1.
    5000001    1    1    2    0    0  0.18512013452E+03  0.29704190641E+03  0.67909563433E+02  0.39286138417E+03  0.16500000000E+03 0.  0.
   -5000001    1    1    2    0    0 -0.18512013452E+03 -0.29704190641E+03  0.23860631214E+03  0.45460018759E+03  0.16500000000E+03 0.  0.
<mgrwt>
<rscale>  0 0.79008805E+03</rscale>
<asrwt>0</asrwt>
<pdfrwt beam="1">  1        2 0.82426961E-01 0.79008805E+03</pdfrwt>
<pdfrwt beam="2">  1       -2 0.38638978E-01 0.79008805E+03</pdfrwt>
<totfact> 0.36137636E+02</totfact>
</mgrwt>
</event>
<event>
 4    1  0.5387486E-005  0.3980155E+03  0.7818608E-02  0.1044469E+00
          2   -1    0    0  501    0  0.00000000000E+00  0.00000000000E+00  0.13292409369E+04  0.13292409369E+04  0.25500000000E-02 0.  1.
         -2   -1    0    0    0  501 -0.00000000000E+00 -0.00000000000E+00 -0.29794505173E+02  0.29794505282E+02  0.25500000000E-02 0. -1.
    5000001    1    1    2    0    0  0.49322143289E+02  0.91333903320E+02  0.51294924470E+03  0.54874081619E+03  0.16500000000E+03 0.  0.
   -5000001    1    1    2    0    0 -0.49322143289E+02 -0.91333903320E+02  0.78649718703E+03  0.81029462600E+03  0.16500000000E+03 0.  0.
<mgrwt>
<rscale>  0 0.39801546E+03</rscale>
<asrwt>0</asrwt>
<pdfrwt beam="1">  1        2 0.18989159E+00 0.39801546E+03</pdfrwt>
<pdfrwt beam="2">  1       -2 0.42563572E-02 0.39801546E+03</pdfrwt>
<totfact> 0.48019666E+03</totfact>
</mgrwt>
</event>
<event>
 4    1  0.5387486E-005  0.3914995E+03  0.7818608E-02  0.1046763E+00
          2   -1    0    0  501    0  0.00000000000E+00  0.00000000000E+00  0.28770996601E+04  0.28770996601E+04  0.25500000000E-02 0.  1.
         -2   -1    0    0    0  501 -0.00000000000E+00 -0.00000000000E+00 -0.13318262333E+02  0.13318262577E+02  0.25500000000E-02 0. -1.
    5000001    1    1    2    0    0  0.82663774884E+02  0.54584288554E+02  0.16960539594E+04  0.17069378364E+04  0.16500000000E+03 0.  0.
   -5000001    1    1    2    0    0 -0.82663774884E+02 -0.54584288554E+02  0.11677274384E+04  0.11834800862E+04  0.16500000000E+03 0.  0.
<mgrwt>
<rscale>  0 0.39149952E+03</rscale>
<asrwt>0</asrwt>
<pdfrwt beam="1">  1        2 0.41101443E+00 0.39149952E+03</pdfrwt>
<pdfrwt beam="2">  1       -2 0.19026080E-02 0.39149952E+03</pdfrwt>
<totfact> 0.26555712E+03</totfact>
</mgrwt>
</event>
<event>
 4    1  0.5387486E-005  0.4127546E+03  0.7818608E-02  0.1039451E+00
         -2   -1    0    0    0  501 -0.00000000000E+00  0.00000000000E+00  0.12089553571E+03  0.12089553574E+03  0.25500000000E-02 0. -1.
          2   -1    0    0  501    0  0.00000000000E+00 -0.00000000000E+00 -0.35230081837E+03  0.35230081838E+03  0.25500000000E-02 0.  1.
    5000001    1    1    2    0    0  0.80636461999E+02 -0.93773680006E+02 -0.10605253798E+03  0.23187902638E+03  0.16500000000E+03 0.  0.
   -5000001    1    1    2    0    0 -0.80636461999E+02  0.93773680006E+02 -0.12535274467E+03  0.24131732773E+03  0.16500000000E+03 0.  0.
<mgrwt>
<rscale>  0 0.41275463E+03</rscale>
<asrwt>0</asrwt>
<pdfrwt beam="1">  1        2 0.50328688E-01 0.41275463E+03</pdfrwt>
<pdfrwt beam="2">  1       -2 0.17270791E-01 0.41275463E+03</pdfrwt>
<totfact> 0.27077667E+03</totfact>
</mgrwt>
</event>
<event>
 4    1  0.5387486E-005  0.5481592E+03  0.7818608E-02  0.1001921E+00
          2   -1    0    0  501    0  0.00000000000E+00  0.00000000000E+00  0.80446453242E+03  0.80446453243E+03  0.25500000000E-02 0.  1.
         -2   -1    0    0    0  501 -0.00000000000E+00 -0.00000000000E+00 -0.93378407967E+02  0.93378408002E+02  0.25500000000E-02 0. -1.
    5000001    1    1    2    0    0 -0.85330284100E+02  0.19769907910E+03  0.41957800812E+03  0.49963675621E+03  0.16500000000E+03 0.  0.
   -5000001    1    1    2    0    0  0.85330284100E+02 -0.19769907910E+03  0.29150811633E+03  0.39820618422E+03  0.16500000000E+03 0.  0.
<mgrwt>
<rscale>  0 0.54815916E+03</rscale>
<asrwt>0</asrwt>
<pdfrwt beam="1">  1        2 0.11492351E+00 0.54815916E+03</pdfrwt>
<pdfrwt beam="2">  1       -2 0.13339772E-01 0.54815916E+03</pdfrwt>
<totfact> 0.16121068E+03</totfact>
</mgrwt>
</event>
<event>
 4    1  0.5387486E-005  0.4559679E+03  0.7818608E-02  0.1025957E+00
         -2   -1    0    0    0  501 -0.00000000000E+00  0.00000000000E+00  0.73465884207E+02  0.73465884252E+02  0.25500000000E-02 0. -1.
          2   -1    0    0  501    0  0.00000000000E+00 -0.00000000000E+00 -0.70749417237E+03  0.70749417237E+03  0.25500000000E-02 0.  1.
    5000001    1    1    2    0    0  0.14968098045E+03 -0.29820108414E+02 -0.38241459980E+03  0.44357587954E+03  0.16500000000E+03 0.  0.
   -5000001    1    1    2    0    0 -0.14968098045E+03  0.29820108414E+02 -0.25161368836E+03  0.33738417708E+03  0.16500000000E+03 0.  0.
<mgrwt>
<rscale>  0 0.45596792E+03</rscale>
<asrwt>0</asrwt>
<pdfrwt beam="1">  1        2 0.10107059E+00 0.45596792E+03</pdfrwt>
<pdfrwt beam="2">  1       -2 0.10495127E-01 0.45596792E+03</pdfrwt>
<totfact> 0.28004196E+03</totfact>
</mgrwt>
</event>
<event>
 4    1  0.5387486E-005  0.5732184E+03  0.7818608E-02  0.9962582E-01
         -2   -1    0    0    0  501 -0.00000000000E+00  0.00000000000E+00  0.80805970667E+03  0.80805970668E+03  0.25500000000E-02 0. -1.
          2   -1    0    0  501    0  0.00000000000E+00 -0.00000000000E+00 -0.10165689689E+03  0.10165689693E+03  0.25500000000E-02 0.  1.
    5000001    1    1    2    0    0 -0.32016437312E+02 -0.20207405098E+03  0.53457413700E+03  0.59569579676E+03  0.16500000000E+03 0.  0.
   -5000001    1    1    2    0    0  0.32016437312E+02  0.20207405098E+03  0.17182867278E+03  0.31402080684E+03  0.16500000000E+03 0.  0.
<mgrwt>
<rscale>  0 0.57321843E+03</rscale>
<asrwt>0</asrwt>
<pdfrwt beam="1">  1        2 0.14522414E-01 0.57321843E+03</pdfrwt>
<pdfrwt beam="2">  1       -2 0.11543710E+00 0.57321843E+03</pdfrwt>
<totfact> 0.24684121E+02</totfact>
</mgrwt>
</event>
<event>
 4    1  0.5387486E-005  0.3487430E+03  0.7818608E-02  0.1063132E+00
          2   -1    0    0  501    0  0.00000000000E+00  0.00000000000E+00  0.20202831215E+03  0.20202831217E+03  0.25500000000E-02 0.  1.
         -2   -1    0    0    0  501 -0.00000000000E+00 -0.00000000000E+00 -0.15050080547E+03  0.15050080549E+03  0.25500000000E-02 0. -1.
    5000001    1    1    2    0    0 -0.23413592327E+02  0.23507273734E+02  0.71861858950E+02  0.18300249997E+03  0.16500000000E+03 0.  0.
   -5000001    1    1    2    0    0  0.23413592327E+02 -0.23507273734E+02 -0.20334352267E+02  0.16952661769E+03  0.16500000000E+03 0.  0.
<mgrwt>
<rscale>  0 0.34874302E+03</rscale>
<asrwt>0</asrwt>
<pdfrwt beam="1">  1        2 0.28861187E-01 0.34874302E+03</pdfrwt>
<pdfrwt beam="2">  1       -2 0.21500115E-01 0.34874302E+03</pdfrwt>
<totfact> 0.34079718E+03</totfact>
</mgrwt>
</event>
<event>
 4    1  0.5387486E-005  0.5159638E+03  0.7818608E-02  0.1009694E+00
          2   -1    0    0  501    0  0.00000000000E+00  0.00000000000E+00  0.19598637265E+04  0.19598637265E+04  0.25500000000E-02 0.  1.
         -2   -1    0    0    0  501 -0.00000000000E+00 -0.00000000000E+00 -0.33958825344E+02  0.33958825439E+02  0.25500000000E-02 0. -1.
    5000001    1    1    2    0    0 -0.27807718961E+02 -0.15937290776E+03  0.14061938825E+04  0.14250541141E+04  0.16500000000E+03 0.  0.
   -5000001    1    1    2    0    0  0.27807718961E+02  0.15937290776E+03  0.51971101870E+03  0.56876843787E+03  0.16500000000E+03 0.  0.
<mgrwt>
<rscale>  0 0.51596384E+03</rscale>
<asrwt>0</asrwt>
<pdfrwt beam="1">  1        2 0.27998049E+00 0.51596384E+03</pdfrwt>
<pdfrwt beam="2">  1       -2 0.48512616E-02 0.51596384E+03</pdfrwt>
<totfact> 0.18722944E+03</totfact>
</mgrwt>
</event>
<event>
 4    1  0.5387486E-005  0.4735168E+03  0.7818608E-02  0.1020932E+00
          2   -1    0    0  501    0  0.00000000000E+00  0.00000000000E+00  0.12575719879E+04  0.12575719879E+04  0.25500000000E-02 0.  1.
         -2   -1    0    0    0  501 -0.00000000000E+00 -0.00000000000E+00 -0.44573621905E+02  0.44573621978E+02  0.25500000000E-02 0. -1.
    5000001    1    1    2    0    0 -0.64864248528E+02  0.42417848151E+02  0.10219403407E+04  0.10380721095E+04  0.16500000000E+03 0.  0.
   -5000001    1    1    2    0    0  0.64864248528E+02 -0.42417848151E+02  0.19105802534E+03  0.26407350043E+03  0.16500000000E+03 0.  0.
<mgrwt>
<rscale>  0 0.47351679E+03</rscale>
<asrwt>0</asrwt>
<pdfrwt beam="1">  1        2 0.17965313E+00 0.47351679E+03</pdfrwt>
<pdfrwt beam="2">  1       -2 0.63676607E-02 0.47351679E+03</pdfrwt>
<totfact> 0.28204872E+03</totfact>
</mgrwt>
</event>
<event>
 4    1  0.5387486E-005  0.5536796E+03  0.7818608E-02  0.1000646E+00
         -2   -1    0    0    0  501 -0.00000000000E+00  0.00000000000E+00  0.37421757952E+03  0.37421757953E+03  0.25500000000E-02 0.  1.
          2   -1    0    0  501    0  0.00000000000E+00 -0.00000000000E+00 -0.20480139201E+03  0.20480139203E+03  0.25500000000E-02 0. -1.
    5000001    1    1    2    0    0  0.22037313865E+03  0.47745467019E+01  0.54613214603E+02  0.28070397173E+03  0.16500000000E+03 0.  0.
   -5000001    1    1    2    0    0 -0.22037313865E+03 -0.47745467019E+01  0.11480297291E+03  0.29831499983E+03  0.16500000000E+03 0.  0.
<mgrwt>
<rscale>  0 0.55367962E+03</rscale>
<asrwt>0</asrwt>
<pdfrwt beam="1">  1        2 0.29257342E-01 0.55367962E+03</pdfrwt>
<pdfrwt beam="2">  1       -2 0.53459653E-01 0.55367962E+03</pdfrwt>
<totfact> 0.60799395E+02</totfact>
</mgrwt>
</event>
<event>
 4    1  0.5387486E-005  0.4940152E+03  0.7818608E-02  0.1015353E+00
          2   -1    0    0  501    0  0.00000000000E+00  0.00000000000E+00  0.35652001486E+03  0.35652001487E+03  0.25500000000E-02 0.  1.
         -2   -1    0    0    0  501 -0.00000000000E+00 -0.00000000000E+00 -0.17113415126E+03  0.17113415127E+03  0.25500000000E-02 0. -1.
    5000001    1    1    2    0    0  0.13502720832E+03  0.21554871258E+01  0.22588698755E+03  0.31062344447E+03  0.16500000000E+03 0.  0.
   -5000001    1    1    2    0    0 -0.13502720832E+03 -0.21554871258E+01 -0.40501123942E+02  0.21703072168E+03  0.16500000000E+03 0.  0.
<mgrwt>
<rscale>  0 0.49401518E+03</rscale>
<asrwt>0</asrwt>
<pdfrwt beam="1">  1        2 0.50931430E-01 0.49401518E+03</pdfrwt>
<pdfrwt beam="2">  1       -2 0.24447736E-01 0.49401518E+03</pdfrwt>
<totfact> 0.14637183E+03</totfact>
</mgrwt>
</event>
<event>
 4    1  0.5387486E-005  0.4480010E+03  0.7818608E-02  0.1028320E+00
          2   -1    0    0  501    0  0.00000000000E+00  0.00000000000E+00  0.27058202340E+03  0.27058202341E+03  0.25500000000E-02 0.  1.
         -2   -1    0    0    0  501 -0.00000000000E+00 -0.00000000000E+00 -0.18543810529E+03  0.18543810531E+03  0.25500000000E-02 0. -1.
    5000001    1    1    2    0    0 -0.93771896544E+02 -0.13816970013E+02 -0.77726151874E+02  0.20554909858E+03  0.16500000000E+03 0.  0.
   -5000001    1    1    2    0    0  0.93771896544E+02  0.13816970013E+02  0.16287006999E+03  0.25047103014E+03  0.16500000000E+03 0.  0.
<mgrwt>
<rscale>  0 0.44800097E+03</rscale>
<asrwt>0</asrwt>
<pdfrwt beam="1">  1        2 0.38654575E-01 0.44800097E+03</pdfrwt>
<pdfrwt beam="2">  1       -2 0.26491158E-01 0.44800097E+03</pdfrwt>
<totfact> 0.17141912E+03</totfact>
</mgrwt>
</event>
<event>
 4    1  0.5387486E-005  0.4810367E+03  0.7818608E-02  0.1018851E+00
          2   -1    0    0  501    0  0.00000000000E+00  0.00000000000E+00  0.21869837738E+03  0.21869837740E+03  0.25500000000E-02 0.  1.
         -2   -1    0    0    0  501 -0.00000000000E+00 -0.00000000000E+00 -0.26451533557E+03  0.26451533558E+03  0.25500000000E-02 0. -1.
    5000001    1    1    2    0    0  0.14702778953E+02 -0.16754683812E+03 -0.71458983778E+02  0.24621027809E+03  0.16500000000E+03 0.  0.
   -5000001    1    1    2    0    0 -0.14702778953E+02  0.16754683812E+03  0.25642025591E+02  0.23700343489E+03  0.16500000000E+03 0.  0.
<mgrwt>
<rscale>  0 0.48103669E+03</rscale>
<asrwt>0</asrwt>
<pdfrwt beam="1">  1        2 0.31242625E-01 0.48103669E+03</pdfrwt>
<pdfrwt beam="2">  1       -2 0.37787905E-01 0.48103669E+03</pdfrwt>
<totfact> 0.11230015E+03</totfact>
</mgrwt>
</event>
<event>
 4    1  0.5387486E-005  0.3865790E+03  0.7818608E-02  0.1048529E+00
         -2   -1    0    0    0  501 -0.00000000000E+00  0.00000000000E+00  0.17844285817E+02  0.17844285999E+02  0.25500000000E-02 0. -1.
          2   -1    0    0  501    0  0.00000000000E+00 -0.00000000000E+00 -0.20937140054E+04  0.20937140054E+04  0.25500000000E-02 0.  1.
    5000001    1    1    2    0    0 -0.84200684695E+02 -0.90896094488E+01 -0.13352821492E+04  0.13481008101E+04  0.16500000000E+03 0.  0.
   -5000001    1    1    2    0    0  0.84200684695E+02  0.90896094488E+01 -0.74058757041E+03  0.76345748130E+03  0.16500000000E+03 0.  0.
<mgrwt>
<rscale>  0 0.38657900E+03</rscale>
<asrwt>0</asrwt>
<pdfrwt beam="1">  1        2 0.29910184E+00 0.38657900E+03</pdfrwt>
<pdfrwt beam="2">  1       -2 0.25491850E-02 0.38657900E+03</pdfrwt>
<totfact> 0.42855280E+03</totfact>
</mgrwt>
</event>
<event>
 4    1  0.5387486E-005  0.3714624E+03  0.7818608E-02  0.1054135E+00
         -2   -1    0    0    0  501 -0.00000000000E+00  0.00000000000E+00  0.13957223906E+02  0.13957224139E+02  0.25500000000E-02 0. -1.
          2   -1    0    0  501    0  0.00000000000E+00 -0.00000000000E+00 -0.24715572928E+04  0.24715572928E+04  0.25500000000E-02 0.  1.
    5000001    1    1    2    0    0  0.46092446263E+02 -0.70851803062E+02 -0.11535171275E+04  0.11683198428E+04  0.16500000000E+03 0.  0.
   -5000001    1    1    2    0    0 -0.46092446263E+02  0.70851803062E+02 -0.13040829413E+04  0.13171946741E+04  0.16500000000E+03 0.  0.
<mgrwt>
<rscale>  0 0.37146240E+03</rscale>
<asrwt>0</asrwt>
<pdfrwt beam="1">  1        2 0.35307933E+00 0.37146240E+03</pdfrwt>
<pdfrwt beam="2">  1       -2 0.19938907E-02 0.37146240E+03</pdfrwt>
<totfact> 0.40090919E+03</totfact>
</mgrwt>
</event>
<event>
 4    1  0.5387486E-005  0.9159226E+03  0.7818608E-02  0.9405893E-01
          2   -1    0    0  501    0  0.00000000000E+00  0.00000000000E+00  0.33068366652E+04  0.33068366652E+04  0.25500000000E-02 0.  1.
         -2   -1    0    0    0  501 -0.00000000000E+00 -0.00000000000E+00 -0.63422710387E+02  0.63422710438E+02  0.25500000000E-02 0. -1.
    5000001    1    1    2    0    0  0.39248601899E+03  0.53117274709E+02  0.22108716144E+04  0.22521201157E+04  0.16500000000E+03 0.  0.
   -5000001    1    1    2    0    0 -0.39248601899E+03 -0.53117274709E+02  0.10325423404E+04  0.11181392600E+04  0.16500000000E+03 0.  0.
<mgrwt>
<rscale>  0 0.91592258E+03</rscale>
<asrwt>0</asrwt>
<pdfrwt beam="1">  1        2 0.47240530E+00 0.91592258E+03</pdfrwt>
<pdfrwt beam="2">  1       -2 0.90603861E-02 0.91592258E+03</pdfrwt>
<totfact> 0.13144615E+02</totfact>
</mgrwt>
</event>
<event>
 4    1  0.5387486E-005  0.7747032E+03  0.7818608E-02  0.9597373E-01
          2   -1    0    0  501    0  0.00000000000E+00  0.00000000000E+00  0.30145463093E+04  0.30145463093E+04  0.25500000000E-02 0.  1.
         -2   -1    0    0    0  501 -0.00000000000E+00 -0.00000000000E+00 -0.49772421884E+02  0.49772421949E+02  0.25500000000E-02 0. -1.
    5000001    1    1    2    0    0 -0.26603820968E+03  0.20503598163E+02  0.23810681431E+04  0.24016467743E+04  0.16500000000E+03 0.  0.
   -5000001    1    1    2    0    0  0.26603820968E+03 -0.20503598163E+02  0.58370574433E+03  0.66267195694E+03  0.16500000000E+03 0.  0.
<mgrwt>
<rscale>  0 0.77470322E+03</rscale>
<asrwt>0</asrwt>
<pdfrwt beam="1">  1        2 0.43064967E+00 0.77470322E+03</pdfrwt>
<pdfrwt beam="2">  1       -2 0.71103427E-02 0.77470322E+03</pdfrwt>
<totfact> 0.28739172E+02</totfact>
</mgrwt>
</event>
<event>
 4    1  0.5387486E-005  0.4106391E+03  0.7818608E-02  0.1040157E+00
         -2   -1    0    0    0  501 -0.00000000000E+00  0.00000000000E+00  0.34247847510E+02  0.34247847605E+02  0.25500000000E-02 0.  1.
          2   -1    0    0  501    0  0.00000000000E+00 -0.00000000000E+00 -0.12309127795E+04  0.12309127795E+04  0.25500000000E-02 0. -1.
    5000001    1    1    2    0    0 -0.29124767967E+02 -0.73604458764E+02 -0.88513026134E+03  0.90385089921E+03  0.16500000000E+03 0.  0.
   -5000001    1    1    2    0    0  0.29124767967E+02  0.73604458764E+02 -0.31153467066E+03  0.36130972791E+03  0.16500000000E+03 0.  0.
<mgrwt>
<rscale>  0 0.41063908E+03</rscale>
<asrwt>0</asrwt>
<pdfrwt beam="1">  1        2 0.17584466E+00 0.41063908E+03</pdfrwt>
<pdfrwt beam="2">  1       -2 0.48925504E-02 0.41063908E+03</pdfrwt>
<totfact> 0.43846423E+03</totfact>
</mgrwt>
</event>
<event>
 4    1  0.5387486E-005  0.6419060E+03  0.7818608E-02  0.9822087E-01
          2   -1    0    0  501    0  0.00000000000E+00  0.00000000000E+00  0.22350152124E+04  0.22350152125E+04  0.25500000000E-02 0. -1.
         -2   -1    0    0    0  501 -0.00000000000E+00 -0.00000000000E+00 -0.46089547400E+02  0.46089547470E+02  0.25500000000E-02 0.  1.
    5000001    1    1    2    0    0 -0.27503342793E+03  0.77058408053E+01  0.11268523315E+04  0.11716330242E+04  0.16500000000E+03 0.  0.
   -5000001    1    1    2    0    0  0.27503342793E+03 -0.77058408053E+01  0.10620733335E+04  0.11094717357E+04  0.16500000000E+03 0.  0.
<mgrwt>
<rscale>  0 0.64190604E+03</rscale>
<asrwt>0</asrwt>
<pdfrwt beam="1">  1        2 0.31928799E+00 0.64190604E+03</pdfrwt>
<pdfrwt beam="2">  1       -2 0.65842190E-02 0.64190604E+03</pdfrwt>
<totfact> 0.84002824E+02</totfact>
</mgrwt>
</event>
<event>
 4    1  0.5387486E-005  0.7452360E+03  0.7818608E-02  0.9642854E-01
         -2   -1    0    0    0  501 -0.00000000000E+00  0.00000000000E+00  0.52328475302E+02  0.52328475364E+02  0.25500000000E-02 0. -1.
          2   -1    0    0  501    0  0.00000000000E+00 -0.00000000000E+00 -0.26533198231E+04  0.26533198231E+04  0.25500000000E-02 0.  1.
    5000001    1    1    2    0    0  0.19567646403E+03  0.18140752628E+03 -0.20304272820E+04  0.20545213351E+04  0.16500000000E+03 0.  0.
   -5000001    1    1    2    0    0 -0.19567646403E+03 -0.18140752628E+03 -0.57056406587E+03  0.65112696337E+03  0.16500000000E+03 0.  0.
<mgrwt>
<rscale>  0 0.74523602E+03</rscale>
<asrwt>0</asrwt>
<pdfrwt beam="1">  1        2 0.37904560E+00 0.74523602E+03</pdfrwt>
<pdfrwt beam="2">  1       -2 0.74754981E-02 0.74523602E+03</pdfrwt>
<totfact> 0.41551823E+02</totfact>
</mgrwt>
</event>
<event>
 4    1  0.5387486E-005  0.3821466E+03  0.7818608E-02  0.1050143E+00
         -2   -1    0    0    0  501 -0.00000000000E+00  0.00000000000E+00  0.62809230384E+02  0.62809230436E+02  0.25500000000E-02 0. -1.
          2   -1    0    0  501    0  0.00000000000E+00 -0.00000000000E+00 -0.58126815036E+03  0.58126815037E+03  0.25500000000E-02 0.  1.
    5000001    1    1    2    0    0 -0.85306526848E+02 -0.33080689186E+02 -0.20831779842E+03  0.28105665027E+03  0.16500000000E+03 0.  0.
   -5000001    1    1    2    0    0  0.85306526848E+02  0.33080689186E+02 -0.31014112156E+03  0.36302073054E+03  0.16500000000E+03 0.  0.
<mgrwt>
<rscale>  0 0.38214660E+03</rscale>
<asrwt>0</asrwt>
<pdfrwt beam="1">  1        2 0.83038304E-01 0.38214660E+03</pdfrwt>
<pdfrwt beam="2">  1       -2 0.89727475E-02 0.38214660E+03</pdfrwt>
<totfact> 0.45286166E+03</totfact>
</mgrwt>
</event>
<event>
 4    1  0.5387486E-005  0.4554886E+03  0.7818608E-02  0.1026098E+00
          2   -1    0    0  501    0  0.00000000000E+00  0.00000000000E+00  0.10149325451E+04  0.10149325451E+04  0.25500000000E-02 0.  1.
         -2   -1    0    0    0  501 -0.00000000000E+00 -0.00000000000E+00 -0.51104357168E+02  0.51104357232E+02  0.25500000000E-02 0. -1.
    5000001    1    1    2    0    0  0.90705466758E+02  0.10061978274E+03  0.66754169470E+03  0.70084858317E+03  0.16500000000E+03 0.  0.
   -5000001    1    1    2    0    0 -0.90705466758E+02 -0.10061978274E+03  0.29628649323E+03  0.36518831916E+03  0.16500000000E+03 0.  0.
<mgrwt>
<rscale>  0 0.45548864E+03</rscale>
<asrwt>0</asrwt>
<pdfrwt beam="1">  1        2 0.14499037E+00 0.45548864E+03</pdfrwt>
<pdfrwt beam="2">  1       -2 0.73006223E-02 0.45548864E+03</pdfrwt>
<totfact> 0.31280954E+03</totfact>
</mgrwt>
</event>
<event>
 4    1  0.5387486E-005  0.3886897E+03  0.7818608E-02  0.1047768E+00
         -2   -1    0    0    0  501 -0.00000000000E+00  0.00000000000E+00  0.22567539425E+02  0.22567539569E+02  0.25500000000E-02 0. -1.
          2   -1    0    0  501    0  0.00000000000E+00 -0.00000000000E+00 -0.16736392295E+04  0.16736392295E+04  0.25500000000E-02 0.  1.
    5000001    1    1    2    0    0 -0.58563896438E+02  0.70940136410E+02 -0.10246892418E+04  0.10419574249E+04  0.16500000000E+03 0.  0.
   -5000001    1    1    2    0    0  0.58563896438E+02 -0.70940136410E+02 -0.62638244828E+03  0.65424934423E+03  0.16500000000E+03 0.  0.
<mgrwt>
<rscale>  0 0.38868969E+03</rscale>
<asrwt>0</asrwt>
<pdfrwt beam="1">  1        2 0.23909124E+00 0.38868969E+03</pdfrwt>
<pdfrwt beam="2">  1       -2 0.32239353E-02 0.38868969E+03</pdfrwt>
<totfact> 0.48667258E+03</totfact>
</mgrwt>
</event>
<event>
 4    1  0.5387486E-005  0.6971005E+03  0.7818608E-02  0.9722204E-01
          2   -1    0    0  501    0  0.00000000000E+00  0.00000000000E+00  0.63248020033E+03  0.63248020034E+03  0.25500000000E-02 0.  1.
         -2   -1    0    0    0  501 -0.00000000000E+00 -0.00000000000E+00 -0.19208074499E+03  0.19208074501E+03  0.25500000000E-02 0. -1.
    5000001    1    1    2    0    0  0.16214502995E+03 -0.11260325449E+03  0.49833598523E+03  0.56083353843E+03  0.16500000000E+03 0.  0.
   -5000001    1    1    2    0    0 -0.16214502995E+03  0.11260325449E+03 -0.57936529892E+02  0.26372740691E+03  0.16500000000E+03 0.  0.
<mgrwt>
<rscale>  0 0.69710048E+03</rscale>
<asrwt>0</asrwt>
<pdfrwt beam="1">  1        2 0.90354315E-01 0.69710048E+03</pdfrwt>
<pdfrwt beam="2">  1       -2 0.27440106E-01 0.69710048E+03</pdfrwt>
<totfact> 0.61846306E+02</totfact>
</mgrwt>
</event>
<event>
 4    1  0.5387486E-005  0.4769935E+03  0.7818608E-02  0.1019965E+00
         -2   -1    0    0    0  501 -0.00000000000E+00  0.00000000000E+00  0.18055018559E+03  0.18055018561E+03  0.25500000000E-02 0. -1.
          2   -1    0    0  501    0  0.00000000000E+00 -0.00000000000E+00 -0.31504091656E+03  0.31504091657E+03  0.25500000000E-02 0.  1.
    5000001    1    1    2    0    0  0.13459619300E+03 -0.98504298468E+02 -0.11177019454E+03  0.25987844923E+03  0.16500000000E+03 0.  0.
   -5000001    1    1    2    0    0 -0.13459619300E+03  0.98504298468E+02 -0.22720536428E+02  0.23571265295E+03  0.16500000000E+03 0.  0.
<mgrwt>
<rscale>  0 0.47699348E+03</rscale>
<asrwt>0</asrwt>
<pdfrwt beam="1">  1        2 0.45005845E-01 0.47699348E+03</pdfrwt>
<pdfrwt beam="2">  1       -2 0.25792884E-01 0.47699348E+03</pdfrwt>
<totfact> 0.15230277E+03</totfact>
</mgrwt>
</event>
<event>
 4    1  0.5387486E-005  0.3606961E+03  0.7818608E-02  0.1058309E+00
         -2   -1    0    0    0  501 -0.00000000000E+00  0.00000000000E+00  0.16605553718E+02  0.16605553914E+02  0.25500000000E-02 0. -1.
          2   -1    0    0  501    0  0.00000000000E+00 -0.00000000000E+00 -0.19587067925E+04  0.19587067925E+04  0.25500000000E-02 0.  1.
    5000001    1    1    2    0    0 -0.22509499979E+02 -0.61067334828E+02 -0.79237302722E+03  0.81198270378E+03  0.16500000000E+03 0.  0.
   -5000001    1    1    2    0    0  0.22509499979E+02  0.61067334828E+02 -0.11497282116E+04  0.11633296427E+04  0.16500000000E+03 0.  0.
<mgrwt>
<rscale>  0 0.36069606E+03</rscale>
<asrwt>0</asrwt>
<pdfrwt beam="1">  1        2 0.27981511E+00 0.36069606E+03</pdfrwt>
<pdfrwt beam="2">  1       -2 0.23722232E-02 0.36069606E+03</pdfrwt>
<totfact> 0.55637423E+03</totfact>
</mgrwt>
</event>
<event>
 4    1  0.5387486E-005  0.5397660E+03  0.7818608E-02  0.1003891E+00
          2   -1    0    0  501    0  0.00000000000E+00  0.00000000000E+00  0.69074698936E+03  0.69074698937E+03  0.25500000000E-02 0.  1.
         -2   -1    0    0    0  501 -0.00000000000E+00 -0.00000000000E+00 -0.10544645725E+03  0.10544645728E+03  0.25500000000E-02 0. -1.
    5000001    1    1    2    0    0 -0.11314556323E+03  0.12384185397E+03  0.48763386518E+03  0.54143375379E+03  0.16500000000E+03 0.  0.
   -5000001    1    1    2    0    0  0.11314556323E+03 -0.12384185397E+03  0.97666666940E+02  0.25475969286E+03  0.16500000000E+03 0.  0.
<mgrwt>
<rscale>  0 0.53976596E+03</rscale>
<asrwt>0</asrwt>
<pdfrwt beam="1">  1        2 0.98678145E-01 0.53976596E+03</pdfrwt>
<pdfrwt beam="2">  1       -2 0.15063779E-01 0.53976596E+03</pdfrwt>
<totfact> 0.15906896E+03</totfact>
</mgrwt>
</event>
<event>
 4    1  0.5387486E-005  0.8201206E+03  0.7818608E-02  0.9531341E-01
          2   -1    0    0  501    0  0.00000000000E+00  0.00000000000E+00  0.27631409681E+03  0.27631409682E+03  0.25500000000E-02 0. -1.
         -2   -1    0    0    0  501 -0.00000000000E+00 -0.00000000000E+00 -0.60854464249E+03  0.60854464249E+03  0.25500000000E-02 0.  1.
    5000001    1    1    2    0    0  0.23000405570E+03 -0.99989438234E+02  0.13526324133E+03  0.32927328749E+03  0.16500000000E+03 0.  0.
   -5000001    1    1    2    0    0 -0.23000405570E+03  0.99989438234E+02 -0.46749378700E+03  0.55558545183E+03  0.16500000000E+03 0.  0.
<mgrwt>
<rscale>  0 0.82012063E+03</rscale>
<asrwt>0</asrwt>
<pdfrwt beam="1">  1        2 0.39473443E-01 0.82012063E+03</pdfrwt>
<pdfrwt beam="2">  1       -2 0.86934949E-01 0.82012063E+03</pdfrwt>
<totfact> 0.15060311E+02</totfact>
</mgrwt>
</event>
<event>
 4    1  0.5387486E-005  0.5311920E+03  0.7818608E-02  0.1005943E+00
          2   -1    0    0  501    0  0.00000000000E+00  0.00000000000E+00  0.11804706274E+04  0.11804706274E+04  0.25500000000E-02 0.  1.
         -2   -1    0    0    0  501 -0.00000000000E+00 -0.00000000000E+00 -0.59756867223E+02  0.59756867277E+02  0.25500000000E-02 0. -1.
    5000001    1    1    2    0    0 -0.13686529064E+03  0.14775803699E+03  0.43788146444E+03  0.50944059730E+03  0.16500000000E+03 0.  0.
   -5000001    1    1    2    0    0  0.13686529064E+03 -0.14775803699E+03  0.68283229571E+03  0.73078689735E+03  0.16500000000E+03 0.  0.
<mgrwt>
<rscale>  0 0.53119197E+03</rscale>
<asrwt>0</asrwt>
<pdfrwt beam="1">  1        2 0.16863866E+00 0.53119197E+03</pdfrwt>
<pdfrwt beam="2">  1       -2 0.85366953E-02 0.53119197E+03</pdfrwt>
<totfact> 0.19574916E+03</totfact>
</mgrwt>
</event>
<event>
 4    1  0.5387486E-005  0.8263415E+03  0.7818608E-02  0.9522653E-01
         -2   -1    0    0    0  501 -0.00000000000E+00  0.00000000000E+00  0.26185867132E+03  0.26185867133E+03  0.25500000000E-02 0. -1.
          2   -1    0    0  501    0  0.00000000000E+00 -0.00000000000E+00 -0.65191676829E+03  0.65191676830E+03  0.25500000000E-02 0.  1.
    5000001    1    1    2    0    0 -0.11866322477E+03  0.24652299861E+03  0.94664310419E+02  0.33322797215E+03  0.16500000000E+03 0.  0.
   -5000001    1    1    2    0    0  0.11866322477E+03 -0.24652299861E+03 -0.48472240740E+03  0.58054746747E+03  0.16500000000E+03 0.  0.
<mgrwt>
<rscale>  0 0.82634148E+03</rscale>
<asrwt>0</asrwt>
<pdfrwt beam="1">  1        2 0.93130966E-01 0.82634148E+03</pdfrwt>
<pdfrwt beam="2">  1       -2 0.37408382E-01 0.82634148E+03</pdfrwt>
<totfact> 0.33212564E+02</totfact>
</mgrwt>
</event>
<event>
 4    1  0.5387486E-005  0.3510311E+03  0.7818608E-02  0.1062193E+00
          2   -1    0    0  501    0  0.00000000000E+00  0.00000000000E+00  0.41492321516E+03  0.41492321516E+03  0.25500000000E-02 0.  1.
         -2   -1    0    0    0  501 -0.00000000000E+00 -0.00000000000E+00 -0.74244364271E+02  0.74244364314E+02  0.25500000000E-02 0. -1.
    5000001    1    1    2    0    0 -0.56099650013E+02 -0.15607678924E+02  0.15113416333E+03  0.23120835992E+03  0.16500000000E+03 0.  0.
   -5000001    1    1    2    0    0  0.56099650013E+02  0.15607678924E+02  0.18954468756E+03  0.25795921956E+03  0.16500000000E+03 0.  0.
<mgrwt>
<rscale>  0 0.35103111E+03</rscale>
<asrwt>0</asrwt>
<pdfrwt beam="1">  1        2 0.59274747E-01 0.35103111E+03</pdfrwt>
<pdfrwt beam="2">  1       -2 0.10606337E-01 0.35103111E+03</pdfrwt>
<totfact> 0.50424532E+03</totfact>
</mgrwt>
</event>
<event>
 4    1  0.5387486E-005  0.4168030E+03  0.7818608E-02  0.1038112E+00
          2   -1    0    0  501    0  0.00000000000E+00  0.00000000000E+00  0.25992448943E+03  0.25992448944E+03  0.25500000000E-02 0.  1.
         -2   -1    0    0    0  501 -0.00000000000E+00 -0.00000000000E+00 -0.16709153047E+03  0.16709153049E+03  0.25500000000E-02 0. -1.
    5000001    1    1    2    0    0  0.77421099889E+02 -0.86070830977E+02 -0.78335194061E+01  0.20171410134E+03  0.16500000000E+03 0.  0.
   -5000001    1    1    2    0    0 -0.77421099889E+02  0.86070830977E+02  0.10066647837E+03  0.22530191859E+03  0.16500000000E+03 0.  0.
<mgrwt>
<rscale>  0 0.41680298E+03</rscale>
<asrwt>0</asrwt>
<pdfrwt beam="1">  1        2 0.37132070E-01 0.41680298E+03</pdfrwt>
<pdfrwt beam="2">  1       -2 0.23870218E-01 0.41680298E+03</pdfrwt>
<totfact> 0.21558957E+03</totfact>
</mgrwt>
</event>
<event>
 4    1  0.5387486E-005  0.5672422E+03  0.7818608E-02  0.9975800E-01
          2   -1    0    0  501    0  0.00000000000E+00  0.00000000000E+00  0.96356680018E+03  0.96356680018E+03  0.25500000000E-02 0.  1.
         -2   -1    0    0    0  501 -0.00000000000E+00 -0.00000000000E+00 -0.83482471216E+02  0.83482471255E+02  0.25500000000E-02 0. -1.
    5000001    1    1    2    0    0 -0.17737244484E+03 -0.11951806139E+03  0.59958235151E+03  0.65762416883E+03  0.16500000000E+03 0.  0.
   -5000001    1    1    2    0    0  0.17737244484E+03  0.11951806139E+03  0.28050197745E+03  0.38942510261E+03  0.16500000000E+03 0.  0.
<mgrwt>
<rscale>  0 0.56724223E+03</rscale>
<asrwt>0</asrwt>
<pdfrwt beam="1">  1        2 0.13765239E+00 0.56724223E+03</pdfrwt>
<pdfrwt beam="2">  1       -2 0.11926068E-01 0.56724223E+03</pdfrwt>
<totfact> 0.15273101E+03</totfact>
</mgrwt>
</event>
<event>
 4    1  0.5387486E-005  0.7776025E+03  0.7818608E-02  0.9593015E-01
         -2   -1    0    0    0  501 -0.00000000000E+00  0.00000000000E+00  0.32051387857E+03  0.32051387858E+03  0.25500000000E-02 0. -1.
          2   -1    0    0  501    0  0.00000000000E+00 -0.00000000000E+00 -0.47163766614E+03  0.47163766615E+03  0.25500000000E-02 0.  1.
    5000001    1    1    2    0    0 -0.29213039793E+03 -0.10549317624E+03 -0.24441117584E+03  0.42828822364E+03  0.16500000000E+03 0.  0.
   -5000001    1    1    2    0    0  0.29213039793E+03  0.10549317624E+03  0.93287388266E+02  0.36386332110E+03  0.16500000000E+03 0.  0.
<mgrwt>
<rscale>  0 0.77760251E+03</rscale>
<asrwt>0</asrwt>
<pdfrwt beam="1">  1        2 0.67376809E-01 0.77760251E+03</pdfrwt>
<pdfrwt beam="2">  1       -2 0.45787697E-01 0.77760251E+03</pdfrwt>
<totfact> 0.32673466E+02</totfact>
</mgrwt>
</event>
<event>
 4    1  0.5387486E-005  0.7426428E+03  0.7818608E-02  0.9646964E-01
         -2   -1    0    0    0  501 -0.00000000000E+00  0.00000000000E+00  0.71392220332E+02  0.71392220377E+02  0.25500000000E-02 0. -1.
          2   -1    0    0  501    0  0.00000000000E+00 -0.00000000000E+00 -0.19312970773E+04  0.19312970773E+04  0.25500000000E-02 0.  1.
    5000001    1    1    2    0    0  0.17282974216E+03  0.10866190019E+03 -0.22170349502E+03  0.34359128050E+03  0.16500000000E+03 0.  0.
   -5000001    1    1    2    0    0 -0.17282974216E+03 -0.10866190019E+03 -0.16382013619E+04  0.16590980172E+04  0.16500000000E+03 0.  0.
<mgrwt>
<rscale>  0 0.74264281E+03</rscale>
<asrwt>0</asrwt>
<pdfrwt beam="1">  1        2 0.27589955E+00 0.74264281E+03</pdfrwt>
<pdfrwt beam="2">  1       -2 0.10198890E-01 0.74264281E+03</pdfrwt>
<totfact> 0.58948599E+02</totfact>
</mgrwt>
</event>
<event>
 4    1  0.5387486E-005  0.5484011E+03  0.7818608E-02  0.1001865E+00
          2   -1    0    0  501    0  0.00000000000E+00  0.00000000000E+00  0.88509064891E+03  0.88509064892E+03  0.25500000000E-02 0.  1.
         -2   -1    0    0    0  501 -0.00000000000E+00 -0.00000000000E+00 -0.84947153994E+02  0.84947154032E+02  0.25500000000E-02 0. -1.
    5000001    1    1    2    0    0  0.21107932563E+03  0.56170866981E+02  0.37203210307E+03  0.46189017495E+03  0.16500000000E+03 0.  0.
   -5000001    1    1    2    0    0 -0.21107932563E+03 -0.56170866981E+02  0.42811139185E+03  0.50814762800E+03  0.16500000000E+03 0.  0.
<mgrwt>
<rscale>  0 0.54840106E+03</rscale>
<asrwt>0</asrwt>
<pdfrwt beam="1">  1        2 0.12644153E+00 0.54840106E+03</pdfrwt>
<pdfrwt beam="2">  1       -2 0.12135307E-01 0.54840106E+03</pdfrwt>
<totfact> 0.16649107E+03</totfact>
</mgrwt>
</event>
<event>
 4    1  0.5387486E-005  0.5129741E+03  0.7818608E-02  0.1010447E+00
         -2   -1    0    0    0  501 -0.00000000000E+00  0.00000000000E+00  0.33060018218E+02  0.33060018316E+02  0.25500000000E-02 0. -1.
          2   -1    0    0  501    0  0.00000000000E+00 -0.00000000000E+00 -0.19898842241E+04  0.19898842241E+04  0.25500000000E-02 0.  1.
    5000001    1    1    2    0    0  0.13959509546E+03  0.13424305156E+03 -0.11063574603E+04  0.11352355779E+04  0.16500000000E+03 0.  0.
   -5000001    1    1    2    0    0 -0.13959509546E+03 -0.13424305156E+03 -0.85046674568E+03  0.88770866452E+03  0.16500000000E+03 0.  0.
<mgrwt>
<rscale>  0 0.51297411E+03</rscale>
<asrwt>0</asrwt>
<pdfrwt beam="1">  1        2 0.28426910E+00 0.51297411E+03</pdfrwt>
<pdfrwt beam="2">  1       -2 0.47228610E-02 0.51297411E+03</pdfrwt>
<totfact> 0.18854151E+03</totfact>
</mgrwt>
</event>
<event>
 4    1  0.5387486E-005  0.4632527E+03  0.7818608E-02  0.1023842E+00
          2   -1    0    0  501    0  0.00000000000E+00  0.00000000000E+00  0.27670213358E+03  0.27670213359E+03  0.25500000000E-02 0. -1.
         -2   -1    0    0    0  501 -0.00000000000E+00 -0.00000000000E+00 -0.19389359122E+03  0.19389359124E+03  0.25500000000E-02 0.  1.
    5000001    1    1    2    0    0 -0.97131901966E+02 -0.13030240838E+03  0.37820407560E+02  0.23466722659E+03  0.16500000000E+03 0.  0.
   -5000001    1    1    2    0    0  0.97131901966E+02  0.13030240838E+03  0.44988134799E+02  0.23592849824E+03  0.16500000000E+03 0.  0.
<mgrwt>
<rscale>  0 0.46325272E+03</rscale>
<asrwt>0</asrwt>
<pdfrwt beam="1">  1        2 0.39528876E-01 0.46325272E+03</pdfrwt>
<pdfrwt beam="2">  1       -2 0.27699085E-01 0.46325272E+03</pdfrwt>
<totfact> 0.15435352E+03</totfact>
</mgrwt>
</event>
<event>
 4    1  0.5387486E-005  0.3635174E+03  0.7818608E-02  0.1057200E+00
         -2   -1    0    0    0  501 -0.00000000000E+00  0.00000000000E+00  0.41553586216E+02  0.41553586294E+02  0.25500000000E-02 0. -1.
          2   -1    0    0  501    0  0.00000000000E+00 -0.00000000000E+00 -0.79502713609E+03  0.79502713610E+03  0.25500000000E-02 0.  1.
    5000001    1    1    2    0    0  0.47490401161E+02 -0.40525693162E+02 -0.27606597575E+03  0.32762034884E+03  0.16500000000E+03 0.  0.
   -5000001    1    1    2    0    0 -0.47490401161E+02  0.40525693162E+02 -0.47740757412E+03  0.50896037355E+03  0.16500000000E+03 0.  0.
<mgrwt>
<rscale>  0 0.36351742E+03</rscale>
<asrwt>0</asrwt>
<pdfrwt beam="1">  1        2 0.11357530E+00 0.36351742E+03</pdfrwt>
<pdfrwt beam="2">  1       -2 0.59362271E-02 0.36351742E+03</pdfrwt>
<totfact> 0.59432932E+03</totfact>
</mgrwt>
</event>
<event>
 4    1  0.5387486E-005  0.4021814E+03  0.7818608E-02  0.1043027E+00
         -2   -1    0    0    0  501 -0.00000000000E+00  0.00000000000E+00  0.68990610076E+03  0.68990610077E+03  0.25500000000E-02 0. -1.
          2   -1    0    0  501    0  0.00000000000E+00 -0.00000000000E+00 -0.58613012084E+02  0.58613012139E+02  0.25500000000E-02 0.  1.
    5000001    1    1    2    0    0 -0.32921810455E+02 -0.10647135331E+03  0.26325333147E+03  0.33007167587E+03  0.16500000000E+03 0.  0.
   -5000001    1    1    2    0    0  0.32921810455E+02  0.10647135331E+03  0.36803975721E+03  0.41844743704E+03  0.16500000000E+03 0.  0.
<mgrwt>
<rscale>  0 0.40218142E+03</rscale>
<asrwt>0</asrwt>
<pdfrwt beam="1">  1        2 0.83732876E-02 0.40218142E+03</pdfrwt>
<pdfrwt beam="2">  1       -2 0.98558012E-01 0.40218142E+03</pdfrwt>
<totfact> 0.71683520E+02</totfact>
</mgrwt>
</event>
<event>
 4    1  0.5387486E-005  0.3454155E+03  0.7818608E-02  0.1064513E+00
          2   -1    0    0  501    0  0.00000000000E+00  0.00000000000E+00  0.40612075596E+03  0.40612075597E+03  0.25500000000E-02 0.  1.
         -2   -1    0    0    0  501 -0.00000000000E+00 -0.00000000000E+00 -0.73446039115E+02  0.73446039159E+02  0.25500000000E-02 0. -1.
    5000001    1    1    2    0    0  0.44153159317E+01 -0.48085028698E+02  0.14346931679E+03  0.22391987375E+03  0.16500000000E+03 0.  0.
   -5000001    1    1    2    0    0 -0.44153159317E+01  0.48085028698E+02  0.18920540006E+03  0.25564692138E+03  0.16500000000E+03 0.  0.
<mgrwt>
<rscale>  0 0.34541547E+03</rscale>
<asrwt>0</asrwt>
<pdfrwt beam="1">  1        2 0.58017253E-01 0.34541547E+03</pdfrwt>
<pdfrwt beam="2">  1       -2 0.10492291E-01 0.34541547E+03</pdfrwt>
<totfact> 0.52502341E+03</totfact>
</mgrwt>
</event>
<event>
 4    1  0.5387486E-005  0.4802842E+03  0.7818608E-02  0.1019057E+00
          2   -1    0    0  501    0  0.00000000000E+00  0.00000000000E+00  0.20788791396E+04  0.20788791396E+04  0.25500000000E-02 0.  1.
         -2   -1    0    0    0  501 -0.00000000000E+00 -0.00000000000E+00 -0.27740062215E+02  0.27740062332E+02  0.25500000000E-02 0. -1.
    5000001    1    1    2    0    0 -0.12633578582E+03  0.11219700607E+03  0.83466492505E+03  0.86743266947E+03  0.16500000000E+03 0.  0.
   -5000001    1    1    2    0    0  0.12633578582E+03 -0.11219700607E+03  0.12164741523E+04  0.12391865324E+04  0.16500000000E+03 0.  0.
<mgrwt>
<rscale>  0 0.48028424E+03</rscale>
<asrwt>0</asrwt>
<pdfrwt beam="1">  1        2 0.29698271E+00 0.48028424E+03</pdfrwt>
<pdfrwt beam="2">  1       -2 0.39628664E-02 0.48028424E+03</pdfrwt>
<totfact> 0.22312426E+03</totfact>
</mgrwt>
</event>
<event>
 4    1  0.5387486E-005  0.5264092E+03  0.7818608E-02  0.1007107E+00
         -2   -1    0    0    0  501 -0.00000000000E+00  0.00000000000E+00  0.10722665276E+03  0.10722665279E+03  0.25500000000E-02 0. -1.
          2   -1    0    0  501    0  0.00000000000E+00 -0.00000000000E+00 -0.64607699824E+03  0.64607699824E+03  0.25500000000E-02 0.  1.
    5000001    1    1    2    0    0  0.87528552417E+02  0.17719601651E+03 -0.19114942471E+03  0.32065991069E+03  0.16500000000E+03 0.  0.
   -5000001    1    1    2    0    0 -0.87528552417E+02 -0.17719601651E+03 -0.34770092076E+03  0.43264374034E+03  0.16500000000E+03 0.  0.
<mgrwt>
<rscale>  0 0.52640925E+03</rscale>
<asrwt>0</asrwt>
<pdfrwt beam="1">  1        2 0.92296712E-01 0.52640925E+03</pdfrwt>
<pdfrwt beam="2">  1       -2 0.15318094E-01 0.52640925E+03</pdfrwt>
<totfact> 0.16761072E+03</totfact>
</mgrwt>
</event>
<event>
 4    1  0.5387486E-005  0.6706547E+03  0.7818608E-02  0.9768776E-01
          2   -1    0    0  501    0  0.00000000000E+00  0.00000000000E+00  0.53691908294E+03  0.53691908294E+03  0.25500000000E-02 0.  1.
         -2   -1    0    0    0  501 -0.00000000000E+00 -0.00000000000E+00 -0.20942529439E+03  0.20942529440E+03  0.25500000000E-02 0. -1.
    5000001    1    1    2    0    0 -0.22903423079E+03  0.15328610283E+03  0.56622236066E+02  0.32616619355E+03  0.16500000000E+03 0.  0.
   -5000001    1    1    2    0    0  0.22903423079E+03 -0.15328610283E+03  0.27087155248E+03  0.42017818380E+03  0.16500000000E+03 0.  0.
<mgrwt>
<rscale>  0 0.67065472E+03</rscale>
<asrwt>0</asrwt>
<pdfrwt beam="1">  1        2 0.76702726E-01 0.67065472E+03</pdfrwt>
<pdfrwt beam="2">  1       -2 0.29917899E-01 0.67065472E+03</pdfrwt>
<totfact> 0.63993518E+02</totfact>
</mgrwt>
</event>
<event>
 4    1  0.5387486E-005  0.6587081E+03  0.7818608E-02  0.9790575E-01
          2   -1    0    0  501    0  0.00000000000E+00  0.00000000000E+00  0.14082399132E+03  0.14082399134E+03  0.25500000000E-02 0.  1.
         -2   -1    0    0    0  501 -0.00000000000E+00 -0.00000000000E+00 -0.77028141007E+03  0.77028141007E+03  0.25500000000E-02 0. -1.
    5000001    1    1    2    0    0  0.24923365387E+03  0.11650830814E+03 -0.21161523340E+03  0.38431446381E+03  0.16500000000E+03 0.  0.
   -5000001    1    1    2    0    0 -0.24923365387E+03 -0.11650830814E+03 -0.41784218535E+03  0.52679093761E+03  0.16500000000E+03 0.  0.
<mgrwt>
<rscale>  0 0.65870814E+03</rscale>
<asrwt>0</asrwt>
<pdfrwt beam="1">  1        2 0.20117713E-01 0.65870814E+03</pdfrwt>
<pdfrwt beam="2">  1       -2 0.11004020E+00 0.65870814E+03</pdfrwt>
<totfact> 0.18736635E+02</totfact>
</mgrwt>
</event>
<event>
 4    1  0.5387486E-005  0.3942666E+03  0.7818608E-02  0.1045783E+00
          2   -1    0    0  501    0  0.00000000000E+00  0.00000000000E+00  0.13873655225E+04  0.13873655225E+04  0.25500000000E-02 0.  1.
         -2   -1    0    0    0  501 -0.00000000000E+00 -0.00000000000E+00 -0.28011026555E+02  0.28011026672E+02  0.25500000000E-02 0. -1.
    5000001    1    1    2    0    0 -0.27411547335E+02  0.40418330268E+02  0.10249704856E+04  0.10393144523E+04  0.16500000000E+03 0.  0.
   -5000001    1    1    2    0    0  0.27411547335E+02 -0.40418330268E+02  0.33438401030E+03  0.37606209685E+03  0.16500000000E+03 0.  0.
<mgrwt>
<rscale>  0 0.39426657E+03</rscale>
<asrwt>0</asrwt>
<pdfrwt beam="1">  1        2 0.19819511E+00 0.39426657E+03</pdfrwt>
<pdfrwt beam="2">  1       -2 0.40015745E-02 0.39426657E+03</pdfrwt>
<totfact> 0.49151417E+03</totfact>
</mgrwt>
</event>
<event>
 4    1  0.5387486E-005  0.3818132E+03  0.7818608E-02  0.1050266E+00
         -2   -1    0    0    0  501 -0.00000000000E+00  0.00000000000E+00  0.42147228052E+03  0.42147228053E+03  0.25500000000E-02 0. -1.
          2   -1    0    0  501    0  0.00000000000E+00 -0.00000000000E+00 -0.86471470346E+02  0.86471470383E+02  0.25500000000E-02 0.  1.
    5000001    1    1    2    0    0 -0.37182821306E+02 -0.87764705406E+02  0.18296462059E+03  0.26417088807E+03  0.16500000000E+03 0.  0.
   -5000001    1    1    2    0    0  0.37182821306E+02  0.87764705406E+02  0.15203618959E+03  0.24377286284E+03  0.16500000000E+03 0.  0.
<mgrwt>
<rscale>  0 0.38181319E+03</rscale>
<asrwt>0</asrwt>
<pdfrwt beam="1">  1        2 0.12353067E-01 0.38181319E+03</pdfrwt>
<pdfrwt beam="2">  1       -2 0.60210325E-01 0.38181319E+03</pdfrwt>
<totfact> 0.13039819E+03</totfact>
</mgrwt>
</event>
<event>
 4    1  0.5387486E-005  0.5431023E+03  0.7818608E-02  0.1003103E+00
         -2   -1    0    0    0  501 -0.00000000000E+00  0.00000000000E+00  0.81392192006E+02  0.81392192046E+02  0.25500000000E-02 0. -1.
          2   -1    0    0  501    0  0.00000000000E+00 -0.00000000000E+00 -0.90598389045E+03  0.90598389045E+03  0.25500000000E-02 0.  1.
    5000001    1    1    2    0    0  0.14225551063E+03  0.16208950992E+03 -0.40808081964E+03  0.49016792519E+03  0.16500000000E+03 0.  0.
   -5000001    1    1    2    0    0 -0.14225551063E+03 -0.16208950992E+03 -0.41651087880E+03  0.49720815730E+03  0.16500000000E+03 0.  0.
<mgrwt>
<rscale>  0 0.54310225E+03</rscale>
<asrwt>0</asrwt>
<pdfrwt beam="1">  1        2 0.12942626E+00 0.54310225E+03</pdfrwt>
<pdfrwt beam="2">  1       -2 0.11627457E-01 0.54310225E+03</pdfrwt>
<totfact> 0.17314195E+03</totfact>
</mgrwt>
</event>
<event>
 4    1  0.5387486E-005  0.4558482E+03  0.7818608E-02  0.1025992E+00
         -2   -1    0    0    0  501 -0.00000000000E+00  0.00000000000E+00  0.85596681834E+02  0.85596681872E+02  0.25500000000E-02 0.  1.
          2   -1    0    0  501    0  0.00000000000E+00 -0.00000000000E+00 -0.60690910121E+03  0.60690910122E+03  0.25500000000E-02 0. -1.
    5000001    1    1    2    0    0 -0.83486089149E+02 -0.97954795052E+02 -0.12343206400E+03  0.24295173055E+03  0.16500000000E+03 0.  0.
   -5000001    1    1    2    0    0  0.83486089149E+02  0.97954795052E+02 -0.39788035538E+03  0.44955405254E+03  0.16500000000E+03 0.  0.
<mgrwt>
<rscale>  0 0.45584824E+03</rscale>
<asrwt>0</asrwt>
<pdfrwt beam="1">  1        2 0.86701298E-01 0.45584824E+03</pdfrwt>
<pdfrwt beam="2">  1       -2 0.12228098E-01 0.45584824E+03</pdfrwt>
<totfact> 0.26211425E+03</totfact>
</mgrwt>
</event>
<event>
 4    1  0.5387486E-005  0.4073464E+03  0.7818608E-02  0.1041265E+00
          2   -1    0    0  501    0  0.00000000000E+00  0.00000000000E+00  0.19990042260E+04  0.19990042260E+04  0.25500000000E-02 0.  1.
         -2   -1    0    0    0  501 -0.00000000000E+00 -0.00000000000E+00 -0.20751715318E+02  0.20751715475E+02  0.25500000000E-02 0. -1.
    5000001    1    1    2    0    0  0.61282594866E+02 -0.54561911997E+02  0.55900163874E+03  0.58859187115E+03  0.16500000000E+03 0.  0.
   -5000001    1    1    2    0    0 -0.61282594866E+02  0.54561911997E+02  0.14192508719E+04  0.14311640703E+04  0.16500000000E+03 0.  0.
<mgrwt>
<rscale>  0 0.40734637E+03</rscale>
<asrwt>0</asrwt>
<pdfrwt beam="1">  1        2 0.28557190E+00 0.40734637E+03</pdfrwt>
<pdfrwt beam="2">  1       -2 0.29645321E-02 0.40734637E+03</pdfrwt>
<totfact> 0.38047496E+03</totfact>
</mgrwt>
</event>
<event>
 4    1  0.5387486E-005  0.8588626E+03  0.7818608E-02  0.9478518E-01
          2   -1    0    0  501    0  0.00000000000E+00  0.00000000000E+00  0.26186040822E+03  0.26186040823E+03  0.25500000000E-02 0.  1.
         -2   -1    0    0    0  501 -0.00000000000E+00 -0.00000000000E+00 -0.70423489851E+03  0.70423489851E+03  0.25500000000E-02 0. -1.
    5000001    1    1    2    0    0 -0.10140258063E+03 -0.33865411407E+03 -0.19285619668E+02  0.39059701415E+03  0.16500000000E+03 0.  0.
   -5000001    1    1    2    0    0  0.10140258063E+03  0.33865411407E+03 -0.42308887062E+03  0.57549829259E+03  0.16500000000E+03 0.  0.
<mgrwt>
<rscale>  0 0.85886259E+03</rscale>
<asrwt>0</asrwt>
<pdfrwt beam="1">  1        2 0.37408630E-01 0.85886259E+03</pdfrwt>
<pdfrwt beam="2">  1       -2 0.10060498E+00 0.85886259E+03</pdfrwt>
<totfact> 0.11361438E+02</totfact>
</mgrwt>
</event>
<event>
 4    1  0.5387486E-005  0.7140804E+03  0.7818608E-02  0.9693451E-01
          2   -1    0    0  501    0  0.00000000000E+00  0.00000000000E+00  0.10262462495E+04  0.10262462495E+04  0.25500000000E-02 0.  1.
         -2   -1    0    0    0  501 -0.00000000000E+00 -0.00000000000E+00 -0.12421746331E+03  0.12421746334E+03  0.25500000000E-02 0. -1.
    5000001    1    1    2    0    0 -0.25882188752E+03  0.15067016977E+03  0.28543439922E+03  0.44540775226E+03  0.16500000000E+03 0.  0.
   -5000001    1    1    2    0    0  0.25882188752E+03 -0.15067016977E+03  0.61659438698E+03  0.70505596059E+03  0.16500000000E+03 0.  0.
<mgrwt>
<rscale>  0 0.71408040E+03</rscale>
<asrwt>0</asrwt>
<pdfrwt beam="1">  1        2 0.14660661E+00 0.71408040E+03</pdfrwt>
<pdfrwt beam="2">  1       -2 0.17745352E-01 0.71408040E+03</pdfrwt>
<totfact> 0.71425114E+02</totfact>
</mgrwt>
</event>
<event>
 4    1  0.5387486E-005  0.8260616E+03  0.7818608E-02  0.9523042E-01
         -2   -1    0    0    0  501 -0.00000000000E+00  0.00000000000E+00  0.11461952506E+03  0.11461952509E+03  0.25500000000E-02 0. -1.
          2   -1    0    0  501    0  0.00000000000E+00 -0.00000000000E+00 -0.14883542814E+04  0.14883542814E+04  0.25500000000E-02 0.  1.
    5000001    1    1    2    0    0 -0.37524124256E+03 -0.29851929919E+02 -0.76622257115E+03  0.86949362066E+03  0.16500000000E+03 0.  0.
   -5000001    1    1    2    0    0  0.37524124256E+03  0.29851929919E+02 -0.60751218515E+03  0.73348018579E+03  0.16500000000E+03 0.  0.
<mgrwt>
<rscale>  0 0.82606165E+03</rscale>
<asrwt>0</asrwt>
<pdfrwt beam="1">  1        2 0.21262203E+00 0.82606165E+03</pdfrwt>
<pdfrwt beam="2">  1       -2 0.16374219E-01 0.82606165E+03</pdfrwt>
<totfact> 0.45014919E+02</totfact>
</mgrwt>
</event>
<event>
 4    1  0.5387486E-005  0.4035611E+03  0.7818608E-02  0.1042554E+00
         -2   -1    0    0    0  501 -0.00000000000E+00  0.00000000000E+00  0.86082685100E+03  0.86082685100E+03  0.25500000000E-02 0. -1.
          2   -1    0    0  501    0  0.00000000000E+00 -0.00000000000E+00 -0.47297994279E+02  0.47297994347E+02  0.25500000000E-02 0.  1.
    5000001    1    1    2    0    0  0.92835195663E+02 -0.69798035840E+02  0.40565254201E+03  0.45306635740E+03  0.16500000000E+03 0.  0.
   -5000001    1    1    2    0    0 -0.92835195663E+02  0.69798035840E+02  0.40787631470E+03  0.45505848795E+03  0.16500000000E+03 0.  0.
<mgrwt>
<rscale>  0 0.40356107E+03</rscale>
<asrwt>0</asrwt>
<pdfrwt beam="1">  1        2 0.67568564E-02 0.40356107E+03</pdfrwt>
<pdfrwt beam="2">  1       -2 0.12297526E+00 0.40356107E+03</pdfrwt>
<totfact> 0.55672381E+02</totfact>
</mgrwt>
</event>
<event>
 4    1  0.5387486E-005  0.3814027E+03  0.7818608E-02  0.1050417E+00
         -2   -1    0    0    0  501 -0.00000000000E+00  0.00000000000E+00  0.26783263173E+02  0.26783263294E+02  0.25500000000E-02 0. -1.
          2   -1    0    0  501    0  0.00000000000E+00 -0.00000000000E+00 -0.13578257187E+04  0.13578257187E+04  0.25500000000E-02 0.  1.
    5000001    1    1    2    0    0 -0.75175731264E+02  0.44785438237E+02 -0.52563056842E+03  0.55782579764E+03  0.16500000000E+03 0.  0.
   -5000001    1    1    2    0    0  0.75175731264E+02 -0.44785438237E+02 -0.80541188710E+03  0.82678318435E+03  0.16500000000E+03 0.  0.
<mgrwt>
<rscale>  0 0.38140269E+03</rscale>
<asrwt>0</asrwt>
<pdfrwt beam="1">  1        2 0.19397506E+00 0.38140269E+03</pdfrwt>
<pdfrwt beam="2">  1       -2 0.38261813E-02 0.38140269E+03</pdfrwt>
<totfact> 0.54509461E+03</totfact>
</mgrwt>
</event>
<event>
 4    1  0.5387486E-005  0.4820160E+03  0.7818608E-02  0.1018583E+00
          2   -1    0    0  501    0  0.00000000000E+00  0.00000000000E+00  0.34092081443E+03  0.34092081443E+03  0.25500000000E-02 0.  1.
         -2   -1    0    0    0  501 -0.00000000000E+00 -0.00000000000E+00 -0.17037636612E+03  0.17037636614E+03  0.25500000000E-02 0. -1.
    5000001    1    1    2    0    0 -0.16455753304E+03  0.61224632701E+02  0.79251870886E+02  0.25364048646E+03  0.16500000000E+03 0.  0.
   -5000001    1    1    2    0    0  0.16455753304E+03 -0.61224632701E+02  0.91292577422E+02  0.25765669412E+03  0.16500000000E+03 0.  0.
<mgrwt>
<rscale>  0 0.48201597E+03</rscale>
<asrwt>0</asrwt>
<pdfrwt beam="1">  1        2 0.48702973E-01 0.48201597E+03</pdfrwt>
<pdfrwt beam="2">  1       -2 0.24339481E-01 0.48201597E+03</pdfrwt>
<totfact> 0.15494311E+03</totfact>
</mgrwt>
</event>
<event>
 4    1  0.5387486E-005  0.3815772E+03  0.7818608E-02  0.1050352E+00
          2   -1    0    0  501    0  0.00000000000E+00  0.00000000000E+00  0.24880165828E+04  0.24880165828E+04  0.25500000000E-02 0.  1.
         -2   -1    0    0    0  501 -0.00000000000E+00 -0.00000000000E+00 -0.14630242726E+02  0.14630242949E+02  0.25500000000E-02 0. -1.
    5000001    1    1    2    0    0  0.91701214596E+02  0.35364274396E+01  0.14167489734E+04  0.14292740370E+04  0.16500000000E+03 0.  0.
   -5000001    1    1    2    0    0 -0.91701214596E+02 -0.35364274396E+01  0.10566373666E+04  0.10733727887E+04  0.16500000000E+03 0.  0.
<mgrwt>
<rscale>  0 0.38157718E+03</rscale>
<asrwt>0</asrwt>
<pdfrwt beam="1">  1        2 0.35543050E+00 0.38157718E+03</pdfrwt>
<pdfrwt beam="2">  1       -2 0.20900373E-02 0.38157718E+03</pdfrwt>
<totfact> 0.36659267E+03</totfact>
</mgrwt>
</event>
<event>
 4    1  0.5387486E-005  0.5144715E+03  0.7818608E-02  0.1010069E+00
         -2   -1    0    0    0  501 -0.00000000000E+00  0.00000000000E+00  0.64669124758E+02  0.64669124808E+02  0.25500000000E-02 0. -1.
          2   -1    0    0  501    0  0.00000000000E+00 -0.00000000000E+00 -0.10232119283E+04  0.10232119283E+04  0.25500000000E-02 0.  1.
    5000001    1    1    2    0    0  0.17521983596E+03 -0.90739385812E+02 -0.47272212376E+03  0.53816989264E+03  0.16500000000E+03 0.  0.
   -5000001    1    1    2    0    0 -0.17521983596E+03  0.90739385812E+02 -0.48582067982E+03  0.54971116051E+03  0.16500000000E+03 0.  0.
<mgrwt>
<rscale>  0 0.51447146E+03</rscale>
<asrwt>0</asrwt>
<pdfrwt beam="1">  1        2 0.14617312E+00 0.51447146E+03</pdfrwt>
<pdfrwt beam="2">  1       -2 0.92384470E-02 0.51447146E+03</pdfrwt>
<totfact> 0.21276514E+03</totfact>
</mgrwt>
</event>
<event>
 4    1  0.5387486E-005  0.9811150E+03  0.7818608E-02  0.9329503E-01
          2   -1    0    0  501    0  0.00000000000E+00  0.00000000000E+00  0.61184925127E+03  0.61184925128E+03  0.25500000000E-02 0.  1.
         -2   -1    0    0    0  501 -0.00000000000E+00 -0.00000000000E+00 -0.39331039771E+03  0.39331039772E+03  0.25500000000E-02 0. -1.
    5000001    1    1    2    0    0 -0.44137149804E+03 -0.90940224008E+02  0.50777308662E+01  0.47992677252E+03  0.16500000000E+03 0.  0.
   -5000001    1    1    2    0    0  0.44137149804E+03  0.90940224008E+02  0.21346112270E+03  0.52523287648E+03  0.16500000000E+03 0.  0.
<mgrwt>
<rscale>  0 0.98111502E+03</rscale>
<asrwt>0</asrwt>
<pdfrwt beam="1">  1        2 0.87407035E-01 0.98111502E+03</pdfrwt>
<pdfrwt beam="2">  1       -2 0.56187201E-01 0.98111502E+03</pdfrwt>
<totfact> 0.15756994E+02</totfact>
</mgrwt>
</event>
<event>
 4    1  0.5387486E-005  0.3927928E+03  0.7818608E-02  0.1046304E+00
         -2   -1    0    0    0  501 -0.00000000000E+00  0.00000000000E+00  0.14069634252E+02  0.14069634483E+02  0.25500000000E-02 0. -1.
          2   -1    0    0  501    0  0.00000000000E+00 -0.00000000000E+00 -0.27414752234E+04  0.27414752234E+04  0.25500000000E-02 0.  1.
    5000001    1    1    2    0    0  0.86671045779E+02  0.59603309484E+02 -0.14815360976E+04  0.14944024335E+04  0.16500000000E+03 0.  0.
   -5000001    1    1    2    0    0 -0.86671045779E+02 -0.59603309484E+02 -0.12458694915E+04  0.12611424244E+04  0.16500000000E+03 0.  0.
<mgrwt>
<rscale>  0 0.39279284E+03</rscale>
<asrwt>0</asrwt>
<pdfrwt beam="1">  1        2 0.39163898E+00 0.39279284E+03</pdfrwt>
<pdfrwt beam="2">  1       -2 0.20099495E-02 0.39279284E+03</pdfrwt>
<totfact> 0.28814151E+03</totfact>
</mgrwt>
</event>
<event>
 4    1  0.5387486E-005  0.4367946E+03  0.7818608E-02  0.1031735E+00
          2   -1    0    0  501    0  0.00000000000E+00  0.00000000000E+00  0.22974275162E+03  0.22974275163E+03  0.25500000000E-02 0.  1.
         -2   -1    0    0    0  501 -0.00000000000E+00 -0.00000000000E+00 -0.20761208702E+03  0.20761208704E+03  0.25500000000E-02 0. -1.
    5000001    1    1    2    0    0 -0.97144812792E+02 -0.97829360596E+02  0.49385478340E+02  0.22061646339E+03  0.16500000000E+03 0.  0.
   -5000001    1    1    2    0    0  0.97144812792E+02  0.97829360596E+02 -0.27254813744E+02  0.21673837528E+03  0.16500000000E+03 0.  0.
<mgrwt>
<rscale>  0 0.43679456E+03</rscale>
<asrwt>0</asrwt>
<pdfrwt beam="1">  1        2 0.32820393E-01 0.43679456E+03</pdfrwt>
<pdfrwt beam="2">  1       -2 0.29658869E-01 0.43679456E+03</pdfrwt>
<totfact> 0.16718721E+03</totfact>
</mgrwt>
</event>
<event>
 4    1  0.5387486E-005  0.3863683E+03  0.7818608E-02  0.1048605E+00
          2   -1    0    0  501    0  0.00000000000E+00  0.00000000000E+00  0.22783927776E+04  0.22783927776E+04  0.25500000000E-02 0.  1.
         -2   -1    0    0    0  501 -0.00000000000E+00 -0.00000000000E+00 -0.16380022210E+02  0.16380022408E+02  0.25500000000E-02 0. -1.
    5000001    1    1    2    0    0  0.62587247338E+02 -0.53656056855E+02  0.14721431694E+04  0.14836531425E+04  0.16500000000E+03 0.  0.
   -5000001    1    1    2    0    0 -0.62587247338E+02  0.53656056855E+02  0.78986958601E+03  0.81111965756E+03  0.16500000000E+03 0.  0.
<mgrwt>
<rscale>  0 0.38636835E+03</rscale>
<asrwt>0</asrwt>
<pdfrwt beam="1">  1        2 0.32548454E+00 0.38636835E+03</pdfrwt>
<pdfrwt beam="2">  1       -2 0.23400042E-02 0.38636835E+03</pdfrwt>
<totfact> 0.39446168E+03</totfact>
</mgrwt>
</event>
<event>
 4    1  0.5387486E-005  0.6368741E+03  0.7818608E-02  0.9831726E-01
         -2   -1    0    0    0  501 -0.00000000000E+00  0.00000000000E+00  0.22277540878E+03  0.22277540879E+03  0.25500000000E-02 0. -1.
          2   -1    0    0  501    0  0.00000000000E+00 -0.00000000000E+00 -0.45517661762E+03  0.45517661763E+03  0.25500000000E-02 0.  1.
    5000001    1    1    2    0    0 -0.22142839312E+03  0.14234845388E+03 -0.19059030495E+03  0.36447672071E+03  0.16500000000E+03 0.  0.
   -5000001    1    1    2    0    0  0.22142839312E+03 -0.14234845388E+03 -0.41810903893E+02  0.31347530570E+03  0.16500000000E+03 0.  0.
<mgrwt>
<rscale>  0 0.63687411E+03</rscale>
<asrwt>0</asrwt>
<pdfrwt beam="1">  1        2 0.65025231E-01 0.63687411E+03</pdfrwt>
<pdfrwt beam="2">  1       -2 0.31825059E-01 0.63687411E+03</pdfrwt>
<totfact> 0.68911967E+02</totfact>
</mgrwt>
</event>
<event>
 4    1  0.5387486E-005  0.4711236E+03  0.7818608E-02  0.1021604E+00
          2   -1    0    0  501    0  0.00000000000E+00  0.00000000000E+00  0.39826401737E+03  0.39826401738E+03  0.25500000000E-02 0.  1.
         -2   -1    0    0    0  501 -0.00000000000E+00 -0.00000000000E+00 -0.13932809680E+03  0.13932809682E+03  0.25500000000E-02 0. -1.
    5000001    1    1    2    0    0  0.52811084311E+02 -0.14414808049E+03  0.20766923898E+03  0.30646238359E+03  0.16500000000E+03 0.  0.
   -5000001    1    1    2    0    0 -0.52811084311E+02  0.14414808049E+03  0.51266681593E+02  0.23112973062E+03  0.16500000000E+03 0.  0.
<mgrwt>
<rscale>  0 0.47112363E+03</rscale>
<asrwt>0</asrwt>
<pdfrwt beam="1">  1        2 0.56894860E-01 0.47112363E+03</pdfrwt>
<pdfrwt beam="2">  1       -2 0.19904014E-01 0.47112363E+03</pdfrwt>
<totfact> 0.18586777E+03</totfact>
</mgrwt>
</event>
<event>
 4    1  0.5387486E-005  0.7982234E+03  0.7818608E-02  0.9562592E-01
         -2   -1    0    0    0  501 -0.00000000000E+00  0.00000000000E+00  0.12283840846E+03  0.12283840848E+03  0.25500000000E-02 0. -1.
          2   -1    0    0  501    0  0.00000000000E+00 -0.00000000000E+00 -0.12967453518E+04  0.12967453518E+04  0.25500000000E-02 0.  1.
    5000001    1    1    2    0    0 -0.16158498640E+03 -0.31368783969E+03 -0.43236953687E+03  0.58196063871E+03  0.16500000000E+03 0.  0.
   -5000001    1    1    2    0    0  0.16158498640E+03  0.31368783969E+03 -0.74153740652E+03  0.83762312161E+03  0.16500000000E+03 0.  0.
<mgrwt>
<rscale>  0 0.79822337E+03</rscale>
<asrwt>0</asrwt>
<pdfrwt beam="1">  1        2 0.18524933E+00 0.79822337E+03</pdfrwt>
<pdfrwt beam="2">  1       -2 0.17548345E-01 0.79822337E+03</pdfrwt>
<totfact> 0.50747208E+02</totfact>
</mgrwt>
</event>
<event>
 4    1  0.5387486E-005  0.5136916E+03  0.7818608E-02  0.1010266E+00
         -2   -1    0    0    0  501 -0.00000000000E+00  0.00000000000E+00  0.36597304909E+03  0.36597304909E+03  0.25500000000E-02 0. -1.
          2   -1    0    0  501    0  0.00000000000E+00 -0.00000000000E+00 -0.18025853033E+03  0.18025853035E+03  0.25500000000E-02 0.  1.
    5000001    1    1    2    0    0 -0.11636034578E+03 -0.20632634514E+02  0.26024325064E+03  0.33002573412E+03  0.16500000000E+03 0.  0.
   -5000001    1    1    2    0    0  0.11636034578E+03  0.20632634514E+02 -0.74528731888E+02  0.21620584533E+03  0.16500000000E+03 0.  0.
<mgrwt>
<rscale>  0 0.51369160E+03</rscale>
<asrwt>0</asrwt>
<pdfrwt beam="1">  1        2 0.25751219E-01 0.51369160E+03</pdfrwt>
<pdfrwt beam="2">  1       -2 0.52281864E-01 0.51369160E+03</pdfrwt>
<totfact> 0.73523981E+02</totfact>
</mgrwt>
</event>
<event>
 4    1  0.5387486E-005  0.3851938E+03  0.7818608E-02  0.1049031E+00
          2   -1    0    0  501    0  0.00000000000E+00  0.00000000000E+00  0.10202438456E+04  0.10202438456E+04  0.25500000000E-02 0.  1.
         -2   -1    0    0    0  501 -0.00000000000E+00 -0.00000000000E+00 -0.36357547547E+02  0.36357547636E+02  0.25500000000E-02 0. -1.
    5000001    1    1    2    0    0  0.54578450157E+01 -0.97806123529E+02  0.53724385468E+03  0.57048381683E+03  0.16500000000E+03 0.  0.
   -5000001    1    1    2    0    0 -0.54578450157E+01  0.97806123529E+02  0.44664244337E+03  0.48611757640E+03  0.16500000000E+03 0.  0.
<mgrwt>
<rscale>  0 0.38519379E+03</rscale>
<asrwt>0</asrwt>
<pdfrwt beam="1">  1        2 0.14574913E+00 0.38519379E+03</pdfrwt>
<pdfrwt beam="2">  1       -2 0.51939351E-02 0.38519379E+03</pdfrwt>
<totfact> 0.52639684E+03</totfact>
</mgrwt>
</event>
<event>
 4    1  0.5387486E-005  0.8611688E+03  0.7818608E-02  0.9475468E-01
         -2   -1    0    0    0  501 -0.00000000000E+00  0.00000000000E+00  0.62229284553E+02  0.62229284605E+02  0.25500000000E-02 0. -1.
          2   -1    0    0  501    0  0.00000000000E+00 -0.00000000000E+00 -0.29793519180E+04  0.29793519180E+04  0.25500000000E-02 0.  1.
    5000001    1    1    2    0    0  0.25579891688E+03  0.14099498429E+03 -0.24119530754E+04  0.24351704888E+04  0.16500000000E+03 0.  0.
   -5000001    1    1    2    0    0 -0.25579891688E+03 -0.14099498429E+03 -0.50516955803E+03  0.60641071381E+03  0.16500000000E+03 0.  0.
<mgrwt>
<rscale>  0 0.86116883E+03</rscale>
<asrwt>0</asrwt>
<pdfrwt beam="1">  1        2 0.42562161E+00 0.86116883E+03</pdfrwt>
<pdfrwt beam="2">  1       -2 0.88898997E-02 0.86116883E+03</pdfrwt>
<totfact> 0.20831569E+02</totfact>
</mgrwt>
</event>
<event>
 4    1  0.5387486E-005  0.4706996E+03  0.7818608E-02  0.1021723E+00
          2   -1    0    0  501    0  0.00000000000E+00  0.00000000000E+00  0.11144001430E+04  0.11144001430E+04  0.25500000000E-02 0.  1.
         -2   -1    0    0    0  501 -0.00000000000E+00 -0.00000000000E+00 -0.49703436391E+02  0.49703436456E+02  0.25500000000E-02 0. -1.
    5000001    1    1    2    0    0  0.14534014116E+03  0.44097441146E+01  0.73958046128E+03  0.77158762379E+03  0.16500000000E+03 0.  0.
   -5000001    1    1    2    0    0 -0.14534014116E+03 -0.44097441146E+01  0.32511624531E+03  0.39251595565E+03  0.16500000000E+03 0.  0.
<mgrwt>
<rscale>  0 0.47069955E+03</rscale>
<asrwt>0</asrwt>
<pdfrwt beam="1">  1        2 0.15920001E+00 0.47069955E+03</pdfrwt>
<pdfrwt beam="2">  1       -2 0.71004914E-02 0.47069955E+03</pdfrwt>
<totfact> 0.28583049E+03</totfact>
</mgrwt>
</event>
<event>
 4    1  0.5387486E-005  0.4108632E+03  0.7818608E-02  0.1040082E+00
         -2   -1    0    0    0  501 -0.00000000000E+00  0.00000000000E+00  0.87490039403E+02  0.87490039440E+02  0.25500000000E-02 0. -1.
          2   -1    0    0  501    0  0.00000000000E+00 -0.00000000000E+00 -0.48236512531E+03  0.48236512532E+03  0.25500000000E-02 0.  1.
    5000001    1    1    2    0    0 -0.47403534310E+02 -0.65235053260E+02 -0.32511747820E+03  0.37340203785E+03  0.16500000000E+03 0.  0.
   -5000001    1    1    2    0    0  0.47403534310E+02  0.65235053260E+02 -0.69757607708E+02  0.19645312691E+03  0.16500000000E+03 0.  0.
<mgrwt>
<rscale>  0 0.41086321E+03</rscale>
<asrwt>0</asrwt>
<pdfrwt beam="1">  1        2 0.68909302E-01 0.41086321E+03</pdfrwt>
<pdfrwt beam="2">  1       -2 0.12498577E-01 0.41086321E+03</pdfrwt>
<totfact> 0.32821806E+03</totfact>
</mgrwt>
</event>
<event>
 4    1  0.5387486E-005  0.4617067E+03  0.7818608E-02  0.1024287E+00
          2   -1    0    0  501    0  0.00000000000E+00  0.00000000000E+00  0.93060223300E+03  0.93060223301E+03  0.25500000000E-02 0.  1.
         -2   -1    0    0    0  501 -0.00000000000E+00 -0.00000000000E+00 -0.57267499470E+02  0.57267499527E+02  0.25500000000E-02 0. -1.
    5000001    1    1    2    0    0 -0.13402871089E+03 -0.41169632945E+02  0.60796445109E+03  0.64537152696E+03  0.16500000000E+03 0.  0.
   -5000001    1    1    2    0    0  0.13402871089E+03  0.41169632945E+02  0.26537028244E+03  0.34249820558E+03  0.16500000000E+03 0.  0.
<mgrwt>
<rscale>  0 0.46170667E+03</rscale>
<asrwt>0</asrwt>
<pdfrwt beam="1">  1        2 0.13294318E+00 0.46170667E+03</pdfrwt>
<pdfrwt beam="2">  1       -2 0.81810712E-02 0.46170667E+03</pdfrwt>
<totfact> 0.29430703E+03</totfact>
</mgrwt>
</event>
<event>
 4    1  0.5387486E-005  0.5002350E+03  0.7818608E-02  0.1013718E+00
         -2   -1    0    0    0  501 -0.00000000000E+00  0.00000000000E+00  0.82603294200E+02  0.82603294239E+02  0.25500000000E-02 0. -1.
          2   -1    0    0  501    0  0.00000000000E+00 -0.00000000000E+00 -0.75733972388E+03  0.75733972388E+03  0.25500000000E-02 0.  1.
    5000001    1    1    2    0    0 -0.73577834922E+02  0.13206631400E+03 -0.14980063044E+03  0.26929619003E+03  0.16500000000E+03 0.  0.
   -5000001    1    1    2    0    0  0.73577834922E+02 -0.13206631400E+03 -0.52493579924E+03  0.57064682809E+03  0.16500000000E+03 0.  0.
<mgrwt>
<rscale>  0 0.50023497E+03</rscale>
<asrwt>0</asrwt>
<pdfrwt beam="1">  1        2 0.10819139E+00 0.50023497E+03</pdfrwt>
<pdfrwt beam="2">  1       -2 0.11800471E-01 0.50023497E+03</pdfrwt>
<totfact> 0.21293762E+03</totfact>
</mgrwt>
</event>
<event>
 4    1  0.5387486E-005  0.4282792E+03  0.7818608E-02  0.1034405E+00
         -2   -1    0    0    0  501 -0.00000000000E+00  0.00000000000E+00  0.23892597004E+02  0.23892597140E+02  0.25500000000E-02 0. -1.
          2   -1    0    0  501    0  0.00000000000E+00 -0.00000000000E+00 -0.19192459842E+04  0.19192459842E+04  0.25500000000E-02 0.  1.
    5000001    1    1    2    0    0 -0.37681375091E+01  0.85063397942E+02 -0.14316963431E+04  0.14436860460E+04  0.16500000000E+03 0.  0.
   -5000001    1    1    2    0    0  0.37681375091E+01 -0.85063397942E+02 -0.46365704404E+03  0.49945253530E+03  0.16500000000E+03 0.  0.
<mgrwt>
<rscale>  0 0.42827921E+03</rscale>
<asrwt>0</asrwt>
<pdfrwt beam="1">  1        2 0.27417790E+00 0.42827921E+03</pdfrwt>
<pdfrwt beam="2">  1       -2 0.34132294E-02 0.42827921E+03</pdfrwt>
<totfact> 0.33672256E+03</totfact>
</mgrwt>
</event>
<event>
 4    1  0.5387486E-005  0.4146270E+03  0.7818608E-02  0.1038829E+00
          2   -1    0    0  501    0  0.00000000000E+00  0.00000000000E+00  0.36025858612E+03  0.36025858613E+03  0.25500000000E-02 0.  1.
         -2   -1    0    0    0  501 -0.00000000000E+00 -0.00000000000E+00 -0.11930010667E+03  0.11930010670E+03  0.25500000000E-02 0. -1.
    5000001    1    1    2    0    0 -0.11262535111E+03 -0.51511686750E+02  0.14406838210E+03  0.25163191829E+03  0.16500000000E+03 0.  0.
   -5000001    1    1    2    0    0  0.11262535111E+03  0.51511686750E+02  0.96890097349E+02  0.22792677453E+03  0.16500000000E+03 0.  0.
<mgrwt>
<rscale>  0 0.41462700E+03</rscale>
<asrwt>0</asrwt>
<pdfrwt beam="1">  1        2 0.51465512E-01 0.41462700E+03</pdfrwt>
<pdfrwt beam="2">  1       -2 0.17042873E-01 0.41462700E+03</pdfrwt>
<totfact> 0.27027797E+03</totfact>
</mgrwt>
</event>
<event>
 4    1  0.5387486E-005  0.1045153E+04  0.7818608E-02  0.9260362E-01
          2   -1    0    0  501    0  0.00000000000E+00  0.00000000000E+00  0.49765231783E+03  0.49765231784E+03  0.25500000000E-02 0.  1.
         -2   -1    0    0    0  501 -0.00000000000E+00 -0.00000000000E+00 -0.54874941268E+03  0.54874941268E+03  0.25500000000E-02 0. -1.
    5000001    1    1    2    0    0  0.10863159707E+03  0.48178341323E+03 -0.69707189889E+02  0.52535718656E+03  0.16500000000E+03 0.  0.
   -5000001    1    1    2    0    0 -0.10863159707E+03 -0.48178341323E+03  0.18610095044E+02  0.52104454396E+03  0.16500000000E+03 0.  0.
<mgrwt>
<rscale>  0 0.10451534E+04</rscale>
<asrwt>0</asrwt>
<pdfrwt beam="1">  1        2 0.71093188E-01 0.10451534E+04</pdfrwt>
<pdfrwt beam="2">  1       -2 0.78392773E-01 0.10451534E+04</pdfrwt>
<totfact> 0.97378636E+01</totfact>
</mgrwt>
</event>
<event>
 4    1  0.5387486E-005  0.9505500E+03  0.7818608E-02  0.9364508E-01
         -2   -1    0    0    0  501 -0.00000000000E+00  0.00000000000E+00  0.10853051814E+03  0.10853051817E+03  0.25500000000E-02 0. -1.
          2   -1    0    0  501    0  0.00000000000E+00 -0.00000000000E+00 -0.20813162019E+04  0.20813162019E+04  0.25500000000E-02 0.  1.
    5000001    1    1    2    0    0  0.41457413546E+03  0.65485119768E+02 -0.64081756612E+03  0.78360204680E+03  0.16500000000E+03 0.  0.
   -5000001    1    1    2    0    0 -0.41457413546E+03 -0.65485119768E+02 -0.13319681176E+04  0.14062446733E+04  0.16500000000E+03 0.  0.
<mgrwt>
<rscale>  0 0.95055000E+03</rscale>
<asrwt>0</asrwt>
<pdfrwt beam="1">  1        2 0.29733086E+00 0.95055000E+03</pdfrwt>
<pdfrwt beam="2">  1       -2 0.15504361E-01 0.95055000E+03</pdfrwt>
<totfact> 0.24297073E+02</totfact>
</mgrwt>
</event>
<event>
 4    1  0.5387486E-005  0.5458731E+03  0.7818608E-02  0.1002454E+00
          2   -1    0    0  501    0  0.00000000000E+00  0.00000000000E+00  0.14823224680E+03  0.14823224683E+03  0.25500000000E-02 0.  1.
         -2   -1    0    0    0  501 -0.00000000000E+00 -0.00000000000E+00 -0.50255171320E+03  0.50255171321E+03  0.25500000000E-02 0. -1.
    5000001    1    1    2    0    0 -0.21504478400E+02  0.21597866662E+03 -0.19224658117E+03  0.33360601763E+03  0.16500000000E+03 0.  0.
   -5000001    1    1    2    0    0  0.21504478400E+02 -0.21597866662E+03 -0.16207288522E+03  0.31717794241E+03  0.16500000000E+03 0.  0.
<mgrwt>
<rscale>  0 0.54587313E+03</rscale>
<asrwt>0</asrwt>
<pdfrwt beam="1">  1        2 0.21176036E-01 0.54587313E+03</pdfrwt>
<pdfrwt beam="2">  1       -2 0.71793101E-01 0.54587313E+03</pdfrwt>
<totfact> 0.47146086E+02</totfact>
</mgrwt>
</event>
<event>
 4    1  0.5387486E-005  0.6245624E+03  0.7818608E-02  0.9855718E-01
          2   -1    0    0  501    0  0.00000000000E+00  0.00000000000E+00  0.50376202506E+03  0.50376202507E+03  0.25500000000E-02 0.  1.
         -2   -1    0    0    0  501 -0.00000000000E+00 -0.00000000000E+00 -0.19358254577E+03  0.19358254578E+03  0.25500000000E-02 0. -1.
    5000001    1    1    2    0    0 -0.13276464640E+03  0.11357426898E+03 -0.67571070552E+02  0.24963256094E+03  0.16500000000E+03 0.  0.
   -5000001    1    1    2    0    0  0.13276464640E+03 -0.11357426898E+03  0.37775054985E+03  0.44771200991E+03  0.16500000000E+03 0.  0.
<mgrwt>
<rscale>  0 0.62456236E+03</rscale>
<asrwt>0</asrwt>
<pdfrwt beam="1">  1        2 0.71966004E-01 0.62456236E+03</pdfrwt>
<pdfrwt beam="2">  1       -2 0.27654649E-01 0.62456236E+03</pdfrwt>
<totfact> 0.79630156E+02</totfact>
</mgrwt>
</event>
<event>
 4    1  0.5387486E-005  0.5923283E+03  0.7818608E-02  0.9921451E-01
          2   -1    0    0  501    0  0.00000000000E+00  0.00000000000E+00  0.18531304830E+03  0.18531304832E+03  0.25500000000E-02 0.  1.
         -2   -1    0    0    0  501 -0.00000000000E+00 -0.00000000000E+00 -0.47332447578E+03  0.47332447579E+03  0.25500000000E-02 0. -1.
    5000001    1    1    2    0    0 -0.24258241727E+03  0.23925217514E+02 -0.10764052823E+03  0.31341686062E+03  0.16500000000E+03 0.  0.
   -5000001    1    1    2    0    0  0.24258241727E+03 -0.23925217514E+02 -0.18037089924E+03  0.34522066349E+03  0.16500000000E+03 0.  0.
<mgrwt>
<rscale>  0 0.59232829E+03</rscale>
<asrwt>0</asrwt>
<pdfrwt beam="1">  1        2 0.26473293E-01 0.59232829E+03</pdfrwt>
<pdfrwt beam="2">  1       -2 0.67617782E-01 0.59232829E+03</pdfrwt>
<totfact> 0.41516499E+02</totfact>
</mgrwt>
</event>
<event>
 4    1  0.5387486E-005  0.6348356E+03  0.7818608E-02  0.9835658E-01
         -2   -1    0    0    0  501 -0.00000000000E+00  0.00000000000E+00  0.51390388300E+03  0.51390388301E+03  0.25500000000E-02 0. -1.
          2   -1    0    0  501    0  0.00000000000E+00 -0.00000000000E+00 -0.19605621236E+03  0.19605621238E+03  0.25500000000E-02 0.  1.
    5000001    1    1    2    0    0  0.93540032921E+02  0.14421961139E+03 -0.75607229360E+02  0.24998097368E+03  0.16500000000E+03 0.  0.
   -5000001    1    1    2    0    0 -0.93540032921E+02 -0.14421961139E+03  0.39345490000E+03  0.45997912171E+03  0.16500000000E+03 0.  0.
<mgrwt>
<rscale>  0 0.63483557E+03</rscale>
<asrwt>0</asrwt>
<pdfrwt beam="1">  1        2 0.28008030E-01 0.63483557E+03</pdfrwt>
<pdfrwt beam="2">  1       -2 0.73414841E-01 0.63483557E+03</pdfrwt>
<totfact> 0.32529649E+02</totfact>
</mgrwt>
</event>
<event>
 4    1  0.5387486E-005  0.6093581E+03  0.7818608E-02  0.9886179E-01
          2   -1    0    0  501    0  0.00000000000E+00  0.00000000000E+00  0.28495598788E+04  0.28495598788E+04  0.25500000000E-02 0.  1.
         -2   -1    0    0    0  501 -0.00000000000E+00 -0.00000000000E+00 -0.32576721451E+02  0.32576721551E+02  0.25500000000E-02 0. -1.
    5000001    1    1    2    0    0  0.24958827771E+03  0.53380972028E+02  0.15099874385E+04  0.15402697494E+04  0.16500000000E+03 0.  0.
   -5000001    1    1    2    0    0 -0.24958827771E+03 -0.53380972028E+02  0.13069957188E+04  0.13418668509E+04  0.16500000000E+03 0.  0.
<mgrwt>
<rscale>  0 0.60935808E+03</rscale>
<asrwt>0</asrwt>
<pdfrwt beam="1">  1        2 0.40708000E+00 0.60935808E+03</pdfrwt>
<pdfrwt beam="2">  1       -2 0.46538172E-02 0.60935808E+03</pdfrwt>
<totfact> 0.69652151E+02</totfact>
</mgrwt>
</event>
<event>
 4    1  0.5387486E-005  0.5100362E+03  0.7818608E-02  0.1011192E+00
          2   -1    0    0  501    0  0.00000000000E+00  0.00000000000E+00  0.42929524123E+03  0.42929524124E+03  0.25500000000E-02 0.  1.
         -2   -1    0    0    0  501 -0.00000000000E+00 -0.00000000000E+00 -0.15149070628E+03  0.15149070630E+03  0.25500000000E-02 0. -1.
    5000001    1    1    2    0    0 -0.11308097686E+03 -0.14084091189E+03  0.56900790066E+02  0.25116960345E+03  0.16500000000E+03 0.  0.
   -5000001    1    1    2    0    0  0.11308097686E+03  0.14084091189E+03  0.22090374488E+03  0.32961634409E+03  0.16500000000E+03 0.  0.
<mgrwt>
<rscale>  0 0.51003623E+03</rscale>
<asrwt>0</asrwt>
<pdfrwt beam="1">  1        2 0.61327892E-01 0.51003623E+03</pdfrwt>
<pdfrwt beam="2">  1       -2 0.21641529E-01 0.51003623E+03</pdfrwt>
<totfact> 0.14790349E+03</totfact>
</mgrwt>
</event>
<event>
 4    1  0.5387486E-005  0.6971413E+03  0.7818608E-02  0.9722133E-01
          2   -1    0    0  501    0  0.00000000000E+00  0.00000000000E+00  0.93115812701E+03  0.93115812701E+03  0.25500000000E-02 0.  1.
         -2   -1    0    0    0  501 -0.00000000000E+00 -0.00000000000E+00 -0.13048427513E+03  0.13048427515E+03  0.25500000000E-02 0. -1.
    5000001    1    1    2    0    0  0.32362824351E+02  0.27699958832E+03  0.59595288345E+03  0.67835165189E+03  0.16500000000E+03 0.  0.
   -5000001    1    1    2    0    0 -0.32362824351E+02 -0.27699958832E+03  0.20472096843E+03  0.38329075027E+03  0.16500000000E+03 0.  0.
<mgrwt>
<rscale>  0 0.69714129E+03</rscale>
<asrwt>0</asrwt>
<pdfrwt beam="1">  1        2 0.13302259E+00 0.69714129E+03</pdfrwt>
<pdfrwt beam="2">  1       -2 0.18640611E-01 0.69714129E+03</pdfrwt>
<totfact> 0.75190205E+02</totfact>
</mgrwt>
</event>
<event>
 4    1  0.5387486E-005  0.6397113E+03  0.7818608E-02  0.9826279E-01
         -2   -1    0    0    0  501 -0.00000000000E+00  0.00000000000E+00  0.12022286315E+03  0.12022286318E+03  0.25500000000E-02 0. -1.
          2   -1    0    0  501    0  0.00000000000E+00 -0.00000000000E+00 -0.85098319291E+03  0.85098319291E+03  0.25500000000E-02 0.  1.
    5000001    1    1    2    0    0  0.26540690348E+03 -0.54503679490E+02 -0.30331663988E+03  0.43890484108E+03  0.16500000000E+03 0.  0.
   -5000001    1    1    2    0    0 -0.26540690348E+03  0.54503679490E+02 -0.42744368988E+03  0.53230121502E+03  0.16500000000E+03 0.  0.
<mgrwt>
<rscale>  0 0.63971130E+03</rscale>
<asrwt>0</asrwt>
<pdfrwt beam="1">  1        2 0.12156902E+00 0.63971130E+03</pdfrwt>
<pdfrwt beam="2">  1       -2 0.17174695E-01 0.63971130E+03</pdfrwt>
<totfact> 0.97792824E+02</totfact>
</mgrwt>
</event>
<event>
 4    1  0.5387486E-005  0.4485065E+03  0.7818608E-02  0.1028168E+00
         -2   -1    0    0    0  501 -0.00000000000E+00  0.00000000000E+00  0.17407702334E+02  0.17407702520E+02  0.25500000000E-02 0. -1.
          2   -1    0    0  501    0  0.00000000000E+00 -0.00000000000E+00 -0.28889239510E+04  0.28889239510E+04  0.25500000000E-02 0.  1.
    5000001    1    1    2    0    0 -0.21485532113E+02  0.86406084311E+02 -0.22330084537E+04  0.22408657688E+04  0.16500000000E+03 0.  0.
   -5000001    1    1    2    0    0  0.21485532113E+02 -0.86406084311E+02 -0.63850779505E+03  0.66546588480E+03  0.16500000000E+03 0.  0.
<mgrwt>
<rscale>  0 0.44850654E+03</rscale>
<asrwt>0</asrwt>
<pdfrwt beam="1">  1        2 0.41270312E+00 0.44850654E+03</pdfrwt>
<pdfrwt beam="2">  1       -2 0.24868165E-02 0.44850654E+03</pdfrwt>
<totfact> 0.17474937E+03</totfact>
</mgrwt>
</event>
<event>
 4    1  0.5387486E-005  0.5788736E+03  0.7818608E-02  0.9950233E-01
          2   -1    0    0  501    0  0.00000000000E+00  0.00000000000E+00  0.37828324856E+03  0.37828324857E+03  0.25500000000E-02 0.  1.
         -2   -1    0    0    0  501 -0.00000000000E+00 -0.00000000000E+00 -0.22145747814E+03  0.22145747815E+03  0.25500000000E-02 0. -1.
    5000001    1    1    2    0    0  0.19062720370E+03  0.92874417300E+02 -0.33097182104E+02  0.27071167622E+03  0.16500000000E+03 0.  0.
   -5000001    1    1    2    0    0 -0.19062720370E+03 -0.92874417300E+02  0.18992295252E+03  0.32902905050E+03  0.16500000000E+03 0.  0.
<mgrwt>
<rscale>  0 0.57887358E+03</rscale>
<asrwt>0</asrwt>
<pdfrwt beam="1">  1        2 0.54040464E-01 0.57887358E+03</pdfrwt>
<pdfrwt beam="2">  1       -2 0.31636782E-01 0.57887358E+03</pdfrwt>
<totfact> 0.85724065E+02</totfact>
</mgrwt>
</event>
<event>
 4    1  0.5387486E-005  0.5158874E+03  0.7818608E-02  0.1009713E+00
         -2   -1    0    0    0  501 -0.00000000000E+00  0.00000000000E+00  0.50445518789E+02  0.50445518854E+02  0.25500000000E-02 0. -1.
          2   -1    0    0  501    0  0.00000000000E+00 -0.00000000000E+00 -0.13189467271E+04  0.13189467272E+04  0.25500000000E-02 0.  1.
    5000001    1    1    2    0    0  0.10846140554E+03  0.16208517963E+03 -0.53948783260E+03  0.59691507225E+03  0.16500000000E+03 0.  0.
   -5000001    1    1    2    0    0 -0.10846140554E+03 -0.16208517963E+03 -0.72901337576E+03  0.77247717376E+03  0.16500000000E+03 0.  0.
<mgrwt>
<rscale>  0 0.51588740E+03</rscale>
<asrwt>0</asrwt>
<pdfrwt beam="1">  1        2 0.18842094E+00 0.51588740E+03</pdfrwt>
<pdfrwt beam="2">  1       -2 0.72065035E-02 0.51588740E+03</pdfrwt>
<totfact> 0.21503036E+03</totfact>
</mgrwt>
</event>
<event>
 4    1  0.5387486E-005  0.9964344E+03  0.7818608E-02  0.9312464E-01
         -2   -1    0    0    0  501 -0.00000000000E+00  0.00000000000E+00  0.44413485783E+03  0.44413485784E+03  0.25500000000E-02 0. -1.
          2   -1    0    0  501    0  0.00000000000E+00 -0.00000000000E+00 -0.55888518583E+03  0.55888518584E+03  0.25500000000E-02 0.  1.
    5000001    1    1    2    0    0 -0.14149194101E+03 -0.33851126133E+03 -0.35323188267E+03  0.53535745662E+03  0.16500000000E+03 0.  0.
   -5000001    1    1    2    0    0  0.14149194101E+03  0.33851126133E+03  0.23848155467E+03  0.46766258706E+03  0.16500000000E+03 0.  0.
<mgrwt>
<rscale>  0 0.99643443E+03</rscale>
<asrwt>0</asrwt>
<pdfrwt beam="1">  1        2 0.79840741E-01 0.99643443E+03</pdfrwt>
<pdfrwt beam="2">  1       -2 0.63447837E-01 0.99643443E+03</pdfrwt>
<totfact> 0.13558028E+02</totfact>
</mgrwt>
</event>
<event>
 4    1  0.5387486E-005  0.5692853E+03  0.7818608E-02  0.9971261E-01
          2   -1    0    0  501    0  0.00000000000E+00  0.00000000000E+00  0.14007067874E+04  0.14007067874E+04  0.25500000000E-02 0.  1.
         -2   -1    0    0    0  501 -0.00000000000E+00 -0.00000000000E+00 -0.57843246769E+02  0.57843246825E+02  0.25500000000E-02 0. -1.
    5000001    1    1    2    0    0 -0.22697463873E+02 -0.23066258474E+03  0.64909239064E+03  0.70870750981E+03  0.16500000000E+03 0.  0.
   -5000001    1    1    2    0    0  0.22697463873E+02  0.23066258474E+03  0.69377114995E+03  0.74984252438E+03  0.16500000000E+03 0.  0.
<mgrwt>
<rscale>  0 0.56928527E+03</rscale>
<asrwt>0</asrwt>
<pdfrwt beam="1">  1        2 0.20010096E+00 0.56928527E+03</pdfrwt>
<pdfrwt beam="2">  1       -2 0.82633215E-02 0.56928527E+03</pdfrwt>
<totfact> 0.15632753E+03</totfact>
</mgrwt>
</event>
<event>
 4    1  0.5387486E-005  0.4420669E+03  0.7818608E-02  0.1030115E+00
         -2   -1    0    0    0  501 -0.00000000000E+00  0.00000000000E+00  0.34645215936E+02  0.34645216029E+02  0.25500000000E-02 0. -1.
          2   -1    0    0  501    0  0.00000000000E+00 -0.00000000000E+00 -0.14101739685E+04  0.14101739685E+04  0.25500000000E-02 0.  1.
    5000001    1    1    2    0    0 -0.88375169795E+02  0.10547575683E+03 -0.51807945974E+03  0.56086240070E+03  0.16500000000E+03 0.  0.
   -5000001    1    1    2    0    0  0.88375169795E+02 -0.10547575683E+03 -0.85744929279E+03  0.88395678380E+03  0.16500000000E+03 0.  0.
<mgrwt>
<rscale>  0 0.44206688E+03</rscale>
<asrwt>0</asrwt>
<pdfrwt beam="1">  1        2 0.20145339E+00 0.44206688E+03</pdfrwt>
<pdfrwt beam="2">  1       -2 0.49493175E-02 0.44206688E+03</pdfrwt>
<totfact> 0.34558686E+03</totfact>
</mgrwt>
</event>
<event>
 4    1  0.5387486E-005  0.5960580E+03  0.7818608E-02  0.9913618E-01
          2   -1    0    0  501    0  0.00000000000E+00  0.00000000000E+00  0.25191727012E+03  0.25191727013E+03  0.25500000000E-02 0.  1.
         -2   -1    0    0    0  501 -0.00000000000E+00 -0.00000000000E+00 -0.35258111710E+03  0.35258111711E+03  0.25500000000E-02 0. -1.
    5000001    1    1    2    0    0  0.22095057178E+03  0.76269952597E+02 -0.13493996452E+03  0.31633851309E+03  0.16500000000E+03 0.  0.
   -5000001    1    1    2    0    0 -0.22095057178E+03 -0.76269952597E+02  0.34276117538E+02  0.28815987415E+03  0.16500000000E+03 0.  0.
<mgrwt>
<rscale>  0 0.59605796E+03</rscale>
<asrwt>0</asrwt>
<pdfrwt beam="1">  1        2 0.35988182E-01 0.59605796E+03</pdfrwt>
<pdfrwt beam="2">  1       -2 0.50368731E-01 0.59605796E+03</pdfrwt>
<totfact> 0.54451214E+02</totfact>
</mgrwt>
</event>
<event>
 4    1  0.5387486E-005  0.4176904E+03  0.7818608E-02  0.1037821E+00
         -2   -1    0    0    0  501 -0.00000000000E+00  0.00000000000E+00  0.58458063675E+02  0.58458063731E+02  0.25500000000E-02 0. -1.
          2   -1    0    0  501    0  0.00000000000E+00 -0.00000000000E+00 -0.74611276201E+03  0.74611276202E+03  0.25500000000E-02 0.  1.
    5000001    1    1    2    0    0  0.11234689190E+03  0.25624949559E+02 -0.45129768369E+03  0.49413870670E+03  0.16500000000E+03 0.  0.
   -5000001    1    1    2    0    0 -0.11234689190E+03 -0.25624949559E+02 -0.23635701465E+03  0.31043211904E+03  0.16500000000E+03 0.  0.
<mgrwt>
<rscale>  0 0.41769035E+03</rscale>
<asrwt>0</asrwt>
<pdfrwt beam="1">  1        2 0.10658753E+00 0.41769035E+03</pdfrwt>
<pdfrwt beam="2">  1       -2 0.83511524E-02 0.41769035E+03</pdfrwt>
<totfact> 0.37793385E+03</totfact>
</mgrwt>
</event>
<event>
 4    1  0.5387486E-005  0.5711349E+03  0.7818608E-02  0.9967170E-01
         -2   -1    0    0    0  501 -0.00000000000E+00  0.00000000000E+00  0.24902319584E+03  0.24902319585E+03  0.25500000000E-02 0. -1.
          2   -1    0    0  501    0  0.00000000000E+00 -0.00000000000E+00 -0.32747464280E+03  0.32747464281E+03  0.25500000000E-02 0.  1.
    5000001    1    1    2    0    0  0.21578570230E+03  0.61971560797E+02  0.23970777356E+02  0.27964896179E+03  0.16500000000E+03 0.  0.
   -5000001    1    1    2    0    0 -0.21578570230E+03 -0.61971560797E+02 -0.10242222432E+03  0.29684887687E+03  0.16500000000E+03 0.  0.
<mgrwt>
<rscale>  0 0.57113495E+03</rscale>
<asrwt>0</asrwt>
<pdfrwt beam="1">  1        2 0.46782092E-01 0.57113495E+03</pdfrwt>
<pdfrwt beam="2">  1       -2 0.35574742E-01 0.57113495E+03</pdfrwt>
<totfact> 0.80634383E+02</totfact>
</mgrwt>
</event>
<event>
 4    1  0.5387486E-005  0.4206458E+03  0.7818608E-02  0.1036856E+00
         -2   -1    0    0    0  501 -0.00000000000E+00  0.00000000000E+00  0.80283434386E+02  0.80283434427E+02  0.25500000000E-02 0. -1.
          2   -1    0    0  501    0  0.00000000000E+00 -0.00000000000E+00 -0.55099439173E+03  0.55099439174E+03  0.25500000000E-02 0.  1.
    5000001    1    1    2    0    0  0.54794644883E+02 -0.11109122426E+03 -0.17408194356E+03  0.26995043302E+03  0.16500000000E+03 0.  0.
   -5000001    1    1    2    0    0 -0.54794644883E+02  0.11109122426E+03 -0.29662901378E+03  0.36132739314E+03  0.16500000000E+03 0.  0.
<mgrwt>
<rscale>  0 0.42064580E+03</rscale>
<asrwt>0</asrwt>
<pdfrwt beam="1">  1        2 0.78713483E-01 0.42064580E+03</pdfrwt>
<pdfrwt beam="2">  1       -2 0.11469062E-01 0.42064580E+03</pdfrwt>
<totfact> 0.32507427E+03</totfact>
</mgrwt>
</event>
<event>
 4    1  0.5387486E-005  0.8256794E+03  0.7818608E-02  0.9523573E-01
         -2   -1    0    0    0  501 -0.00000000000E+00  0.00000000000E+00  0.76196893312E+02  0.76196893355E+02  0.25500000000E-02 0. -1.
          2   -1    0    0  501    0  0.00000000000E+00 -0.00000000000E+00 -0.22367923246E+04  0.22367923246E+04  0.25500000000E-02 0.  1.
    5000001    1    1    2    0    0 -0.32122896856E+03  0.17061966844E+02 -0.52191122289E+03  0.63489801191E+03  0.16500000000E+03 0.  0.
   -5000001    1    1    2    0    0  0.32122896856E+03 -0.17061966844E+02 -0.16386842084E+04  0.16780912061E+04  0.16500000000E+03 0.  0.
<mgrwt>
<rscale>  0 0.82567942E+03</rscale>
<asrwt>0</asrwt>
<pdfrwt beam="1">  1        2 0.31954172E+00 0.82567942E+03</pdfrwt>
<pdfrwt beam="2">  1       -2 0.10885272E-01 0.82567942E+03</pdfrwt>
<totfact> 0.36886544E+02</totfact>
</mgrwt>
</event>
<event>
 4    1  0.5387486E-005  0.5381732E+03  0.7818608E-02  0.1004269E+00
         -2   -1    0    0    0  501 -0.00000000000E+00  0.00000000000E+00  0.77126759879E+02  0.77126759922E+02  0.25500000000E-02 0. -1.
          2   -1    0    0  501    0  0.00000000000E+00 -0.00000000000E+00 -0.93881305220E+03  0.93881305220E+03  0.25500000000E-02 0.  1.
    5000001    1    1    2    0    0 -0.19436229000E+02  0.21118166146E+03 -0.45801291711E+03  0.53101440035E+03  0.16500000000E+03 0.  0.
   -5000001    1    1    2    0    0  0.19436229000E+02 -0.21118166146E+03 -0.40367337521E+03  0.48492541178E+03  0.16500000000E+03 0.  0.
<mgrwt>
<rscale>  0 0.53817324E+03</rscale>
<asrwt>0</asrwt>
<pdfrwt beam="1">  1        2 0.13411614E+00 0.53817324E+03</pdfrwt>
<pdfrwt beam="2">  1       -2 0.11018109E-01 0.53817324E+03</pdfrwt>
<totfact> 0.18021800E+03</totfact>
</mgrwt>
</event>
<event>
 4    1  0.5387486E-005  0.4948807E+03  0.7818608E-02  0.1015124E+00
         -2   -1    0    0    0  501 -0.00000000000E+00  0.00000000000E+00  0.41183450687E+02  0.41183450766E+02  0.25500000000E-02 0. -1.
          2   -1    0    0  501    0  0.00000000000E+00 -0.00000000000E+00 -0.14866829457E+04  0.14866829457E+04  0.25500000000E-02 0.  1.
    5000001    1    1    2    0    0 -0.24785579467E+02 -0.97688250559E+02 -0.24601350454E+03  0.31289768881E+03  0.16500000000E+03 0.  0.
   -5000001    1    1    2    0    0  0.24785579467E+02  0.97688250559E+02 -0.11994859905E+04  0.12149687077E+04  0.16500000000E+03 0.  0.
<mgrwt>
<rscale>  0 0.49488073E+03</rscale>
<asrwt>0</asrwt>
<pdfrwt beam="1">  1        2 0.21238324E+00 0.49488073E+03</pdfrwt>
<pdfrwt beam="2">  1       -2 0.58833510E-02 0.49488073E+03</pdfrwt>
<totfact> 0.24111728E+03</totfact>
</mgrwt>
</event>
<event>
 4    1  0.5387486E-005  0.4760070E+03  0.7818608E-02  0.1020238E+00
          2   -1    0    0  501    0  0.00000000000E+00  0.00000000000E+00  0.74253285441E+03  0.74253285442E+03  0.25500000000E-02 0.  1.
         -2   -1    0    0    0  501 -0.00000000000E+00 -0.00000000000E+00 -0.76287081872E+02  0.76287081915E+02  0.25500000000E-02 0. -1.
    5000001    1    1    2    0    0 -0.10602309443E+03  0.97385392679E+02  0.17271298220E+03  0.27888991642E+03  0.16500000000E+03 0.  0.
   -5000001    1    1    2    0    0  0.10602309443E+03 -0.97385392679E+02  0.49353279034E+03  0.53993001991E+03  0.16500000000E+03 0.  0.
<mgrwt>
<rscale>  0 0.47600699E+03</rscale>
<asrwt>0</asrwt>
<pdfrwt beam="1">  1        2 0.10607612E+00 0.47600699E+03</pdfrwt>
<pdfrwt beam="2">  1       -2 0.10898154E-01 0.47600699E+03</pdfrwt>
<totfact> 0.24838217E+03</totfact>
</mgrwt>
</event>
<event>
 4    1  0.5387486E-005  0.4999066E+03  0.7818608E-02  0.1013803E+00
          2   -1    0    0  501    0  0.00000000000E+00  0.00000000000E+00  0.62067728955E+03  0.62067728955E+03  0.25500000000E-02 0.  1.
         -2   -1    0    0    0  501 -0.00000000000E+00 -0.00000000000E+00 -0.10065881384E+03  0.10065881387E+03  0.25500000000E-02 0. -1.
    5000001    1    1    2    0    0 -0.18256010450E+03  0.33580826511E+02  0.30071391234E+03  0.39001246228E+03  0.16500000000E+03 0.  0.
   -5000001    1    1    2    0    0  0.18256010450E+03 -0.33580826511E+02  0.21930456338E+03  0.33132364114E+03  0.16500000000E+03 0.  0.
<mgrwt>
<rscale>  0 0.49990655E+03</rscale>
<asrwt>0</asrwt>
<pdfrwt beam="1">  1        2 0.88668187E-01 0.49990655E+03</pdfrwt>
<pdfrwt beam="2">  1       -2 0.14379830E-01 0.49990655E+03</pdfrwt>
<totfact> 0.19539553E+03</totfact>
</mgrwt>
</event>
<event>
 4    1  0.5387486E-005  0.4846079E+03  0.7818608E-02  0.1017876E+00
         -2   -1    0    0    0  501 -0.00000000000E+00  0.00000000000E+00  0.36727773730E+02  0.36727773818E+02  0.25500000000E-02 0. -1.
          2   -1    0    0  501    0  0.00000000000E+00 -0.00000000000E+00 -0.15985507144E+04  0.15985507144E+04  0.25500000000E-02 0.  1.
    5000001    1    1    2    0    0 -0.72698031188E+01 -0.15730924172E+03 -0.10568562104E+04  0.10811887425E+04  0.16500000000E+03 0.  0.
   -5000001    1    1    2    0    0  0.72698031188E+01  0.15730924172E+03 -0.50496673024E+03  0.55408974563E+03  0.16500000000E+03 0.  0.
<mgrwt>
<rscale>  0 0.48460792E+03</rscale>
<asrwt>0</asrwt>
<pdfrwt beam="1">  1        2 0.22836434E+00 0.48460792E+03</pdfrwt>
<pdfrwt beam="2">  1       -2 0.52468258E-02 0.48460792E+03</pdfrwt>
<totfact> 0.25234297E+03</totfact>
</mgrwt>
</event>
<event>
 4    1  0.5387486E-005  0.4963809E+03  0.7818608E-02  0.1014728E+00
         -2   -1    0    0    0  501 -0.00000000000E+00  0.00000000000E+00  0.16322334304E+02  0.16322334503E+02  0.25500000000E-02 0. -1.
          2   -1    0    0  501    0  0.00000000000E+00 -0.00000000000E+00 -0.37738774897E+04  0.37738774897E+04  0.25500000000E-02 0.  1.
    5000001    1    1    2    0    0  0.17808803073E+03  0.51556624243E+02 -0.18769355748E+04  0.18932737743E+04  0.16500000000E+03 0.  0.
   -5000001    1    1    2    0    0 -0.17808803073E+03 -0.51556624243E+02 -0.18806195806E+04  0.18969260500E+04  0.16500000000E+03 0.  0.
<mgrwt>
<rscale>  0 0.49638086E+03</rscale>
<asrwt>0</asrwt>
<pdfrwt beam="1">  1        2 0.53912480E+00 0.49638086E+03</pdfrwt>
<pdfrwt beam="2">  1       -2 0.23317645E-02 0.49638086E+03</pdfrwt>
<totfact> 0.59522686E+02</totfact>
</mgrwt>
</event>
<event>
 4    1  0.5387486E-005  0.5321709E+03  0.7818608E-02  0.1005707E+00
         -2   -1    0    0    0  501 -0.00000000000E+00  0.00000000000E+00  0.36633998448E+02  0.36633998537E+02  0.25500000000E-02 0. -1.
          2   -1    0    0  501    0  0.00000000000E+00 -0.00000000000E+00 -0.19326709443E+04  0.19326709443E+04  0.25500000000E-02 0.  1.
    5000001    1    1    2    0    0  0.12935585172E+03  0.12820689577E+03 -0.57052050703E+03  0.62119931860E+03  0.16500000000E+03 0.  0.
   -5000001    1    1    2    0    0 -0.12935585172E+03 -0.12820689577E+03 -0.13255164388E+04  0.13481056242E+04  0.16500000000E+03 0.  0.
<mgrwt>
<rscale>  0 0.53217089E+03</rscale>
<asrwt>0</asrwt>
<pdfrwt beam="1">  1        2 0.27609578E+00 0.53217089E+03</pdfrwt>
<pdfrwt beam="2">  1       -2 0.52334296E-02 0.53217089E+03</pdfrwt>
<totfact> 0.17167882E+03</totfact>
</mgrwt>
</event>
<event>
 4    1  0.5387486E-005  0.5414575E+03  0.7818608E-02  0.1003491E+00
         -2   -1    0    0    0  501 -0.00000000000E+00  0.00000000000E+00  0.79510826784E+02  0.79510826825E+02  0.25500000000E-02 0. -1.
          2   -1    0    0  501    0  0.00000000000E+00 -0.00000000000E+00 -0.92181243898E+03  0.92181243899E+03  0.25500000000E-02 0.  1.
    5000001    1    1    2    0    0 -0.14764334898E+03 -0.15528821575E+03 -0.44425466637E+03  0.52009633439E+03  0.16500000000E+03 0.  0.
   -5000001    1    1    2    0    0  0.14764334898E+03  0.15528821575E+03 -0.39804694583E+03  0.48122693142E+03  0.16500000000E+03 0.  0.
<mgrwt>
<rscale>  0 0.54145755E+03</rscale>
<asrwt>0</asrwt>
<pdfrwt beam="1">  1        2 0.13168748E+00 0.54145755E+03</pdfrwt>
<pdfrwt beam="2">  1       -2 0.11358690E-01 0.54145755E+03</pdfrwt>
<totfact> 0.17576599E+03</totfact>
</mgrwt>
</event>
<event>
 4    1  0.5387486E-005  0.3380282E+03  0.7818608E-02  0.1067639E+00
          2   -1    0    0  501    0  0.00000000000E+00  0.00000000000E+00  0.55111289859E+03  0.55111289859E+03  0.25500000000E-02 0.  1.
         -2   -1    0    0    0  501 -0.00000000000E+00 -0.00000000000E+00 -0.51832887250E+02  0.51832887312E+02  0.25500000000E-02 0. -1.
    5000001    1    1    2    0    0 -0.31161643413E+02 -0.84247703620E+01  0.21880970443E+03  0.27594331217E+03  0.16500000000E+03 0.  0.
   -5000001    1    1    2    0    0  0.31161643413E+02  0.84247703620E+01  0.28047030691E+03  0.32700247374E+03  0.16500000000E+03 0.  0.
<mgrwt>
<rscale>  0 0.33802824E+03</rscale>
<asrwt>0</asrwt>
<pdfrwt beam="1">  1        2 0.78730418E-01 0.33802824E+03</pdfrwt>
<pdfrwt beam="2">  1       -2 0.74046979E-02 0.33802824E+03</pdfrwt>
<totfact> 0.64943780E+03</totfact>
</mgrwt>
</event>
<event>
 4    1  0.5387486E-005  0.3799480E+03  0.7818608E-02  0.1050953E+00
         -2   -1    0    0    0  501 -0.00000000000E+00  0.00000000000E+00  0.53960860658E+02  0.53960860718E+02  0.25500000000E-02 0. -1.
          2   -1    0    0  501    0  0.00000000000E+00 -0.00000000000E+00 -0.66882050200E+03  0.66882050200E+03  0.25500000000E-02 0.  1.
    5000001    1    1    2    0    0 -0.88380757787E+02 -0.31576350961E+02 -0.29307953918E+03  0.34918310465E+03  0.16500000000E+03 0.  0.
   -5000001    1    1    2    0    0  0.88380757787E+02  0.31576350961E+02 -0.32178010216E+03  0.37359825807E+03  0.16500000000E+03 0.  0.
<mgrwt>
<rscale>  0 0.37994805E+03</rscale>
<asrwt>0</asrwt>
<pdfrwt beam="1">  1        2 0.95545781E-01 0.37994805E+03</pdfrwt>
<pdfrwt beam="2">  1       -2 0.77086948E-02 0.37994805E+03</pdfrwt>
<totfact> 0.48864096E+03</totfact>
</mgrwt>
</event>
<event>
 4    1  0.5387486E-005  0.4584177E+03  0.7818608E-02  0.1025241E+00
          2   -1    0    0  501    0  0.00000000000E+00  0.00000000000E+00  0.79634015316E+02  0.79634015357E+02  0.25500000000E-02 0.  1.
         -2   -1    0    0    0  501 -0.00000000000E+00 -0.00000000000E+00 -0.65972672442E+03  0.65972672443E+03  0.25500000000E-02 0. -1.
    5000001    1    1    2    0    0  0.37769174275E+02  0.15233983724E+03 -0.24805785977E+03  0.33673674930E+03  0.16500000000E+03 0.  0.
   -5000001    1    1    2    0    0 -0.37769174275E+02 -0.15233983724E+03 -0.33203484934E+03  0.40262399049E+03  0.16500000000E+03 0.  0.
<mgrwt>
<rscale>  0 0.45841766E+03</rscale>
<asrwt>0</asrwt>
<pdfrwt beam="1">  1        2 0.11376288E-01 0.45841766E+03</pdfrwt>
<pdfrwt beam="2">  1       -2 0.94246672E-01 0.45841766E+03</pdfrwt>
<totfact> 0.54034865E+02</totfact>
</mgrwt>
</event>
<event>
 4    1  0.5387486E-005  0.4564896E+03  0.7818608E-02  0.1025804E+00
         -2   -1    0    0    0  501 -0.00000000000E+00  0.00000000000E+00  0.27689430880E+02  0.27689430998E+02  0.25500000000E-02 0. -1.
          2   -1    0    0  501    0  0.00000000000E+00 -0.00000000000E+00 -0.18814285232E+04  0.18814285232E+04  0.25500000000E-02 0.  1.
    5000001    1    1    2    0    0 -0.34852187173E+02  0.26913621435E+02 -0.29355464835E+03  0.33961500193E+03  0.16500000000E+03 0.  0.
   -5000001    1    1    2    0    0  0.34852187173E+02 -0.26913621435E+02 -0.15601844440E+04  0.15695029523E+04  0.16500000000E+03 0.  0.
<mgrwt>
<rscale>  0 0.45648958E+03</rscale>
<asrwt>0</asrwt>
<pdfrwt beam="1">  1        2 0.26877542E+00 0.45648958E+03</pdfrwt>
<pdfrwt beam="2">  1       -2 0.39556342E-02 0.45648958E+03</pdfrwt>
<totfact> 0.28082618E+03</totfact>
</mgrwt>
</event>
<event>
 4    1  0.5387486E-005  0.4692927E+03  0.7818608E-02  0.1022120E+00
         -2   -1    0    0    0  501 -0.00000000000E+00  0.00000000000E+00  0.11257326625E+03  0.11257326628E+03  0.25500000000E-02 0. -1.
          2   -1    0    0  501    0  0.00000000000E+00 -0.00000000000E+00 -0.48909396016E+03  0.48909396016E+03  0.25500000000E-02 0.  1.
    5000001    1    1    2    0    0  0.65405266550E+02  0.10559203874E+03 -0.45458092181E+02  0.21146859266E+03  0.16500000000E+03 0.  0.
   -5000001    1    1    2    0    0 -0.65405266550E+02 -0.10559203874E+03 -0.33106260173E+03  0.39019863378E+03  0.16500000000E+03 0.  0.
<mgrwt>
<rscale>  0 0.46929268E+03</rscale>
<asrwt>0</asrwt>
<pdfrwt beam="1">  1        2 0.69870565E-01 0.46929268E+03</pdfrwt>
<pdfrwt beam="2">  1       -2 0.16081895E-01 0.46929268E+03</pdfrwt>
<totfact> 0.21288962E+03</totfact>
</mgrwt>
</event>
<event>
 4    1  0.5387486E-005  0.7312977E+03  0.7818608E-02  0.9665157E-01
          2   -1    0    0  501    0  0.00000000000E+00  0.00000000000E+00  0.29160419094E+04  0.29160419094E+04  0.25500000000E-02 0.  1.
         -2   -1    0    0    0  501 -0.00000000000E+00 -0.00000000000E+00 -0.45849508164E+02  0.45849508234E+02  0.25500000000E-02 0. -1.
    5000001    1    1    2    0    0 -0.42096234308E+02  0.31981908854E+03  0.16342461369E+04  0.16739300399E+04  0.16500000000E+03 0.  0.
   -5000001    1    1    2    0    0  0.42096234308E+02 -0.31981908854E+03  0.12359462643E+04  0.12879613778E+04  0.16500000000E+03 0.  0.
<mgrwt>
<rscale>  0 0.73129772E+03</rscale>
<asrwt>0</asrwt>
<pdfrwt beam="1">  1        2 0.41657748E+00 0.73129772E+03</pdfrwt>
<pdfrwt beam="2">  1       -2 0.65499288E-02 0.73129772E+03</pdfrwt>
<totfact> 0.37190320E+02</totfact>
</mgrwt>
</event>
<event>
 4    1  0.5387486E-005  0.3948542E+03  0.7818608E-02  0.1045576E+00
          2   -1    0    0  501    0  0.00000000000E+00  0.00000000000E+00  0.11742967983E+04  0.11742967983E+04  0.25500000000E-02 0.  1.
         -2   -1    0    0    0  501 -0.00000000000E+00 -0.00000000000E+00 -0.33192163736E+02  0.33192163834E+02  0.25500000000E-02 0. -1.
    5000001    1    1    2    0    0 -0.84485200450E+02  0.58393955498E+02  0.67670052828E+03  0.70405696368E+03  0.16500000000E+03 0.  0.
   -5000001    1    1    2    0    0  0.84485200450E+02 -0.58393955498E+02  0.46440410627E+03  0.50343199844E+03  0.16500000000E+03 0.  0.
<mgrwt>
<rscale>  0 0.39485416E+03</rscale>
<asrwt>0</asrwt>
<pdfrwt beam="1">  1        2 0.16775666E+00 0.39485416E+03</pdfrwt>
<pdfrwt beam="2">  1       -2 0.47417384E-02 0.39485416E+03</pdfrwt>
<totfact> 0.49412454E+03</totfact>
</mgrwt>
</event>
<event>
 4    1  0.5387486E-005  0.4437574E+03  0.7818608E-02  0.1029600E+00
          2   -1    0    0  501    0  0.00000000000E+00  0.00000000000E+00  0.23229042919E+03  0.23229042920E+03  0.25500000000E-02 0.  1.
         -2   -1    0    0    0  501 -0.00000000000E+00 -0.00000000000E+00 -0.21193364525E+03  0.21193364527E+03  0.25500000000E-02 0. -1.
    5000001    1    1    2    0    0 -0.11167211614E+03 -0.87031152982E+02 -0.34140893671E+02  0.22008108445E+03  0.16500000000E+03 0.  0.
   -5000001    1    1    2    0    0  0.11167211614E+03  0.87031152982E+02  0.54497677607E+02  0.22414299002E+03  0.16500000000E+03 0.  0.
<mgrwt>
<rscale>  0 0.44375740E+03</rscale>
<asrwt>0</asrwt>
<pdfrwt beam="1">  1        2 0.33184347E-01 0.44375740E+03</pdfrwt>
<pdfrwt beam="2">  1       -2 0.30276235E-01 0.44375740E+03</pdfrwt>
<totfact> 0.15905404E+03</totfact>
</mgrwt>
</event>
<event>
 4    1  0.5387486E-005  0.6325438E+03  0.7818608E-02  0.9840097E-01
          2   -1    0    0  501    0  0.00000000000E+00  0.00000000000E+00  0.52892358154E+03  0.52892358155E+03  0.25500000000E-02 0.  1.
         -2   -1    0    0    0  501 -0.00000000000E+00 -0.00000000000E+00 -0.18911599026E+03  0.18911599028E+03  0.25500000000E-02 0. -1.
    5000001    1    1    2    0    0 -0.18027930996E+03  0.19860018873E+03  0.20319796621E+03  0.37477603716E+03  0.16500000000E+03 0.  0.
   -5000001    1    1    2    0    0  0.18027930996E+03 -0.19860018873E+03  0.13660962508E+03  0.34326353466E+03  0.16500000000E+03 0.  0.
<mgrwt>
<rscale>  0 0.63254378E+03</rscale>
<asrwt>0</asrwt>
<pdfrwt beam="1">  1        2 0.75560512E-01 0.63254378E+03</pdfrwt>
<pdfrwt beam="2">  1       -2 0.27016570E-01 0.63254378E+03</pdfrwt>
<totfact> 0.78567239E+02</totfact>
</mgrwt>
</event>
<event>
 4    1  0.5387486E-005  0.6803771E+03  0.7818608E-02  0.9751391E-01
          2   -1    0    0  501    0  0.00000000000E+00  0.00000000000E+00  0.36028927366E+04  0.36028927366E+04  0.25500000000E-02 0.  1.
         -2   -1    0    0    0  501 -0.00000000000E+00 -0.00000000000E+00 -0.32120926979E+02  0.32120927080E+02  0.25500000000E-02 0. -1.
    5000001    1    1    2    0    0  0.11283451169E+03 -0.21972110337E+03  0.89950079380E+03  0.94727803117E+03  0.16500000000E+03 0.  0.
   -5000001    1    1    2    0    0 -0.11283451169E+03  0.21972110337E+03  0.26712710159E+04  0.26877356326E+04  0.16500000000E+03 0.  0.
<mgrwt>
<rscale>  0 0.68037712E+03</rscale>
<asrwt>0</asrwt>
<pdfrwt beam="1">  1        2 0.51469930E+00 0.68037712E+03</pdfrwt>
<pdfrwt beam="2">  1       -2 0.45887009E-02 0.68037712E+03</pdfrwt>
<totfact> 0.26419534E+02</totfact>
</mgrwt>
</event>
<event>
 4    1  0.5387486E-005  0.7692904E+03  0.7818608E-02  0.9605564E-01
         -2   -1    0    0    0  501 -0.00000000000E+00  0.00000000000E+00  0.11880517908E+03  0.11880517910E+03  0.25500000000E-02 0. -1.
          2   -1    0    0  501    0  0.00000000000E+00 -0.00000000000E+00 -0.12453323029E+04  0.12453323029E+04  0.25500000000E-02 0.  1.
    5000001    1    1    2    0    0  0.28902857694E+03 -0.17313289775E+03 -0.71387855417E+03  0.80644907383E+03  0.16500000000E+03 0.  0.
   -5000001    1    1    2    0    0 -0.28902857694E+03  0.17313289775E+03 -0.41264856961E+03  0.55768840814E+03  0.16500000000E+03 0.  0.
<mgrwt>
<rscale>  0 0.76929039E+03</rscale>
<asrwt>0</asrwt>
<pdfrwt beam="1">  1        2 0.17790461E+00 0.76929039E+03</pdfrwt>
<pdfrwt beam="2">  1       -2 0.16972169E-01 0.76929039E+03</pdfrwt>
<totfact> 0.57455692E+02</totfact>
</mgrwt>
</event>
<event>
 4    1  0.5387486E-005  0.3631509E+03  0.7818608E-02  0.1057343E+00
          2   -1    0    0  501    0  0.00000000000E+00  0.00000000000E+00  0.41134083107E+04  0.41134083107E+04  0.25500000000E-02 0.  1.
         -2   -1    0    0    0  501 -0.00000000000E+00 -0.00000000000E+00 -0.80151648890E+01  0.80151652946E+01  0.25500000000E-02 0. -1.
    5000001    1    1    2    0    0 -0.13113852666E+01 -0.46157131773E+02  0.27348165827E+04  0.27401786331E+04  0.16500000000E+03 0.  0.
   -5000001    1    1    2    0    0  0.13113852666E+01  0.46157131773E+02  0.13705765631E+04  0.13812448428E+04  0.16500000000E+03 0.  0.
<mgrwt>
<rscale>  0 0.36315091E+03</rscale>
<asrwt>0</asrwt>
<pdfrwt beam="1">  1        2 0.58763000E+00 0.36315091E+03</pdfrwt>
<pdfrwt beam="2">  1       -2 0.11450231E-02 0.36315091E+03</pdfrwt>
<totfact> 0.10486360E+03</totfact>
</mgrwt>
</event>
<event>
 4    1  0.5387486E-005  0.3483671E+03  0.7818608E-02  0.1063287E+00
          2   -1    0    0  501    0  0.00000000000E+00  0.00000000000E+00  0.24127672164E+03  0.24127672166E+03  0.25500000000E-02 0.  1.
         -2   -1    0    0    0  501 -0.00000000000E+00 -0.00000000000E+00 -0.12574735149E+03  0.12574735152E+03  0.25500000000E-02 0. -1.
    5000001    1    1    2    0    0 -0.60965318470E+01  0.50003311551E+02  0.32448426718E+02  0.17554315499E+03  0.16500000000E+03 0.  0.
   -5000001    1    1    2    0    0  0.60965318470E+01 -0.50003311551E+02  0.83080943435E+02  0.19148091818E+03  0.16500000000E+03 0.  0.
<mgrwt>
<rscale>  0 0.34836710E+03</rscale>
<asrwt>0</asrwt>
<pdfrwt beam="1">  1        2 0.34468103E-01 0.34836710E+03</pdfrwt>
<pdfrwt beam="2">  1       -2 0.17963908E-01 0.34836710E+03</pdfrwt>
<totfact> 0.38147067E+03</totfact>
</mgrwt>
</event>
<event>
 4    1  0.5387486E-005  0.6028044E+03  0.7818608E-02  0.9899605E-01
         -2   -1    0    0    0  501 -0.00000000000E+00  0.00000000000E+00  0.38836508802E+02  0.38836508886E+02  0.25500000000E-02 0. -1.
          2   -1    0    0  501    0  0.00000000000E+00 -0.00000000000E+00 -0.23391207556E+04  0.23391207556E+04  0.25500000000E-02 0.  1.
    5000001    1    1    2    0    0  0.17749843028E+03  0.16930019781E+03 -0.13818492205E+04  0.14131173051E+04  0.16500000000E+03 0.  0.
   -5000001    1    1    2    0    0 -0.17749843028E+03 -0.16930019781E+03 -0.91843502625E+03  0.96483995936E+03  0.16500000000E+03 0.  0.
<mgrwt>
<rscale>  0 0.60280439E+03</rscale>
<asrwt>0</asrwt>
<pdfrwt beam="1">  1        2 0.33416002E+00 0.60280439E+03</pdfrwt>
<pdfrwt beam="2">  1       -2 0.55480742E-02 0.60280439E+03</pdfrwt>
<totfact> 0.97565943E+02</totfact>
</mgrwt>
</event>
<event>
 4    1  0.5387486E-005  0.6537678E+03  0.7818608E-02  0.9799735E-01
          2   -1    0    0  501    0  0.00000000000E+00  0.00000000000E+00  0.76829155748E+03  0.76829155748E+03  0.25500000000E-02 0.  1.
         -2   -1    0    0    0  501 -0.00000000000E+00 -0.00000000000E+00 -0.13907882365E+03  0.13907882367E+03  0.25500000000E-02 0. -1.
    5000001    1    1    2    0    0 -0.88077097956E+02  0.23971871057E+03  0.48118699411E+03  0.56919992857E+03  0.16500000000E+03 0.  0.
   -5000001    1    1    2    0    0  0.88077097956E+02 -0.23971871057E+03  0.14802573972E+03  0.33817045259E+03  0.16500000000E+03 0.  0.
<mgrwt>
<rscale>  0 0.65376781E+03</rscale>
<asrwt>0</asrwt>
<pdfrwt beam="1">  1        2 0.10975594E+00 0.65376781E+03</pdfrwt>
<pdfrwt beam="2">  1       -2 0.19868403E-01 0.65376781E+03</pdfrwt>
<totfact> 0.86699272E+02</totfact>
</mgrwt>
</event>
<event>
 4    1  0.5387486E-005  0.3672365E+03  0.7818608E-02  0.1055755E+00
          2   -1    0    0  501    0  0.00000000000E+00  0.00000000000E+00  0.46853428721E+03  0.46853428722E+03  0.25500000000E-02 0.  1.
         -2   -1    0    0    0  501 -0.00000000000E+00 -0.00000000000E+00 -0.71959877737E+02  0.71959877783E+02  0.25500000000E-02 0. -1.
    5000001    1    1    2    0    0  0.29545049217E+02 -0.73126434831E+02  0.17409052400E+03  0.25249335823E+03  0.16500000000E+03 0.  0.
   -5000001    1    1    2    0    0 -0.29545049217E+02  0.73126434831E+02  0.22248388547E+03  0.28800080677E+03  0.16500000000E+03 0.  0.
<mgrwt>
<rscale>  0 0.36723655E+03</rscale>
<asrwt>0</asrwt>
<pdfrwt beam="1">  1        2 0.66933471E-01 0.36723655E+03</pdfrwt>
<pdfrwt beam="2">  1       -2 0.10279982E-01 0.36723655E+03</pdfrwt>
<totfact> 0.46432690E+03</totfact>
</mgrwt>
</event>
<event>
 4    1  0.5387486E-005  0.1067354E+04  0.7818608E-02  0.9237608E-01
         -2   -1    0    0    0  501 -0.00000000000E+00  0.00000000000E+00  0.13719376341E+03  0.13719376344E+03  0.25500000000E-02 0. -1.
          2   -1    0    0  501    0  0.00000000000E+00 -0.00000000000E+00 -0.20759783144E+04  0.20759783144E+04  0.25500000000E-02 0.  1.
    5000001    1    1    2    0    0  0.20206445740E+03 -0.44438140412E+03 -0.12573149601E+04  0.13588122704E+04  0.16500000000E+03 0.  0.
   -5000001    1    1    2    0    0 -0.20206445740E+03  0.44438140412E+03 -0.68146959084E+03  0.85435980741E+03  0.16500000000E+03 0.  0.
<mgrwt>
<rscale>  0 0.10673543E+04</rscale>
<asrwt>0</asrwt>
<pdfrwt beam="1">  1        2 0.29656831E+00 0.10673543E+04</pdfrwt>
<pdfrwt beam="2">  1       -2 0.19599110E-01 0.10673543E+04</pdfrwt>
<totfact> 0.16179496E+02</totfact>
</mgrwt>
</event>
<event>
 4    1  0.5387486E-005  0.5336285E+03  0.7818608E-02  0.1005356E+00
         -2   -1    0    0    0  501 -0.00000000000E+00  0.00000000000E+00  0.19558008223E+03  0.19558008225E+03  0.25500000000E-02 0. -1.
          2   -1    0    0  501    0  0.00000000000E+00 -0.00000000000E+00 -0.36399336911E+03  0.36399336912E+03  0.25500000000E-02 0.  1.
    5000001    1    1    2    0    0 -0.52393208162E+01 -0.16922096957E+03 -0.21392081227E+03  0.31882644330E+03  0.16500000000E+03 0.  0.
   -5000001    1    1    2    0    0  0.52393208162E+01  0.16922096957E+03  0.45507525387E+02  0.24074700807E+03  0.16500000000E+03 0.  0.
<mgrwt>
<rscale>  0 0.53362853E+03</rscale>
<asrwt>0</asrwt>
<pdfrwt beam="1">  1        2 0.51999052E-01 0.53362853E+03</pdfrwt>
<pdfrwt beam="2">  1       -2 0.27940012E-01 0.53362853E+03</pdfrwt>
<totfact> 0.11248459E+03</totfact>
</mgrwt>
</event>
<event>
 4    1  0.5387486E-005  0.4120935E+03  0.7818608E-02  0.1039671E+00
          2   -1    0    0  501    0  0.00000000000E+00  0.00000000000E+00  0.42706686775E+03  0.42706686776E+03  0.25500000000E-02 0.  1.
         -2   -1    0    0    0  501 -0.00000000000E+00 -0.00000000000E+00 -0.99411280143E+02  0.99411280176E+02  0.25500000000E-02 0. -1.
    5000001    1    1    2    0    0  0.10915157138E+03 -0.54356370567E+02  0.13953436175E+03  0.24811996829E+03  0.16500000000E+03 0.  0.
   -5000001    1    1    2    0    0 -0.10915157138E+03  0.54356370567E+02  0.18812122586E+03  0.27835817965E+03  0.16500000000E+03 0.  0.
<mgrwt>
<rscale>  0 0.41209350E+03</rscale>
<asrwt>0</asrwt>
<pdfrwt beam="1">  1        2 0.61009554E-01 0.41209350E+03</pdfrwt>
<pdfrwt beam="2">  1       -2 0.14201611E-01 0.41209350E+03</pdfrwt>
<totfact> 0.30437600E+03</totfact>
</mgrwt>
</event>
<event>
 4    1  0.5387486E-005  0.4122400E+03  0.7818608E-02  0.1039622E+00
         -2   -1    0    0    0  501 -0.00000000000E+00  0.00000000000E+00  0.43764767499E+02  0.43764767573E+02  0.25500000000E-02 0. -1.
          2   -1    0    0  501    0  0.00000000000E+00 -0.00000000000E+00 -0.97076860100E+03  0.97076860101E+03  0.25500000000E-02 0.  1.
    5000001    1    1    2    0    0 -0.74757960645E+02 -0.98032880559E+02 -0.44423917256E+03  0.48966584605E+03  0.16500000000E+03 0.  0.
   -5000001    1    1    2    0    0  0.74757960645E+02  0.98032880559E+02 -0.48276466095E+03  0.52486752253E+03  0.16500000000E+03 0.  0.
<mgrwt>
<rscale>  0 0.41224004E+03</rscale>
<asrwt>0</asrwt>
<pdfrwt beam="1">  1        2 0.13868121E+00 0.41224004E+03</pdfrwt>
<pdfrwt beam="2">  1       -2 0.62521103E-02 0.41224004E+03</pdfrwt>
<totfact> 0.42361762E+03</totfact>
</mgrwt>
</event>
<event>
 4    1  0.5387486E-005  0.4277666E+03  0.7818608E-02  0.1034568E+00
          2   -1    0    0  501    0  0.00000000000E+00  0.00000000000E+00  0.25005466321E+04  0.25005466321E+04  0.25500000000E-02 0.  1.
         -2   -1    0    0    0  501 -0.00000000000E+00 -0.00000000000E+00 -0.18294424777E+02  0.18294424955E+02  0.25500000000E-02 0. -1.
    5000001    1    1    2    0    0 -0.59225247856E+02  0.11812803770E+03  0.14327645907E+04  0.14482752624E+04  0.16500000000E+03 0.  0.
   -5000001    1    1    2    0    0  0.59225247856E+02 -0.11812803770E+03  0.10494876167E+04  0.10705657947E+04  0.16500000000E+03 0.  0.
<mgrwt>
<rscale>  0 0.42776658E+03</rscale>
<asrwt>0</asrwt>
<pdfrwt beam="1">  1        2 0.35722069E+00 0.42776658E+03</pdfrwt>
<pdfrwt beam="2">  1       -2 0.26134912E-02 0.42776658E+03</pdfrwt>
<totfact> 0.25812737E+03</totfact>
</mgrwt>
</event>
<event>
 4    1  0.5387486E-005  0.5318343E+03  0.7818608E-02  0.1005788E+00
          2   -1    0    0  501    0  0.00000000000E+00  0.00000000000E+00  0.28520865738E+03  0.28520865739E+03  0.25500000000E-02 0.  1.
         -2   -1    0    0    0  501 -0.00000000000E+00 -0.00000000000E+00 -0.24793050761E+03  0.24793050763E+03  0.25500000000E-02 0. -1.
    5000001    1    1    2    0    0 -0.96693800171E+02 -0.16548447950E+03  0.10101199002E+03  0.27232926041E+03  0.16500000000E+03 0.  0.
   -5000001    1    1    2    0    0  0.96693800171E+02  0.16548447950E+03 -0.63733840257E+02  0.26080990461E+03  0.16500000000E+03 0.  0.
<mgrwt>
<rscale>  0 0.53183429E+03</rscale>
<asrwt>0</asrwt>
<pdfrwt beam="1">  1        2 0.40744094E-01 0.53183429E+03</pdfrwt>
<pdfrwt beam="2">  1       -2 0.35418644E-01 0.53183429E+03</pdfrwt>
<totfact> 0.94694291E+02</totfact>
</mgrwt>
</event>
<event>
 4    1  0.5387486E-005  0.4935436E+03  0.7818608E-02  0.1015478E+00
          2   -1    0    0  501    0  0.00000000000E+00  0.00000000000E+00  0.10178398562E+04  0.10178398563E+04  0.25500000000E-02 0.  1.
         -2   -1    0    0    0  501 -0.00000000000E+00 -0.00000000000E+00 -0.59828988423E+02  0.59828988477E+02  0.25500000000E-02 0. -1.
    5000001    1    1    2    0    0  0.23281728662E+02 -0.17456323945E+03  0.36645355814E+03  0.43877964143E+03  0.16500000000E+03 0.  0.
   -5000001    1    1    2    0    0 -0.23281728662E+02  0.17456323945E+03  0.59155730968E+03  0.63888920330E+03  0.16500000000E+03 0.  0.
<mgrwt>
<rscale>  0 0.49354363E+03</rscale>
<asrwt>0</asrwt>
<pdfrwt beam="1">  1        2 0.14540569E+00 0.49354363E+03</pdfrwt>
<pdfrwt beam="2">  1       -2 0.85469984E-02 0.49354363E+03</pdfrwt>
<totfact> 0.24277368E+03</totfact>
</mgrwt>
</event>
<event>
 4    1  0.5387486E-005  0.6998200E+03  0.7818608E-02  0.9717540E-01
          2   -1    0    0  501    0  0.00000000000E+00  0.00000000000E+00  0.11800258826E+03  0.11800258829E+03  0.25500000000E-02 0.  1.
         -2   -1    0    0    0  501 -0.00000000000E+00 -0.00000000000E+00 -0.10375788905E+04  0.10375788905E+04  0.25500000000E-02 0. -1.
    5000001    1    1    2    0    0 -0.55598360789E+02 -0.28134492329E+03 -0.64781278869E+03  0.72741497976E+03  0.16500000000E+03 0.  0.
   -5000001    1    1    2    0    0  0.55598360789E+02  0.28134492329E+03 -0.27176351351E+03  0.42816649899E+03  0.16500000000E+03 0.  0.
<mgrwt>
<rscale>  0 0.69981996E+03</rscale>
<asrwt>0</asrwt>
<pdfrwt beam="1">  1        2 0.16857513E-01 0.69981996E+03</pdfrwt>
<pdfrwt beam="2">  1       -2 0.14822555E+00 0.69981996E+03</pdfrwt>
<totfact> 0.10908017E+02</totfact>
</mgrwt>
</event>
<event>
 4    1  0.5387486E-005  0.7624159E+03  0.7818608E-02  0.9616071E-01
          2   -1    0    0  501    0  0.00000000000E+00  0.00000000000E+00  0.21496893712E+04  0.21496893712E+04  0.25500000000E-02 0.  1.
         -2   -1    0    0    0  501 -0.00000000000E+00 -0.00000000000E+00 -0.67600231000E+02  0.67600231048E+02  0.25500000000E-02 0. -1.
    5000001    1    1    2    0    0 -0.30236839953E+02 -0.31018382176E+03  0.14621498007E+04  0.15040729070E+04  0.16500000000E+03 0.  0.
   -5000001    1    1    2    0    0  0.30236839953E+02  0.31018382176E+03  0.61993933949E+03  0.71321669527E+03  0.16500000000E+03 0.  0.
<mgrwt>
<rscale>  0 0.76241589E+03</rscale>
<asrwt>0</asrwt>
<pdfrwt beam="1">  1        2 0.30709855E+00 0.76241589E+03</pdfrwt>
<pdfrwt beam="2">  1       -2 0.96571737E-02 0.76241589E+03</pdfrwt>
<totfact> 0.49883346E+02</totfact>
</mgrwt>
</event>
<event>
 4    1  0.5387486E-005  0.4522319E+03  0.7818608E-02  0.1027059E+00
          2   -1    0    0  501    0  0.00000000000E+00  0.00000000000E+00  0.17079899227E+04  0.17079899227E+04  0.25500000000E-02 0.  1.
         -2   -1    0    0    0  501 -0.00000000000E+00 -0.00000000000E+00 -0.29934855958E+02  0.29934856067E+02  0.25500000000E-02 0. -1.
    5000001    1    1    2    0    0 -0.14015853853E+03  0.62333220616E+02  0.91330636977E+03  0.94068239666E+03  0.16500000000E+03 0.  0.
   -5000001    1    1    2    0    0  0.14015853853E+03 -0.62333220616E+02  0.76474869695E+03  0.79724238210E+03  0.16500000000E+03 0.  0.
<mgrwt>
<rscale>  0 0.45223194E+03</rscale>
<asrwt>0</asrwt>
<pdfrwt beam="1">  1        2 0.24399866E+00 0.45223194E+03</pdfrwt>
<pdfrwt beam="2">  1       -2 0.42764063E-02 0.45223194E+03</pdfrwt>
<totfact> 0.30444450E+03</totfact>
</mgrwt>
</event>
<event>
 4    1  0.5387486E-005  0.7246071E+03  0.7818608E-02  0.9676052E-01
         -2   -1    0    0    0  501 -0.00000000000E+00  0.00000000000E+00  0.16544177856E+03  0.16544177858E+03  0.25500000000E-02 0. -1.
          2   -1    0    0  501    0  0.00000000000E+00 -0.00000000000E+00 -0.79341415811E+03  0.79341415811E+03  0.25500000000E-02 0.  1.
    5000001    1    1    2    0    0  0.11605455609E+02  0.29615402227E+03 -0.14557632579E+03  0.36913325255E+03  0.16500000000E+03 0.  0.
   -5000001    1    1    2    0    0 -0.11605455609E+02 -0.29615402227E+03 -0.48239605376E+03  0.58972268414E+03  0.16500000000E+03 0.  0.
<mgrwt>
<rscale>  0 0.72460706E+03</rscale>
<asrwt>0</asrwt>
<pdfrwt beam="1">  1        2 0.11334488E+00 0.72460706E+03</pdfrwt>
<pdfrwt beam="2">  1       -2 0.23634540E-01 0.72460706E+03</pdfrwt>
<totfact> 0.61146595E+02</totfact>
</mgrwt>
</event>
<event>
 4    1  0.5387486E-005  0.4932026E+03  0.7818608E-02  0.1015569E+00
          2   -1    0    0  501    0  0.00000000000E+00  0.00000000000E+00  0.15178547032E+04  0.15178547032E+04  0.25500000000E-02 0.  1.
         -2   -1    0    0    0  501 -0.00000000000E+00 -0.00000000000E+00 -0.40064570663E+02  0.40064570744E+02  0.25500000000E-02 0. -1.
    5000001    1    1    2    0    0  0.52182016865E+01  0.15492806425E+03  0.10477015153E+04  0.10718831092E+04  0.16500000000E+03 0.  0.
   -5000001    1    1    2    0    0 -0.52182016865E+01 -0.15492806425E+03  0.43008861725E+03  0.48603616472E+03  0.16500000000E+03 0.  0.
<mgrwt>
<rscale>  0 0.49320258E+03</rscale>
<asrwt>0</asrwt>
<pdfrwt beam="1">  1        2 0.21683635E+00 0.49320258E+03</pdfrwt>
<pdfrwt beam="2">  1       -2 0.57235111E-02 0.49320258E+03</pdfrwt>
<totfact> 0.24250994E+03</totfact>
</mgrwt>
</event>
<event>
 4    1  0.5387486E-005  0.6386500E+03  0.7818608E-02  0.9828313E-01
          2   -1    0    0  501    0  0.00000000000E+00  0.00000000000E+00  0.23920506772E+04  0.23920506772E+04  0.25500000000E-02 0.  1.
         -2   -1    0    0    0  501 -0.00000000000E+00 -0.00000000000E+00 -0.42628048997E+02  0.42628049073E+02  0.25500000000E-02 0. -1.
    5000001    1    1    2    0    0 -0.17106142043E+03  0.20659487998E+03  0.97298723975E+03  0.10226791397E+04  0.16500000000E+03 0.  0.
   -5000001    1    1    2    0    0  0.17106142043E+03 -0.20659487998E+03  0.13764353885E+04  0.14119995866E+04  0.16500000000E+03 0.  0.
<mgrwt>
<rscale>  0 0.63864999E+03</rscale>
<asrwt>0</asrwt>
<pdfrwt beam="1">  1        2 0.34172153E+00 0.63864999E+03</pdfrwt>
<pdfrwt beam="2">  1       -2 0.60897212E-02 0.63864999E+03</pdfrwt>
<totfact> 0.79071289E+02</totfact>
</mgrwt>
</event>
<event>
 4    1  0.5387486E-005  0.5426090E+03  0.7818608E-02  0.1003219E+00
         -2   -1    0    0    0  501 -0.00000000000E+00  0.00000000000E+00  0.14875461518E+03  0.14875461521E+03  0.25500000000E-02 0. -1.
          2   -1    0    0  501    0  0.00000000000E+00 -0.00000000000E+00 -0.49481581813E+03  0.49481581814E+03  0.25500000000E-02 0.  1.
    5000001    1    1    2    0    0 -0.16189635880E+03  0.98241817215E+02 -0.29467762440E+03  0.38719735015E+03  0.16500000000E+03 0.  0.
   -5000001    1    1    2    0    0  0.16189635880E+03 -0.98241817215E+02 -0.51383578550E+02  0.25637308320E+03  0.16500000000E+03 0.  0.
<mgrwt>
<rscale>  0 0.54260902E+03</rscale>
<asrwt>0</asrwt>
<pdfrwt beam="1">  1        2 0.70687973E-01 0.54260902E+03</pdfrwt>
<pdfrwt beam="2">  1       -2 0.21250660E-01 0.54260902E+03</pdfrwt>
<totfact> 0.13022345E+03</totfact>
</mgrwt>
</event>
<event>
 4    1  0.5387486E-005  0.3818325E+03  0.7818608E-02  0.1050259E+00
          2   -1    0    0  501    0  0.00000000000E+00  0.00000000000E+00  0.32327020052E+04  0.32327020052E+04  0.25500000000E-02 0.  1.
         -2   -1    0    0    0  501 -0.00000000000E+00 -0.00000000000E+00 -0.11275092113E+02  0.11275092402E+02  0.25500000000E-02 0. -1.
    5000001    1    1    2    0    0  0.17044766677E+02  0.71702997353E+02  0.21338906010E+04  0.21415288793E+04  0.16500000000E+03 0.  0.
   -5000001    1    1    2    0    0 -0.17044766677E+02 -0.71702997353E+02  0.10875363121E+04  0.11024482183E+04  0.16500000000E+03 0.  0.
<mgrwt>
<rscale>  0 0.38183249E+03</rscale>
<asrwt>0</asrwt>
<pdfrwt beam="1">  1        2 0.46181471E+00 0.38183249E+03</pdfrwt>
<pdfrwt beam="2">  1       -2 0.16107270E-02 0.38183249E+03</pdfrwt>
<totfact> 0.21837132E+03</totfact>
</mgrwt>
</event>
<event>
 4    1  0.5387486E-005  0.6791786E+03  0.7818608E-02  0.9753517E-01
         -2   -1    0    0    0  501 -0.00000000000E+00  0.00000000000E+00  0.35396092728E+02  0.35396092820E+02  0.25500000000E-02 0. -1.
          2   -1    0    0  501    0  0.00000000000E+00 -0.00000000000E+00 -0.32580123161E+04  0.32580123161E+04  0.25500000000E-02 0.  1.
    5000001    1    1    2    0    0 -0.20483581244E+03 -0.37439934920E+02 -0.58567432806E+03  0.64311653480E+03  0.16500000000E+03 0.  0.
   -5000001    1    1    2    0    0  0.20483581244E+03  0.37439934920E+02 -0.26369418953E+04  0.26502918741E+04  0.16500000000E+03 0.  0.
<mgrwt>
<rscale>  0 0.67917864E+03</rscale>
<asrwt>0</asrwt>
<pdfrwt beam="1">  1        2 0.46543014E+00 0.67917864E+03</pdfrwt>
<pdfrwt beam="2">  1       -2 0.50565867E-02 0.67917864E+03</pdfrwt>
<totfact> 0.36253194E+02</totfact>
</mgrwt>
</event>
<event>
 4    1  0.5387486E-005  0.4442761E+03  0.7818608E-02  0.1029443E+00
          2   -1    0    0  501    0  0.00000000000E+00  0.00000000000E+00  0.19479934116E+04  0.19479934116E+04  0.25500000000E-02 0.  1.
         -2   -1    0    0    0  501 -0.00000000000E+00 -0.00000000000E+00 -0.25331356445E+02  0.25331356573E+02  0.25500000000E-02 0. -1.
    5000001    1    1    2    0    0 -0.10573386671E+03 -0.90763704591E+02  0.73042371158E+03  0.76168333255E+03  0.16500000000E+03 0.  0.
   -5000001    1    1    2    0    0  0.10573386671E+03  0.90763704591E+02  0.11922383436E+04  0.12116414357E+04  0.16500000000E+03 0.  0.
<mgrwt>
<rscale>  0 0.44427611E+03</rscale>
<asrwt>0</asrwt>
<pdfrwt beam="1">  1        2 0.27828474E+00 0.44427611E+03</pdfrwt>
<pdfrwt beam="2">  1       -2 0.36187656E-02 0.44427611E+03</pdfrwt>
<totfact> 0.29806093E+03</totfact>
</mgrwt>
</event>
<event>
 4    1  0.5387486E-005  0.7069781E+03  0.7818608E-02  0.9705373E-01
          2   -1    0    0  501    0  0.00000000000E+00  0.00000000000E+00  0.16683748287E+04  0.16683748287E+04  0.25500000000E-02 0.  1.
         -2   -1    0    0    0  501 -0.00000000000E+00 -0.00000000000E+00 -0.74895952319E+02  0.74895952363E+02  0.25500000000E-02 0. -1.
    5000001    1    1    2    0    0 -0.99925857027E+02  0.16228130045E+03  0.18569144897E+03  0.31309217748E+03  0.16500000000E+03 0.  0.
   -5000001    1    1    2    0    0  0.99925857027E+02 -0.16228130045E+03  0.14077874274E+04  0.14301786036E+04  0.16500000000E+03 0.  0.
<mgrwt>
<rscale>  0 0.70697814E+03</rscale>
<asrwt>0</asrwt>
<pdfrwt beam="1">  1        2 0.23833930E+00 0.70697814E+03</pdfrwt>
<pdfrwt beam="2">  1       -2 0.10699420E-01 0.70697814E+03</pdfrwt>
<totfact> 0.74323991E+02</totfact>
</mgrwt>
</event>
<event>
 4    1  0.5387486E-005  0.3767912E+03  0.7818608E-02  0.1052126E+00
         -2   -1    0    0    0  501 -0.00000000000E+00  0.00000000000E+00  0.56134522826E+02  0.56134522884E+02  0.25500000000E-02 0. -1.
          2   -1    0    0  501    0  0.00000000000E+00 -0.00000000000E+00 -0.63228299225E+03  0.63228299226E+03  0.25500000000E-02 0.  1.
    5000001    1    1    2    0    0 -0.13886049899E+02 -0.21848939746E+02 -0.44732897814E+03  0.47749179389E+03  0.16500000000E+03 0.  0.
   -5000001    1    1    2    0    0  0.13886049899E+02  0.21848939746E+02 -0.12881949129E+03  0.21092572125E+03  0.16500000000E+03 0.  0.
<mgrwt>
<rscale>  0 0.37679121E+03</rscale>
<asrwt>0</asrwt>
<pdfrwt beam="1">  1        2 0.90326137E-01 0.37679121E+03</pdfrwt>
<pdfrwt beam="2">  1       -2 0.80192179E-02 0.37679121E+03</pdfrwt>
<totfact> 0.49055119E+03</totfact>
</mgrwt>
</event>
<event>
 4    1  0.5387486E-005  0.1092848E+04  0.7818608E-02  0.9212191E-01
         -2   -1    0    0    0  501 -0.00000000000E+00  0.00000000000E+00  0.51118038211E+03  0.51118038212E+03  0.25500000000E-02 0. -1.
          2   -1    0    0  501    0  0.00000000000E+00 -0.00000000000E+00 -0.58409768248E+03  0.58409768249E+03  0.25500000000E-02 0.  1.
    5000001    1    1    2    0    0  0.43721689205E+03 -0.28234201442E+03 -0.58385428812E+02  0.54909879084E+03  0.16500000000E+03 0.  0.
   -5000001    1    1    2    0    0 -0.43721689205E+03  0.28234201442E+03 -0.14531871560E+02  0.54617927377E+03  0.16500000000E+03 0.  0.
<mgrwt>
<rscale>  0 0.10928482E+04</rscale>
<asrwt>0</asrwt>
<pdfrwt beam="1">  1        2 0.83442526E-01 0.10928482E+04</pdfrwt>
<pdfrwt beam="2">  1       -2 0.73025769E-01 0.10928482E+04</pdfrwt>
<totfact> 0.94355614E+01</totfact>
</mgrwt>
</event>
<event>
 4    1  0.5387486E-005  0.4844268E+03  0.7818608E-02  0.1017926E+00
          2   -1    0    0  501    0  0.00000000000E+00  0.00000000000E+00  0.11577785840E+04  0.11577785840E+04  0.25500000000E-02 0. -1.
         -2   -1    0    0    0  501 -0.00000000000E+00 -0.00000000000E+00 -0.50672315611E+02  0.50672315675E+02  0.25500000000E-02 0.  1.
    5000001    1    1    2    0    0  0.65769968827E+02 -0.16092485350E+03  0.64067949464E+03  0.68404510972E+03  0.16500000000E+03 0.  0.
   -5000001    1    1    2    0    0 -0.65769968827E+02  0.16092485350E+03  0.46642677372E+03  0.52440578993E+03  0.16500000000E+03 0.  0.
<mgrwt>
<rscale>  0 0.48442676E+03</rscale>
<asrwt>0</asrwt>
<pdfrwt beam="1">  1        2 0.16539691E+00 0.48442676E+03</pdfrwt>
<pdfrwt beam="2">  1       -2 0.72389037E-02 0.48442676E+03</pdfrwt>
<totfact> 0.26196832E+03</totfact>
</mgrwt>
</event>
<event>
 4    1  0.5387486E-005  0.3561086E+03  0.7818608E-02  0.1060135E+00
         -2   -1    0    0    0  501 -0.00000000000E+00  0.00000000000E+00  0.73679319555E+02  0.73679319599E+02  0.25500000000E-02 0. -1.
          2   -1    0    0  501    0  0.00000000000E+00 -0.00000000000E+00 -0.43028813627E+03  0.43028813628E+03  0.25500000000E-02 0.  1.
    5000001    1    1    2    0    0  0.53127286138E+02 -0.19499600593E+02 -0.12775963344E+03  0.21621810029E+03  0.16500000000E+03 0.  0.
   -5000001    1    1    2    0    0 -0.53127286138E+02  0.19499600593E+02 -0.22884918327E+03  0.28774935558E+03  0.16500000000E+03 0.  0.
<mgrwt>
<rscale>  0 0.35610862E+03</rscale>
<asrwt>0</asrwt>
<pdfrwt beam="1">  1        2 0.61469733E-01 0.35610862E+03</pdfrwt>
<pdfrwt beam="2">  1       -2 0.10525617E-01 0.35610862E+03</pdfrwt>
<totfact> 0.49071254E+03</totfact>
</mgrwt>
</event>
<event>
 4    1  0.5387486E-005  0.9212759E+03  0.7818608E-02  0.9399369E-01
         -2   -1    0    0    0  501 -0.00000000000E+00  0.00000000000E+00  0.25113060355E+04  0.25113060355E+04  0.25500000000E-02 0. -1.
          2   -1    0    0  501    0  0.00000000000E+00 -0.00000000000E+00 -0.84492820139E+02  0.84492820177E+02  0.25500000000E-02 0.  1.
    5000001    1    1    2    0    0  0.34716736041E+03  0.22238086445E+03  0.15583070980E+04  0.16203470112E+04  0.16500000000E+03 0.  0.
   -5000001    1    1    2    0    0 -0.34716736041E+03 -0.22238086445E+03  0.86850611736E+03  0.97545184448E+03  0.16500000000E+03 0.  0.
<mgrwt>
<rscale>  0 0.92127592E+03</rscale>
<asrwt>0</asrwt>
<pdfrwt beam="1">  1        2 0.12070401E-01 0.92127592E+03</pdfrwt>
<pdfrwt beam="2">  1       -2 0.35875805E+00 0.92127592E+03</pdfrwt>
<totfact> 0.74388612E+00</totfact>
</mgrwt>
</event>
<event>
 4    1  0.5387486E-005  0.4401950E+03  0.7818608E-02  0.1030687E+00
         -2   -1    0    0    0  501 -0.00000000000E+00  0.00000000000E+00  0.35262966555E+03  0.35262966556E+03  0.25500000000E-02 0. -1.
          2   -1    0    0  501    0  0.00000000000E+00 -0.00000000000E+00 -0.13737617598E+03  0.13737617600E+03  0.25500000000E-02 0.  1.
    5000001    1    1    2    0    0  0.25894283563E+02 -0.89560324071E+02 -0.16959010323E+02  0.19027394357E+03  0.16500000000E+03 0.  0.
   -5000001    1    1    2    0    0 -0.25894283563E+02  0.89560324071E+02  0.23221249990E+03  0.29973189800E+03  0.16500000000E+03 0.  0.
<mgrwt>
<rscale>  0 0.44019502E+03</rscale>
<asrwt>0</asrwt>
<pdfrwt beam="1">  1        2 0.19625168E-01 0.44019502E+03</pdfrwt>
<pdfrwt beam="2">  1       -2 0.50375666E-01 0.44019502E+03</pdfrwt>
<totfact> 0.10829199E+03</totfact>
</mgrwt>
</event>
<event>
 4    1  0.5387486E-005  0.6326947E+03  0.7818608E-02  0.9839804E-01
         -2   -1    0    0    0  501 -0.00000000000E+00  0.00000000000E+00  0.35499789057E+03  0.35499789058E+03  0.25500000000E-02 0. -1.
          2   -1    0    0  501    0  0.00000000000E+00 -0.00000000000E+00 -0.28190487368E+03  0.28190487370E+03  0.25500000000E-02 0.  1.
    5000001    1    1    2    0    0  0.20118110210E+03 -0.16591175710E+03 -0.33559266163E+02  0.31040581717E+03  0.16500000000E+03 0.  0.
   -5000001    1    1    2    0    0 -0.20118110210E+03  0.16591175710E+03  0.10665228305E+03  0.32649694710E+03  0.16500000000E+03 0.  0.
<mgrwt>
<rscale>  0 0.63269467E+03</rscale>
<asrwt>0</asrwt>
<pdfrwt beam="1">  1        2 0.40272125E-01 0.63269467E+03</pdfrwt>
<pdfrwt beam="2">  1       -2 0.50713984E-01 0.63269467E+03</pdfrwt>
<totfact> 0.47371304E+02</totfact>
</mgrwt>
</event>
<event>
 4    1  0.5387486E-005  0.5513027E+03  0.7818608E-02  0.1001193E+00
         -2   -1    0    0    0  501 -0.00000000000E+00  0.00000000000E+00  0.67521269318E+02  0.67521269366E+02  0.25500000000E-02 0. -1.
          2   -1    0    0  501    0  0.00000000000E+00 -0.00000000000E+00 -0.11253293908E+04  0.11253293908E+04  0.25500000000E-02 0.  1.
    5000001    1    1    2    0    0 -0.13718497168E+03 -0.10156744916E+03 -0.22580910069E+03  0.32764372898E+03  0.16500000000E+03 0.  0.
   -5000001    1    1    2    0    0  0.13718497168E+03  0.10156744916E+03 -0.83199902075E+03  0.86520693115E+03  0.16500000000E+03 0.  0.
<mgrwt>
<rscale>  0 0.55130271E+03</rscale>
<asrwt>0</asrwt>
<pdfrwt beam="1">  1        2 0.16076133E+00 0.55130271E+03</pdfrwt>
<pdfrwt beam="2">  1       -2 0.96458963E-02 0.55130271E+03</pdfrwt>
<totfact> 0.17287022E+03</totfact>
</mgrwt>
</event>
<event>
 4    1  0.5387486E-005  0.4216376E+03  0.7818608E-02  0.1036535E+00
          2   -1    0    0  501    0  0.00000000000E+00  0.00000000000E+00  0.12410843564E+03  0.12410843566E+03  0.25500000000E-02 0.  1.
         -2   -1    0    0    0  501 -0.00000000000E+00 -0.00000000000E+00 -0.35811078801E+03  0.35811078802E+03  0.25500000000E-02 0. -1.
    5000001    1    1    2    0    0  0.10097657982E+03 -0.56461691274E+02 -0.46172483556E+02  0.20673918470E+03  0.16500000000E+03 0.  0.
   -5000001    1    1    2    0    0 -0.10097657982E+03  0.56461691274E+02 -0.18782986882E+03  0.27548003898E+03  0.16500000000E+03 0.  0.
<mgrwt>
<rscale>  0 0.42163762E+03</rscale>
<asrwt>0</asrwt>
<pdfrwt beam="1">  1        2 0.17729777E-01 0.42163762E+03</pdfrwt>
<pdfrwt beam="2">  1       -2 0.51158684E-01 0.42163762E+03</pdfrwt>
<totfact> 0.11818862E+03</totfact>
</mgrwt>
</event>
<event>
 4    1  0.5387486E-005  0.4825341E+03  0.7818608E-02  0.1018441E+00
         -2   -1    0    0    0  501 -0.00000000000E+00  0.00000000000E+00  0.14090469449E+03  0.14090469451E+03  0.25500000000E-02 0.  1.
          2   -1    0    0  501    0  0.00000000000E+00 -0.00000000000E+00 -0.41311455960E+03  0.41311455961E+03  0.25500000000E-02 0. -1.
    5000001    1    1    2    0    0 -0.11097038278E+03  0.29885580694E+01  0.20739556872E+02  0.19994620915E+03  0.16500000000E+03 0.  0.
   -5000001    1    1    2    0    0  0.11097038278E+03 -0.29885580694E+01 -0.29294942199E+03  0.35407304497E+03  0.16500000000E+03 0.  0.
<mgrwt>
<rscale>  0 0.48253406E+03</rscale>
<asrwt>0</asrwt>
<pdfrwt beam="1">  1        2 0.59016365E-01 0.48253406E+03</pdfrwt>
<pdfrwt beam="2">  1       -2 0.20129242E-01 0.48253406E+03</pdfrwt>
<totfact> 0.17508656E+03</totfact>
</mgrwt>
</event>
<event>
 4    1  0.5387486E-005  0.8103931E+03  0.7818608E-02  0.9545094E-01
         -2   -1    0    0    0  501 -0.00000000000E+00  0.00000000000E+00  0.17113108533E+03  0.17113108535E+03  0.25500000000E-02 0. -1.
          2   -1    0    0  501    0  0.00000000000E+00 -0.00000000000E+00 -0.95940633677E+03  0.95940633677E+03  0.25500000000E-02 0.  1.
    5000001    1    1    2    0    0 -0.36414875919E+03 -0.29464237990E+02 -0.47651386226E+03  0.62270612737E+03  0.16500000000E+03 0.  0.
   -5000001    1    1    2    0    0  0.36414875919E+03  0.29464237990E+02 -0.31176138918E+03  0.50783129475E+03  0.16500000000E+03 0.  0.
<mgrwt>
<rscale>  0 0.81039311E+03</rscale>
<asrwt>0</asrwt>
<pdfrwt beam="1">  1        2 0.13705805E+00 0.81039311E+03</pdfrwt>
<pdfrwt beam="2">  1       -2 0.24447298E-01 0.81039311E+03</pdfrwt>
<totfact> 0.44540874E+02</totfact>
</mgrwt>
</event>
<event>
 4    1  0.5387486E-005  0.5478437E+03  0.7818608E-02  0.1001994E+00
          2   -1    0    0  501    0  0.00000000000E+00  0.00000000000E+00  0.85441859104E+02  0.85441859142E+02  0.25500000000E-02 0.  1.
         -2   -1    0    0    0  501 -0.00000000000E+00 -0.00000000000E+00 -0.87817836671E+03  0.87817836672E+03  0.25500000000E-02 0. -1.
    5000001    1    1    2    0    0 -0.58096857175E+02  0.17900324865E+03 -0.20057460475E+03  0.32073755613E+03  0.16500000000E+03 0.  0.
   -5000001    1    1    2    0    0  0.58096857175E+02 -0.17900324865E+03 -0.59216190286E+03  0.64288266973E+03  0.16500000000E+03 0.  0.
<mgrwt>
<rscale>  0 0.54784375E+03</rscale>
<asrwt>0</asrwt>
<pdfrwt beam="1">  1        2 0.12205980E-01 0.54784375E+03</pdfrwt>
<pdfrwt beam="2">  1       -2 0.12545405E+00 0.54784375E+03</pdfrwt>
<totfact> 0.24901806E+02</totfact>
</mgrwt>
</event>
<event>
 4    1  0.5387486E-005  0.8101716E+03  0.7818608E-02  0.9545410E-01
         -2   -1    0    0    0  501 -0.00000000000E+00  0.00000000000E+00  0.52947343306E+03  0.52947343307E+03  0.25500000000E-02 0. -1.
          2   -1    0    0  501    0  0.00000000000E+00 -0.00000000000E+00 -0.30992018152E+03  0.30992018153E+03  0.25500000000E-02 0.  1.
    5000001    1    1    2    0    0 -0.24294667494E+03 -0.25731445067E+03  0.22153619113E+03  0.44892883330E+03  0.16500000000E+03 0.  0.
   -5000001    1    1    2    0    0  0.24294667494E+03  0.25731445067E+03 -0.19829395855E+01  0.39046478130E+03  0.16500000000E+03 0.  0.
<mgrwt>
<rscale>  0 0.81017159E+03</rscale>
<asrwt>0</asrwt>
<pdfrwt beam="1">  1        2 0.44274312E-01 0.81017159E+03</pdfrwt>
<pdfrwt beam="2">  1       -2 0.75639062E-01 0.81017159E+03</pdfrwt>
<totfact> 0.18149243E+02</totfact>
</mgrwt>
</event>
<event>
 4    1  0.5387486E-005  0.7369018E+03  0.7818608E-02  0.9656126E-01
         -2   -1    0    0    0  501 -0.00000000000E+00  0.00000000000E+00  0.37375494217E+02  0.37375494304E+02  0.25500000000E-02 0. -1.
          2   -1    0    0  501    0  0.00000000000E+00 -0.00000000000E+00 -0.36322216365E+04  0.36322216365E+04  0.25500000000E-02 0.  1.
    5000001    1    1    2    0    0  0.32801772364E+03  0.20053200645E+02 -0.16824216748E+04  0.17221397880E+04  0.16500000000E+03 0.  0.
   -5000001    1    1    2    0    0 -0.32801772364E+03 -0.20053200645E+02 -0.19124244676E+04  0.19474573428E+04  0.16500000000E+03 0.  0.
<mgrwt>
<rscale>  0 0.73690184E+03</rscale>
<asrwt>0</asrwt>
<pdfrwt beam="1">  1        2 0.51888858E+00 0.73690184E+03</pdfrwt>
<pdfrwt beam="2">  1       -2 0.53393586E-02 0.73690184E+03</pdfrwt>
<totfact> 0.19889962E+02</totfact>
</mgrwt>
</event>
<event>
 4    1  0.5387486E-005  0.5010766E+03  0.7818608E-02  0.1013498E+00
         -2   -1    0    0    0  501 -0.00000000000E+00  0.00000000000E+00  0.24485953323E+02  0.24485953455E+02  0.25500000000E-02 0. -1.
          2   -1    0    0  501    0  0.00000000000E+00 -0.00000000000E+00 -0.25634874219E+04  0.25634874219E+04  0.25500000000E-02 0.  1.
    5000001    1    1    2    0    0 -0.11002656658E+03  0.12243926037E+03 -0.17441933716E+04  0.17596967737E+04  0.16500000000E+03 0.  0.
   -5000001    1    1    2    0    0  0.11002656658E+03 -0.12243926037E+03 -0.79480809700E+03  0.82827660168E+03  0.16500000000E+03 0.  0.
<mgrwt>
<rscale>  0 0.50107658E+03</rscale>
<asrwt>0</asrwt>
<pdfrwt beam="1">  1        2 0.36621232E+00 0.50107658E+03</pdfrwt>
<pdfrwt beam="2">  1       -2 0.34979950E-02 0.50107658E+03</pdfrwt>
<totfact> 0.15360443E+03</totfact>
</mgrwt>
</event>
<event>
 4    1  0.5387486E-005  0.3530309E+03  0.7818608E-02  0.1061378E+00
         -2   -1    0    0    0  501 -0.00000000000E+00  0.00000000000E+00  0.37983841705E+02  0.37983841791E+02  0.25500000000E-02 0. -1.
          2   -1    0    0  501    0  0.00000000000E+00 -0.00000000000E+00 -0.82028848889E+03  0.82028848890E+03  0.25500000000E-02 0.  1.
    5000001    1    1    2    0    0 -0.16503355170E+02 -0.58247937390E+02 -0.43091674993E+03  0.46538094967E+03  0.16500000000E+03 0.  0.
   -5000001    1    1    2    0    0  0.16503355170E+02  0.58247937390E+02 -0.35138789726E+03  0.39289138102E+03  0.16500000000E+03 0.  0.
<mgrwt>
<rscale>  0 0.35303092E+03</rscale>
<asrwt>0</asrwt>
<pdfrwt beam="1">  1        2 0.11718406E+00 0.35303092E+03</pdfrwt>
<pdfrwt beam="2">  1       -2 0.54262636E-02 0.35303092E+03</pdfrwt>
<totfact> 0.65581882E+03</totfact>
</mgrwt>
</event>
<event>
 4    1  0.5387486E-005  0.5990691E+03  0.7818608E-02  0.9907339E-01
         -2   -1    0    0    0  501 -0.00000000000E+00  0.00000000000E+00  0.29509749568E+03  0.29509749569E+03  0.25500000000E-02 0. -1.
          2   -1    0    0  501    0  0.00000000000E+00 -0.00000000000E+00 -0.30403835834E+03  0.30403835835E+03  0.25500000000E-02 0.  1.
    5000001    1    1    2    0    0  0.12988621600E+03 -0.18128363693E+03 -0.11745102533E+03  0.30125392856E+03  0.16500000000E+03 0.  0.
   -5000001    1    1    2    0    0 -0.12988621600E+03  0.18128363693E+03  0.10851016266E+03  0.29788192548E+03  0.16500000000E+03 0.  0.
<mgrwt>
<rscale>  0 0.59906914E+03</rscale>
<asrwt>0</asrwt>
<pdfrwt beam="1">  1        2 0.43434051E-01 0.59906914E+03</pdfrwt>
<pdfrwt beam="2">  1       -2 0.42156785E-01 0.59906914E+03</pdfrwt>
<totfact> 0.63057184E+02</totfact>
</mgrwt>
</event>
<event>
 4    1  0.5387486E-005  0.8201496E+03  0.7818608E-02  0.9531301E-01
          2   -1    0    0  501    0  0.00000000000E+00  0.00000000000E+00  0.32013963589E+04  0.32013963589E+04  0.25500000000E-02 0. -1.
         -2   -1    0    0    0  501 -0.00000000000E+00 -0.00000000000E+00 -0.52527499118E+02  0.52527499180E+02  0.25500000000E-02 0.  1.
    5000001    1    1    2    0    0 -0.61684884008E+02  0.32912202290E+03  0.22478544712E+04  0.22786401766E+04  0.16500000000E+03 0.  0.
   -5000001    1    1    2    0    0  0.61684884008E+02 -0.32912202290E+03  0.90101438862E+03  0.97528368149E+03  0.16500000000E+03 0.  0.
<mgrwt>
<rscale>  0 0.82014961E+03</rscale>
<asrwt>0</asrwt>
<pdfrwt beam="1">  1        2 0.45734240E+00 0.82014961E+03</pdfrwt>
<pdfrwt beam="2">  1       -2 0.75039275E-02 0.82014961E+03</pdfrwt>
<totfact> 0.20655154E+02</totfact>
</mgrwt>
</event>
<event>
 4    1  0.5387486E-005  0.9540263E+03  0.7818608E-02  0.9360457E-01
          2   -1    0    0  501    0  0.00000000000E+00  0.00000000000E+00  0.22903307411E+04  0.22903307411E+04  0.25500000000E-02 0.  1.
         -2   -1    0    0    0  501 -0.00000000000E+00 -0.00000000000E+00 -0.99348773836E+02  0.99348773868E+02  0.25500000000E-02 0. -1.
    5000001    1    1    2    0    0  0.36935045215E+03  0.54272254551E+02  0.47708902819E+03  0.62785681086E+03  0.16500000000E+03 0.  0.
   -5000001    1    1    2    0    0 -0.36935045215E+03 -0.54272254551E+02  0.17138929391E+04  0.17618227041E+04  0.16500000000E+03 0.  0.
<mgrwt>
<rscale>  0 0.95402631E+03</rscale>
<asrwt>0</asrwt>
<pdfrwt beam="1">  1        2 0.32719008E+00 0.95402631E+03</pdfrwt>
<pdfrwt beam="2">  1       -2 0.14192683E-01 0.95402631E+03</pdfrwt>
<totfact> 0.22064828E+02</totfact>
</mgrwt>
</event>
<event>
 4    1  0.5387486E-005  0.5255676E+03  0.7818608E-02  0.1007313E+00
         -2   -1    0    0    0  501 -0.00000000000E+00  0.00000000000E+00  0.45176736215E+03  0.45176736216E+03  0.25500000000E-02 0. -1.
          2   -1    0    0  501    0  0.00000000000E+00 -0.00000000000E+00 -0.15285595460E+03  0.15285595462E+03  0.25500000000E-02 0.  1.
    5000001    1    1    2    0    0 -0.48935071601E+02  0.19577355188E+03  0.11115508135E+03  0.28337674033E+03  0.16500000000E+03 0.  0.
   -5000001    1    1    2    0    0  0.48935071601E+02 -0.19577355188E+03  0.18775632621E+03  0.32124657645E+03  0.16500000000E+03 0.  0.
<mgrwt>
<rscale>  0 0.52556762E+03</rscale>
<asrwt>0</asrwt>
<pdfrwt beam="1">  1        2 0.21836565E-01 0.52556762E+03</pdfrwt>
<pdfrwt beam="2">  1       -2 0.64538194E-01 0.52556762E+03</pdfrwt>
<totfact> 0.57258243E+02</totfact>
</mgrwt>
</event>
<event>
 4    1  0.5387486E-005  0.6540214E+03  0.7818608E-02  0.9799262E-01
          2   -1    0    0  501    0  0.00000000000E+00  0.00000000000E+00  0.12747733172E+04  0.12747733172E+04  0.25500000000E-02 0.  1.
         -2   -1    0    0    0  501 -0.00000000000E+00 -0.00000000000E+00 -0.83886281220E+02  0.83886281259E+02  0.25500000000E-02 0. -1.
    5000001    1    1    2    0    0  0.29780177653E+02 -0.26427948199E+03  0.79230861040E+03  0.85188522566E+03  0.16500000000E+03 0.  0.
   -5000001    1    1    2    0    0 -0.29780177653E+02  0.26427948199E+03  0.39857842555E+03  0.50677437277E+03  0.16500000000E+03 0.  0.
<mgrwt>
<rscale>  0 0.65402138E+03</rscale>
<asrwt>0</asrwt>
<pdfrwt beam="1">  1        2 0.18211046E+00 0.65402138E+03</pdfrwt>
<pdfrwt beam="2">  1       -2 0.11983755E-01 0.65402138E+03</pdfrwt>
<totfact> 0.99776073E+02</totfact>
</mgrwt>
</event>
<event>
 4    1  0.5387486E-005  0.8480392E+03  0.7818608E-02  0.9492972E-01
          2   -1    0    0  501    0  0.00000000000E+00  0.00000000000E+00  0.21232660647E+04  0.21232660647E+04  0.25500000000E-02 0.  1.
         -2   -1    0    0    0  501 -0.00000000000E+00 -0.00000000000E+00 -0.84677381004E+02  0.84677381043E+02  0.25500000000E-02 0. -1.
    5000001    1    1    2    0    0  0.21729339923E+01 -0.38341282701E+03  0.12133880493E+04  0.12831779595E+04  0.16500000000E+03 0.  0.
   -5000001    1    1    2    0    0 -0.21729339923E+01  0.38341282701E+03  0.82520063448E+03  0.92476548632E+03  0.16500000000E+03 0.  0.
<mgrwt>
<rscale>  0 0.84803917E+03</rscale>
<asrwt>0</asrwt>
<pdfrwt beam="1">  1        2 0.30332378E+00 0.84803917E+03</pdfrwt>
<pdfrwt beam="2">  1       -2 0.12096767E-01 0.84803917E+03</pdfrwt>
<totfact> 0.35345993E+02</totfact>
</mgrwt>
</event>
<event>
 4    1  0.5387486E-005  0.5334474E+03  0.7818608E-02  0.1005399E+00
         -2   -1    0    0    0  501 -0.00000000000E+00  0.00000000000E+00  0.42046307405E+02  0.42046307483E+02  0.25500000000E-02 0. -1.
          2   -1    0    0  501    0  0.00000000000E+00 -0.00000000000E+00 -0.16919803760E+04  0.16919803760E+04  0.25500000000E-02 0.  1.
    5000001    1    1    2    0    0  0.15941976214E+03  0.76000299164E+02 -0.45827025564E+03  0.51809973291E+03  0.16500000000E+03 0.  0.
   -5000001    1    1    2    0    0 -0.15941976214E+03 -0.76000299164E+02 -0.11916638129E+04  0.12159269506E+04  0.16500000000E+03 0.  0.
<mgrwt>
<rscale>  0 0.53344738E+03</rscale>
<asrwt>0</asrwt>
<pdfrwt beam="1">  1        2 0.24171144E+00 0.53344738E+03</pdfrwt>
<pdfrwt beam="2">  1       -2 0.60066164E-02 0.53344738E+03</pdfrwt>
<totfact> 0.18307205E+03</totfact>
</mgrwt>
</event>
<event>
 4    1  0.5387486E-005  0.4339044E+03  0.7818608E-02  0.1032634E+00
         -2   -1    0    0    0  501 -0.00000000000E+00  0.00000000000E+00  0.18755885633E+02  0.18755885806E+02  0.25500000000E-02 0. -1.
          2   -1    0    0  501    0  0.00000000000E+00 -0.00000000000E+00 -0.25095190783E+04  0.25095190783E+04  0.25500000000E-02 0.  1.
    5000001    1    1    2    0    0 -0.81477074262E+02 -0.11142568570E+03 -0.10817059075E+04  0.11028902336E+04  0.16500000000E+03 0.  0.
   -5000001    1    1    2    0    0  0.81477074262E+02  0.11142568570E+03 -0.14090572851E+04  0.14253847305E+04  0.16500000000E+03 0.  0.
<mgrwt>
<rscale>  0 0.43390438E+03</rscale>
<asrwt>0</asrwt>
<pdfrwt beam="1">  1        2 0.35850251E+00 0.43390438E+03</pdfrwt>
<pdfrwt beam="2">  1       -2 0.26794139E-02 0.43390438E+03</pdfrwt>
<totfact> 0.24597225E+03</totfact>
</mgrwt>
</event>
<event>
 4    1  0.5387486E-005  0.4918530E+03  0.7818608E-02  0.1015928E+00
          2   -1    0    0  501    0  0.00000000000E+00  0.00000000000E+00  0.59258845038E+03  0.59258845039E+03  0.25500000000E-02 0.  1.
         -2   -1    0    0    0  501 -0.00000000000E+00 -0.00000000000E+00 -0.10206044085E+03  0.10206044088E+03  0.25500000000E-02 0. -1.
    5000001    1    1    2    0    0  0.15943975599E+03  0.88181774726E+02  0.23452883991E+03  0.33974378278E+03  0.16500000000E+03 0.  0.
   -5000001    1    1    2    0    0 -0.15943975599E+03 -0.88181774726E+02  0.25599916962E+03  0.35490510849E+03  0.16500000000E+03 0.  0.
<mgrwt>
<rscale>  0 0.49185298E+03</rscale>
<asrwt>0</asrwt>
<pdfrwt beam="1">  1        2 0.84655492E-01 0.49185298E+03</pdfrwt>
<pdfrwt beam="2">  1       -2 0.14580063E-01 0.49185298E+03</pdfrwt>
<totfact> 0.20156798E+03</totfact>
</mgrwt>
</event>
<event>
 4    1  0.5387486E-005  0.4299039E+03  0.7818608E-02  0.1033890E+00
         -2   -1    0    0    0  501 -0.00000000000E+00  0.00000000000E+00  0.58003367811E+02  0.58003367867E+02  0.25500000000E-02 0. -1.
          2   -1    0    0  501    0  0.00000000000E+00 -0.00000000000E+00 -0.79658047823E+03  0.79658047824E+03  0.25500000000E-02 0.  1.
    5000001    1    1    2    0    0  0.68086755211E+02  0.11961880482E+03 -0.38102962204E+03  0.43743918157E+03  0.16500000000E+03 0.  0.
   -5000001    1    1    2    0    0 -0.68086755211E+02 -0.11961880482E+03 -0.35754748839E+03  0.41714466454E+03  0.16500000000E+03 0.  0.
<mgrwt>
<rscale>  0 0.42990395E+03</rscale>
<asrwt>0</asrwt>
<pdfrwt beam="1">  1        2 0.11379720E+00 0.42990395E+03</pdfrwt>
<pdfrwt beam="2">  1       -2 0.82861959E-02 0.42990395E+03</pdfrwt>
<totfact> 0.35281494E+03</totfact>
</mgrwt>
</event>
<event>
 4    1  0.5387486E-005  0.8006936E+03  0.7818608E-02  0.9559014E-01
          2   -1    0    0  501    0  0.00000000000E+00  0.00000000000E+00  0.36796134603E+03  0.36796134604E+03  0.25500000000E-02 0.  1.
         -2   -1    0    0    0  501 -0.00000000000E+00 -0.00000000000E+00 -0.43558260959E+03  0.43558260960E+03  0.25500000000E-02 0. -1.
    5000001    1    1    2    0    0 -0.99118726407E+02 -0.32938552435E+03  0.88001931268E+02  0.39152098984E+03  0.16500000000E+03 0.  0.
   -5000001    1    1    2    0    0  0.99118726407E+02  0.32938552435E+03 -0.15562319483E+03  0.41202296580E+03  0.16500000000E+03 0.  0.
<mgrwt>
<rscale>  0 0.80069361E+03</rscale>
<asrwt>0</asrwt>
<pdfrwt beam="1">  1        2 0.52565907E-01 0.80069361E+03</pdfrwt>
<pdfrwt beam="2">  1       -2 0.62226087E-01 0.80069361E+03</pdfrwt>
<totfact> 0.22924455E+02</totfact>
</mgrwt>
</event>
<event>
 4    1  0.5387486E-005  0.5481975E+03  0.7818608E-02  0.1001912E+00
          2   -1    0    0  501    0  0.00000000000E+00  0.00000000000E+00  0.42020000455E+02  0.42020000532E+02  0.25500000000E-02 0.  1.
         -2   -1    0    0    0  501 -0.00000000000E+00 -0.00000000000E+00 -0.17879610574E+04  0.17879610574E+04  0.25500000000E-02 0. -1.
    5000001    1    1    2    0    0 -0.10827492161E+03 -0.18523224613E+03 -0.72858974441E+03  0.77724028415E+03  0.16500000000E+03 0.  0.
   -5000001    1    1    2    0    0  0.10827492161E+03  0.18523224613E+03 -0.10173513125E+04  0.10527407737E+04  0.16500000000E+03 0.  0.
<mgrwt>
<rscale>  0 0.54819750E+03</rscale>
<asrwt>0</asrwt>
<pdfrwt beam="1">  1        2 0.60028583E-02 0.54819750E+03</pdfrwt>
<pdfrwt beam="2">  1       -2 0.25542296E+00 0.54819750E+03</pdfrwt>
<totfact> 0.80443429E+01</totfact>
</mgrwt>
</event>
<event>
 4    1  0.5387486E-005  0.6348926E+03  0.7818608E-02  0.9835547E-01
         -2   -1    0    0    0  501 -0.00000000000E+00  0.00000000000E+00  0.72417655491E+02  0.72417655536E+02  0.25500000000E-02 0. -1.
          2   -1    0    0  501    0  0.00000000000E+00 -0.00000000000E+00 -0.13915413399E+04  0.13915413399E+04  0.25500000000E-02 0.  1.
    5000001    1    1    2    0    0  0.12711253011E+03 -0.32786619106E+02 -0.12067530949E+04  0.12250349341E+04  0.16500000000E+03 0.  0.
   -5000001    1    1    2    0    0 -0.12711253011E+03  0.32786619106E+02 -0.11237058951E+03  0.23892406135E+03  0.16500000000E+03 0.  0.
<mgrwt>
<rscale>  0 0.63489263E+03</rscale>
<asrwt>0</asrwt>
<pdfrwt beam="1">  1        2 0.19879161E+00 0.63489263E+03</pdfrwt>
<pdfrwt beam="2">  1       -2 0.10345380E-01 0.63489263E+03</pdfrwt>
<totfact> 0.10983548E+03</totfact>
</mgrwt>
</event>
<event>
 4    1  0.5387486E-005  0.1023815E+04  0.7818608E-02  0.9282803E-01
         -2   -1    0    0    0  501 -0.00000000000E+00  0.00000000000E+00  0.17214650407E+03  0.17214650409E+03  0.25500000000E-02 0. -1.
          2   -1    0    0  501    0  0.00000000000E+00 -0.00000000000E+00 -0.15222467839E+04  0.15222467839E+04  0.25500000000E-02 0.  1.
    5000001    1    1    2    0    0 -0.39507668723E+03 -0.27168400416E+03 -0.79121360550E+03  0.93975622181E+03  0.16500000000E+03 0.  0.
   -5000001    1    1    2    0    0  0.39507668723E+03  0.27168400416E+03 -0.55888667431E+03  0.75463706617E+03  0.16500000000E+03 0.  0.
<mgrwt>
<rscale>  0 0.10238153E+04</rscale>
<asrwt>0</asrwt>
<pdfrwt beam="1">  1        2 0.21746382E+00 0.10238153E+04</pdfrwt>
<pdfrwt beam="2">  1       -2 0.24592359E-01 0.10238153E+04</pdfrwt>
<totfact> 0.20918476E+02</totfact>
</mgrwt>
</event>
<event>
 4    1  0.5387486E-005  0.4464173E+03  0.7818608E-02  0.1028796E+00
          2   -1    0    0  501    0  0.00000000000E+00  0.00000000000E+00  0.16559302200E+04  0.16559302200E+04  0.25500000000E-02 0.  1.
         -2   -1    0    0    0  501 -0.00000000000E+00 -0.00000000000E+00 -0.30087084135E+02  0.30087084243E+02  0.25500000000E-02 0. -1.
    5000001    1    1    2    0    0 -0.10702045362E+03 -0.98334512796E+02  0.66791814377E+03  0.70318041830E+03  0.16500000000E+03 0.  0.
   -5000001    1    1    2    0    0  0.10702045362E+03  0.98334512796E+02  0.95792499208E+03  0.98283688594E+03  0.16500000000E+03 0.  0.
<mgrwt>
<rscale>  0 0.44641735E+03</rscale>
<asrwt>0</asrwt>
<pdfrwt beam="1">  1        2 0.23656157E+00 0.44641735E+03</pdfrwt>
<pdfrwt beam="2">  1       -2 0.42981530E-02 0.44641735E+03</pdfrwt>
<totfact> 0.32093324E+03</totfact>
</mgrwt>
</event>
<event>
 4    1  0.5387486E-005  0.5362189E+03  0.7818608E-02  0.1004735E+00
         -2   -1    0    0    0  501 -0.00000000000E+00  0.00000000000E+00  0.37760060283E+02  0.37760060369E+02  0.25500000000E-02 0. -1.
          2   -1    0    0  501    0  0.00000000000E+00 -0.00000000000E+00 -0.19036697400E+04  0.19036697400E+04  0.25500000000E-02 0.  1.
    5000001    1    1    2    0    0  0.12352323438E+03 -0.13146133095E+03 -0.53439999137E+03  0.58766352767E+03  0.16500000000E+03 0.  0.
   -5000001    1    1    2    0    0 -0.12352323438E+03  0.13146133095E+03 -0.13315096883E+04  0.13537662727E+04  0.16500000000E+03 0.  0.
<mgrwt>
<rscale>  0 0.53621893E+03</rscale>
<asrwt>0</asrwt>
<pdfrwt beam="1">  1        2 0.27195276E+00 0.53621893E+03</pdfrwt>
<pdfrwt beam="2">  1       -2 0.53942956E-02 0.53621893E+03</pdfrwt>
<totfact> 0.16933819E+03</totfact>
</mgrwt>
</event>
<event>
 4    1  0.5387486E-005  0.4094540E+03  0.7818608E-02  0.1040554E+00
          2   -1    0    0  501    0  0.00000000000E+00  0.00000000000E+00  0.34900770630E+03  0.34900770631E+03  0.25500000000E-02 0. -1.
         -2   -1    0    0    0  501 -0.00000000000E+00 -0.00000000000E+00 -0.12009231008E+03  0.12009231011E+03  0.25500000000E-02 0.  1.
    5000001    1    1    2    0    0 -0.11032218645E+03 -0.80219698435E+00  0.56985214623E+02  0.20650409930E+03  0.16500000000E+03 0.  0.
   -5000001    1    1    2    0    0  0.11032218645E+03  0.80219698435E+00  0.17193018160E+03  0.26259591712E+03  0.16500000000E+03 0.  0.
<mgrwt>
<rscale>  0 0.40945399E+03</rscale>
<asrwt>0</asrwt>
<pdfrwt beam="1">  1        2 0.49858245E-01 0.40945399E+03</pdfrwt>
<pdfrwt beam="2">  1       -2 0.17156044E-01 0.40945399E+03</pdfrwt>
<totfact> 0.27664428E+03</totfact>
</mgrwt>
</event>
<event>
 4    1  0.5387486E-005  0.6504220E+03  0.7818608E-02  0.9805988E-01
         -2   -1    0    0    0  501 -0.00000000000E+00  0.00000000000E+00  0.65045574220E+02  0.65045574270E+02  0.25500000000E-02 0. -1.
          2   -1    0    0  501    0  0.00000000000E+00 -0.00000000000E+00 -0.16259708582E+04  0.16259708582E+04  0.25500000000E-02 0.  1.
    5000001    1    1    2    0    0 -0.14736923583E+03  0.21187730305E+03 -0.10644034045E+04  0.11076052053E+04  0.16500000000E+03 0.  0.
   -5000001    1    1    2    0    0  0.14736923583E+03 -0.21187730305E+03 -0.49652187941E+03  0.58341122713E+03  0.16500000000E+03 0.  0.
<mgrwt>
<rscale>  0 0.65042204E+03</rscale>
<asrwt>0</asrwt>
<pdfrwt beam="1">  1        2 0.23228153E+00 0.65042204E+03</pdfrwt>
<pdfrwt beam="2">  1       -2 0.92922259E-02 0.65042204E+03</pdfrwt>
<totfact> 0.98532458E+02</totfact>
</mgrwt>
</event>
<event>
 4    1  0.5387486E-005  0.4382839E+03  0.7818608E-02  0.1031275E+00
          2   -1    0    0  501    0  0.00000000000E+00  0.00000000000E+00  0.93704044144E+03  0.93704044145E+03  0.25500000000E-02 0.  1.
         -2   -1    0    0    0  501 -0.00000000000E+00 -0.00000000000E+00 -0.51249868756E+02  0.51249868819E+02  0.25500000000E-02 0. -1.
    5000001    1    1    2    0    0  0.12297689013E+03 -0.42514446413E+02  0.30266594972E+03  0.36845959178E+03  0.16500000000E+03 0.  0.
   -5000001    1    1    2    0    0 -0.12297689013E+03  0.42514446413E+02  0.58312462297E+03  0.61983071848E+03  0.16500000000E+03 0.  0.
<mgrwt>
<rscale>  0 0.43828392E+03</rscale>
<asrwt>0</asrwt>
<pdfrwt beam="1">  1        2 0.13386291E+00 0.43828392E+03</pdfrwt>
<pdfrwt beam="2">  1       -2 0.73214105E-02 0.43828392E+03</pdfrwt>
<totfact> 0.34736375E+03</totfact>
</mgrwt>
</event>
<event>
 4    1  0.5387486E-005  0.4302952E+03  0.7818608E-02  0.1033767E+00
          2   -1    0    0  501    0  0.00000000000E+00  0.00000000000E+00  0.10248722068E+04  0.10248722068E+04  0.25500000000E-02 0.  1.
         -2   -1    0    0    0  501 -0.00000000000E+00 -0.00000000000E+00 -0.45165139714E+02  0.45165139786E+02  0.25500000000E-02 0. -1.
    5000001    1    1    2    0    0 -0.13363543836E+03  0.33035017341E+02  0.46333099100E+03  0.51073510745E+03  0.16500000000E+03 0.  0.
   -5000001    1    1    2    0    0  0.13363543836E+03 -0.33035017341E+02  0.51637607606E+03  0.55930223911E+03  0.16500000000E+03 0.  0.
<mgrwt>
<rscale>  0 0.43029523E+03</rscale>
<asrwt>0</asrwt>
<pdfrwt beam="1">  1        2 0.14641033E+00 0.43029523E+03</pdfrwt>
<pdfrwt beam="2">  1       -2 0.64521623E-02 0.43029523E+03</pdfrwt>
<totfact> 0.37434700E+03</totfact>
</mgrwt>
</event>
<event>
 4    1  0.5387486E-005  0.7865597E+03  0.7818608E-02  0.9579678E-01
         -2   -1    0    0    0  501 -0.00000000000E+00  0.00000000000E+00  0.18038001557E+03  0.18038001559E+03  0.25500000000E-02 0. -1.
          2   -1    0    0  501    0  0.00000000000E+00 -0.00000000000E+00 -0.85746220761E+03  0.85746220762E+03  0.25500000000E-02 0.  1.
    5000001    1    1    2    0    0  0.91173931916E+02  0.28752406685E+03 -0.86590412695E+02  0.35454996044E+03  0.16500000000E+03 0.  0.
   -5000001    1    1    2    0    0 -0.91173931916E+02 -0.28752406685E+03 -0.59049177935E+03  0.68329226276E+03  0.16500000000E+03 0.  0.
<mgrwt>
<rscale>  0 0.78655972E+03</rscale>
<asrwt>0</asrwt>
<pdfrwt beam="1">  1        2 0.12249460E+00 0.78655972E+03</pdfrwt>
<pdfrwt beam="2">  1       -2 0.25768574E-01 0.78655972E+03</pdfrwt>
<totfact> 0.47206704E+02</totfact>
</mgrwt>
</event>
<event>
 4    1  0.5387486E-005  0.5432793E+03  0.7818608E-02  0.1003062E+00
          2   -1    0    0  501    0  0.00000000000E+00  0.00000000000E+00  0.68935177225E+03  0.68935177226E+03  0.25500000000E-02 0.  1.
         -2   -1    0    0    0  501 -0.00000000000E+00 -0.00000000000E+00 -0.10703985049E+03  0.10703985052E+03  0.25500000000E-02 0. -1.
    5000001    1    1    2    0    0  0.17848898914E+03 -0.10044144130E+03  0.19155789750E+03  0.32537091214E+03  0.16500000000E+03 0.  0.
   -5000001    1    1    2    0    0 -0.17848898914E+03  0.10044144130E+03  0.39075402427E+03  0.47102071064E+03  0.16500000000E+03 0.  0.
<mgrwt>
<rscale>  0 0.54327934E+03</rscale>
<asrwt>0</asrwt>
<pdfrwt beam="1">  1        2 0.98478822E-01 0.54327934E+03</pdfrwt>
<pdfrwt beam="2">  1       -2 0.15291408E-01 0.54327934E+03</pdfrwt>
<totfact> 0.15548611E+03</totfact>
</mgrwt>
</event>
<event>
 4    1  0.5387486E-005  0.3881135E+03  0.7818608E-02  0.1047975E+00
         -2   -1    0    0    0  501 -0.00000000000E+00  0.00000000000E+00  0.49975189399E+02  0.49975189464E+02  0.25500000000E-02 0. -1.
          2   -1    0    0  501    0  0.00000000000E+00 -0.00000000000E+00 -0.75353446701E+03  0.75353446701E+03  0.25500000000E-02 0.  1.
    5000001    1    1    2    0    0  0.84232210554E+02  0.50781727608E+02 -0.40882289296E+03  0.45170234332E+03  0.16500000000E+03 0.  0.
   -5000001    1    1    2    0    0 -0.84232210554E+02 -0.50781727608E+02 -0.29473638465E+03  0.35180731315E+03  0.16500000000E+03 0.  0.
<mgrwt>
<rscale>  0 0.38811353E+03</rscale>
<asrwt>0</asrwt>
<pdfrwt beam="1">  1        2 0.10764777E+00 0.38811353E+03</pdfrwt>
<pdfrwt beam="2">  1       -2 0.71393132E-02 0.38811353E+03</pdfrwt>
<totfact> 0.47735064E+03</totfact>
</mgrwt>
</event>
<event>
 4    1  0.5387486E-005  0.5642536E+03  0.7818608E-02  0.9982476E-01
         -2   -1    0    0    0  501 -0.00000000000E+00  0.00000000000E+00  0.13859317771E+03  0.13859317774E+03  0.25500000000E-02 0. -1.
          2   -1    0    0  501    0  0.00000000000E+00 -0.00000000000E+00 -0.57431067742E+03  0.57431067742E+03  0.25500000000E-02 0.  1.
    5000001    1    1    2    0    0 -0.41117013450E+02 -0.22037001559E+03 -0.15972666224E+03  0.32092235696E+03  0.16500000000E+03 0.  0.
   -5000001    1    1    2    0    0  0.41117013450E+02  0.22037001559E+03 -0.27599083746E+03  0.39198149820E+03  0.16500000000E+03 0.  0.
<mgrwt>
<rscale>  0 0.56425364E+03</rscale>
<asrwt>0</asrwt>
<pdfrwt beam="1">  1        2 0.82044381E-01 0.56425364E+03</pdfrwt>
<pdfrwt beam="2">  1       -2 0.19799026E-01 0.56425364E+03</pdfrwt>
<totfact> 0.12417177E+03</totfact>
</mgrwt>
</event>
<event>
 4    1  0.5387486E-005  0.7005461E+03  0.7818608E-02  0.9716299E-01
          2   -1    0    0  501    0  0.00000000000E+00  0.00000000000E+00  0.60534143892E+03  0.60534143892E+03  0.25500000000E-02 0.  1.
         -2   -1    0    0    0  501 -0.00000000000E+00 -0.00000000000E+00 -0.20268102647E+03  0.20268102649E+03  0.25500000000E-02 0. -1.
    5000001    1    1    2    0    0 -0.21042880504E+03  0.22589850159E+03  0.21572757864E+03  0.41118584995E+03  0.16500000000E+03 0.  0.
   -5000001    1    1    2    0    0  0.21042880504E+03 -0.22589850159E+03  0.18693283381E+03  0.39683661546E+03  0.16500000000E+03 0.  0.
<mgrwt>
<rscale>  0 0.70054614E+03</rscale>
<asrwt>0</asrwt>
<pdfrwt beam="1">  1        2 0.86477349E-01 0.70054614E+03</pdfrwt>
<pdfrwt beam="2">  1       -2 0.28954432E-01 0.70054614E+03</pdfrwt>
<totfact> 0.59042064E+02</totfact>
</mgrwt>
</event>
<event>
 4    1  0.5387486E-005  0.6212282E+03  0.7818608E-02  0.9862317E-01
         -2   -1    0    0    0  501 -0.00000000000E+00  0.00000000000E+00  0.25555690863E+03  0.25555690864E+03  0.25500000000E-02 0. -1.
          2   -1    0    0  501    0  0.00000000000E+00 -0.00000000000E+00 -0.37753275948E+03  0.37753275949E+03  0.25500000000E-02 0.  1.
    5000001    1    1    2    0    0  0.18393741849E+03  0.77190015559E+02  0.11394279487E+03  0.28284135646E+03  0.16500000000E+03 0.  0.
   -5000001    1    1    2    0    0 -0.18393741849E+03 -0.77190015559E+02 -0.23591864572E+03  0.35024831166E+03  0.16500000000E+03 0.  0.
<mgrwt>
<rscale>  0 0.62122815E+03</rscale>
<asrwt>0</asrwt>
<pdfrwt beam="1">  1        2 0.53933251E-01 0.62122815E+03</pdfrwt>
<pdfrwt beam="2">  1       -2 0.36508130E-01 0.62122815E+03</pdfrwt>
<totfact> 0.65541618E+02</totfact>
</mgrwt>
</event>
<event>
 4    1  0.5387486E-005  0.6689738E+03  0.7818608E-02  0.9771813E-01
         -2   -1    0    0    0  501 -0.00000000000E+00  0.00000000000E+00  0.13293198839E+03  0.13293198842E+03  0.25500000000E-02 0. -1.
          2   -1    0    0  501    0  0.00000000000E+00 -0.00000000000E+00 -0.84164465540E+03  0.84164465540E+03  0.25500000000E-02 0.  1.
    5000001    1    1    2    0    0 -0.27566651274E+03  0.86643548286E+02 -0.30479506752E+03  0.45124734225E+03  0.16500000000E+03 0.  0.
   -5000001    1    1    2    0    0  0.27566651274E+03 -0.86643548286E+02 -0.40391759948E+03  0.52332930157E+03  0.16500000000E+03 0.  0.
<mgrwt>
<rscale>  0 0.66897383E+03</rscale>
<asrwt>0</asrwt>
<pdfrwt beam="1">  1        2 0.12023495E+00 0.66897383E+03</pdfrwt>
<pdfrwt beam="2">  1       -2 0.18990285E-01 0.66897383E+03</pdfrwt>
<totfact> 0.83390613E+02</totfact>
</mgrwt>
</event>
<event>
 4    1  0.5387486E-005  0.3791043E+03  0.7818608E-02  0.1051265E+00
          2   -1    0    0  501    0  0.00000000000E+00  0.00000000000E+00  0.16867066397E+04  0.16867066397E+04  0.25500000000E-02 0.  1.
         -2   -1    0    0    0  501 -0.00000000000E+00 -0.00000000000E+00 -0.21301876386E+02  0.21301876538E+02  0.25500000000E-02 0. -1.
    5000001    1    1    2    0    0  0.18472830675E+02 -0.87200604708E+02  0.95689285160E+03  0.97509697999E+03  0.16500000000E+03 0.  0.
   -5000001    1    1    2    0    0 -0.18472830675E+02  0.87200604708E+02  0.70851191173E+03  0.73291153627E+03  0.16500000000E+03 0.  0.
<mgrwt>
<rscale>  0 0.37910429E+03</rscale>
<asrwt>0</asrwt>
<pdfrwt beam="1">  1        2 0.24095808E+00 0.37910429E+03</pdfrwt>
<pdfrwt beam="2">  1       -2 0.30431253E-02 0.37910429E+03</pdfrwt>
<totfact> 0.52286998E+03</totfact>
</mgrwt>
</event>
<event>
 4    1  0.5387486E-005  0.7426602E+03  0.7818608E-02  0.9646936E-01
         -2   -1    0    0    0  501 -0.00000000000E+00  0.00000000000E+00  0.17294483395E+03  0.17294483397E+03  0.25500000000E-02 0. -1.
          2   -1    0    0  501    0  0.00000000000E+00 -0.00000000000E+00 -0.79728336517E+03  0.79728336518E+03  0.25500000000E-02 0.  1.
    5000001    1    1    2    0    0  0.15614564545E+03 -0.14676251144E+03  0.20238562833E+02  0.27121079769E+03  0.16500000000E+03 0.  0.
   -5000001    1    1    2    0    0 -0.15614564545E+03  0.14676251144E+03 -0.64457709406E+03  0.69901740146E+03  0.16500000000E+03 0.  0.
<mgrwt>
<rscale>  0 0.74266019E+03</rscale>
<asrwt>0</asrwt>
<pdfrwt beam="1">  1        2 0.11389762E+00 0.74266019E+03</pdfrwt>
<pdfrwt beam="2">  1       -2 0.24706405E-01 0.74266019E+03</pdfrwt>
<totfact> 0.56087806E+02</totfact>
</mgrwt>
</event>
<event>
 4    1  0.5387486E-005  0.4203883E+03  0.7818608E-02  0.1036940E+00
          2   -1    0    0  501    0  0.00000000000E+00  0.00000000000E+00  0.51859470397E+03  0.51859470397E+03  0.25500000000E-02 0.  1.
         -2   -1    0    0    0  501 -0.00000000000E+00 -0.00000000000E+00 -0.85194811210E+02  0.85194811248E+02  0.25500000000E-02 0. -1.
    5000001    1    1    2    0    0  0.92093823470E+02 -0.54471732666E+02  0.32329505712E+03  0.37840868904E+03  0.16500000000E+03 0.  0.
   -5000001    1    1    2    0    0 -0.92093823470E+02  0.54471732666E+02  0.11010483564E+03  0.22538082619E+03  0.16500000000E+03 0.  0.
<mgrwt>
<rscale>  0 0.42038829E+03</rscale>
<asrwt>0</asrwt>
<pdfrwt beam="1">  1        2 0.74084959E-01 0.42038829E+03</pdfrwt>
<pdfrwt beam="2">  1       -2 0.12170687E-01 0.42038829E+03</pdfrwt>
<totfact> 0.31611684E+03</totfact>
</mgrwt>
</event>
<event>
 4    1  0.5387486E-005  0.5315641E+03  0.7818608E-02  0.1005854E+00
         -2   -1    0    0    0  501 -0.00000000000E+00  0.00000000000E+00  0.82259036504E+02  0.82259036543E+02  0.25500000000E-02 0. -1.
          2   -1    0    0  501    0  0.00000000000E+00 -0.00000000000E+00 -0.85875184297E+03  0.85875184298E+03  0.25500000000E-02 0.  1.
    5000001    1    1    2    0    0 -0.90459028258E+02  0.15533728190E+03 -0.20171532772E+03  0.31658581835E+03  0.16500000000E+03 0.  0.
   -5000001    1    1    2    0    0  0.90459028258E+02 -0.15533728190E+03 -0.57477747875E+03  0.62442506117E+03  0.16500000000E+03 0.  0.
<mgrwt>
<rscale>  0 0.53156410E+03</rscale>
<asrwt>0</asrwt>
<pdfrwt beam="1">  1        2 0.12267883E+00 0.53156410E+03</pdfrwt>
<pdfrwt beam="2">  1       -2 0.11751291E-01 0.53156410E+03</pdfrwt>
<totfact> 0.18265315E+03</totfact>
</mgrwt>
</event>
<event>
 4    1  0.5387486E-005  0.7741834E+03  0.7818608E-02  0.9598156E-01
          2   -1    0    0  501    0  0.00000000000E+00  0.00000000000E+00  0.33950402903E+04  0.33950402903E+04  0.25500000000E-02 0.  1.
         -2   -1    0    0    0  501 -0.00000000000E+00 -0.00000000000E+00 -0.44134963081E+02  0.44134963155E+02  0.25500000000E-02 0. -1.
    5000001    1    1    2    0    0  0.27032073723E+03  0.14926468108E+03  0.24089308175E+04  0.24342403188E+04  0.16500000000E+03 0.  0.
   -5000001    1    1    2    0    0 -0.27032073723E+03 -0.14926468108E+03  0.94197450964E+03  0.10049349346E+04  0.16500000000E+03 0.  0.
<mgrwt>
<rscale>  0 0.77418338E+03</rscale>
<asrwt>0</asrwt>
<pdfrwt beam="1">  1        2 0.48500569E+00 0.77418338E+03</pdfrwt>
<pdfrwt beam="2">  1       -2 0.63049956E-02 0.77418338E+03</pdfrwt>
<totfact> 0.21164840E+02</totfact>
</mgrwt>
</event>
<event>
 4    1  0.5387486E-005  0.4938240E+03  0.7818608E-02  0.1015404E+00
          2   -1    0    0  501    0  0.00000000000E+00  0.00000000000E+00  0.16473418033E+04  0.16473418033E+04  0.25500000000E-02 0.  1.
         -2   -1    0    0    0  501 -0.00000000000E+00 -0.00000000000E+00 -0.37008428903E+02  0.37008428991E+02  0.25500000000E-02 0. -1.
    5000001    1    1    2    0    0  0.92525044869E+02  0.15382979539E+03  0.67236124661E+03  0.71520565980E+03  0.16500000000E+03 0.  0.
   -5000001    1    1    2    0    0 -0.92525044869E+02 -0.15382979539E+03  0.93797212782E+03  0.96914457252E+03  0.16500000000E+03 0.  0.
<mgrwt>
<rscale>  0 0.49382399E+03</rscale>
<asrwt>0</asrwt>
<pdfrwt beam="1">  1        2 0.23533456E+00 0.49382399E+03</pdfrwt>
<pdfrwt beam="2">  1       -2 0.52869181E-02 0.49382399E+03</pdfrwt>
<totfact> 0.23548478E+03</totfact>
</mgrwt>
</event>
<event>
 4    1  0.5387486E-005  0.4619778E+03  0.7818608E-02  0.1024209E+00
         -2   -1    0    0    0  501 -0.00000000000E+00  0.00000000000E+00  0.23862246184E+02  0.23862246320E+02  0.25500000000E-02 0. -1.
          2   -1    0    0  501    0  0.00000000000E+00 -0.00000000000E+00 -0.22359955668E+04  0.22359955668E+04  0.25500000000E-02 0.  1.
    5000001    1    1    2    0    0  0.33768110807E+02  0.11639322730E+03 -0.58278695959E+03  0.61770001533E+03  0.16500000000E+03 0.  0.
   -5000001    1    1    2    0    0 -0.33768110807E+02 -0.11639322730E+03 -0.16293463611E+04  0.16421577978E+04  0.16500000000E+03 0.  0.
<mgrwt>
<rscale>  0 0.46197782E+03</rscale>
<asrwt>0</asrwt>
<pdfrwt beam="1">  1        2 0.31942781E+00 0.46197782E+03</pdfrwt>
<pdfrwt beam="2">  1       -2 0.34088937E-02 0.46197782E+03</pdfrwt>
<totfact> 0.23445713E+03</totfact>
</mgrwt>
</event>
<event>
 4    1  0.5387486E-005  0.4560526E+03  0.7818608E-02  0.1025932E+00
          2   -1    0    0  501    0  0.00000000000E+00  0.00000000000E+00  0.18857508699E+04  0.18857508699E+04  0.25500000000E-02 0.  1.
         -2   -1    0    0    0  501 -0.00000000000E+00 -0.00000000000E+00 -0.27573097075E+02  0.27573097193E+02  0.25500000000E-02 0. -1.
    5000001    1    1    2    0    0  0.12041116018E+03 -0.94403076295E+02  0.10838192485E+04  0.11069326772E+04  0.16500000000E+03 0.  0.
   -5000001    1    1    2    0    0 -0.12041116018E+03  0.94403076295E+02  0.77435852425E+03  0.80639128988E+03  0.16500000000E+03 0.  0.
<mgrwt>
<rscale>  0 0.45605259E+03</rscale>
<asrwt>0</asrwt>
<pdfrwt beam="1">  1        2 0.26939305E+00 0.45605259E+03</pdfrwt>
<pdfrwt beam="2">  1       -2 0.39390129E-02 0.45605259E+03</pdfrwt>
<totfact> 0.28124067E+03</totfact>
</mgrwt>
</event>
<event>
 4    1  0.5387486E-005  0.4539094E+03  0.7818608E-02  0.1026563E+00
         -2   -1    0    0    0  501 -0.00000000000E+00  0.00000000000E+00  0.31478937809E+02  0.31478937912E+02  0.25500000000E-02 0. -1.
          2   -1    0    0  501    0  0.00000000000E+00 -0.00000000000E+00 -0.16362826552E+04  0.16362826552E+04  0.25500000000E-02 0.  1.
    5000001    1    1    2    0    0 -0.13937663813E+03 -0.45639906441E+02 -0.60886471991E+03  0.64764967032E+03  0.16500000000E+03 0.  0.
   -5000001    1    1    2    0    0  0.13937663813E+03  0.45639906441E+02 -0.99593899744E+03  0.10201119227E+04  0.16500000000E+03 0.  0.
<mgrwt>
<rscale>  0 0.45390942E+03</rscale>
<asrwt>0</asrwt>
<pdfrwt beam="1">  1        2 0.23375461E+00 0.45390942E+03</pdfrwt>
<pdfrwt beam="2">  1       -2 0.44969922E-02 0.45390942E+03</pdfrwt>
<totfact> 0.30635170E+03</totfact>
</mgrwt>
</event>
<event>
 4    1  0.5387486E-005  0.4066370E+03  0.7818608E-02  0.1041505E+00
          2   -1    0    0  501    0  0.00000000000E+00  0.00000000000E+00  0.84846340763E+02  0.84846340801E+02  0.25500000000E-02 0.  1.
         -2   -1    0    0    0  501 -0.00000000000E+00 -0.00000000000E+00 -0.48721498935E+03  0.48721498936E+03  0.25500000000E-02 0. -1.
    5000001    1    1    2    0    0 -0.81927974490E+02  0.57968173385E+02 -0.11175599055E+03  0.22312979082E+03  0.16500000000E+03 0.  0.
   -5000001    1    1    2    0    0  0.81927974490E+02 -0.57968173385E+02 -0.29061265804E+03  0.34893153934E+03  0.16500000000E+03 0.  0.
<mgrwt>
<rscale>  0 0.40663698E+03</rscale>
<asrwt>0</asrwt>
<pdfrwt beam="1">  1        2 0.12120906E-01 0.40663698E+03</pdfrwt>
<pdfrwt beam="2">  1       -2 0.69602140E-01 0.40663698E+03</pdfrwt>
<totfact> 0.98220550E+02</totfact>
</mgrwt>
</event>
<event>
 4    1  0.5387486E-005  0.4660173E+03  0.7818608E-02  0.1023050E+00
          2   -1    0    0  501    0  0.00000000000E+00  0.00000000000E+00  0.13880130354E+03  0.13880130356E+03  0.25500000000E-02 0.  1.
         -2   -1    0    0    0  501 -0.00000000000E+00 -0.00000000000E+00 -0.39115644485E+03  0.39115644485E+03  0.25500000000E-02 0. -1.
    5000001    1    1    2    0    0  0.13718341520E+03  0.82969541496E+02 -0.84165684151E+02  0.24497366514E+03  0.16500000000E+03 0.  0.
   -5000001    1    1    2    0    0 -0.13718341520E+03 -0.82969541496E+02 -0.16818945716E+03  0.28498408328E+03  0.16500000000E+03 0.  0.
<mgrwt>
<rscale>  0 0.46601727E+03</rscale>
<asrwt>0</asrwt>
<pdfrwt beam="1">  1        2 0.19828758E-01 0.46601727E+03</pdfrwt>
<pdfrwt beam="2">  1       -2 0.55879492E-01 0.46601727E+03</pdfrwt>
<totfact> 0.86619516E+02</totfact>
</mgrwt>
</event>
<event>
 4    1  0.5387486E-005  0.5401998E+03  0.7818608E-02  0.1003788E+00
          2   -1    0    0  501    0  0.00000000000E+00  0.00000000000E+00  0.56452550229E+02  0.56452550287E+02  0.25500000000E-02 0.  1.
         -2   -1    0    0    0  501 -0.00000000000E+00 -0.00000000000E+00 -0.12923055788E+04  0.12923055788E+04  0.25500000000E-02 0. -1.
    5000001    1    1    2    0    0  0.11807824344E+03 -0.12938452082E+03 -0.31166533870E+03  0.39375513857E+03  0.16500000000E+03 0.  0.
   -5000001    1    1    2    0    0 -0.11807824344E+03  0.12938452082E+03 -0.92418768987E+03  0.95500299052E+03  0.16500000000E+03 0.  0.
<mgrwt>
<rscale>  0 0.54019976E+03</rscale>
<asrwt>0</asrwt>
<pdfrwt beam="1">  1        2 0.80646508E-02 0.54019976E+03</pdfrwt>
<pdfrwt beam="2">  1       -2 0.18461507E+00 0.54019976E+03</pdfrwt>
<totfact> 0.15131030E+02</totfact>
</mgrwt>
</event>
<event>
 4    1  0.5387486E-005  0.1021431E+04  0.7818608E-02  0.9285347E-01
          2   -1    0    0  501    0  0.00000000000E+00  0.00000000000E+00  0.39551043863E+04  0.39551043863E+04  0.25500000000E-02 0.  1.
         -2   -1    0    0    0  501 -0.00000000000E+00 -0.00000000000E+00 -0.65947727217E+02  0.65947727267E+02  0.25500000000E-02 0. -1.
    5000001    1    1    2    0    0 -0.55392566855E+02 -0.42764638464E+03  0.10851952945E+04  0.11793318421E+04  0.16500000000E+03 0.  0.
   -5000001    1    1    2    0    0  0.55392566855E+02  0.42764638464E+03  0.28039613646E+04  0.28417202714E+04  0.16500000000E+03 0.  0.
<mgrwt>
<rscale>  0 0.10214307E+04</rscale>
<asrwt>0</asrwt>
<pdfrwt beam="1">  1        2 0.56501501E+00 0.10214307E+04</pdfrwt>
<pdfrwt beam="2">  1       -2 0.94211022E-02 0.10214307E+04</pdfrwt>
<totfact> 0.48331402E+01</totfact>
</mgrwt>
</event>
<event>
 4    1  0.5387486E-005  0.5946883E+03  0.7818608E-02  0.9916488E-01
          2   -1    0    0  501    0  0.00000000000E+00  0.00000000000E+00  0.15104702177E+04  0.15104702177E+04  0.25500000000E-02 0.  1.
         -2   -1    0    0    0  501 -0.00000000000E+00 -0.00000000000E+00 -0.58533796939E+02  0.58533796994E+02  0.25500000000E-02 0. -1.
    5000001    1    1    2    0    0 -0.17851607612E+03 -0.16052309446E+02  0.27618417779E+03  0.36827756670E+03  0.16500000000E+03 0.  0.
   -5000001    1    1    2    0    0  0.17851607612E+03  0.16052309446E+02  0.11757522430E+04  0.12007264480E+04  0.16500000000E+03 0.  0.
<mgrwt>
<rscale>  0 0.59468835E+03</rscale>
<asrwt>0</asrwt>
<pdfrwt beam="1">  1        2 0.21578149E+00 0.59468835E+03</pdfrwt>
<pdfrwt beam="2">  1       -2 0.83619699E-02 0.59468835E+03</pdfrwt>
<totfact> 0.13422779E+03</totfact>
</mgrwt>
</event>
<event>
 4    1  0.5387486E-005  0.7751462E+03  0.7818608E-02  0.9596705E-01
         -2   -1    0    0    0  501 -0.00000000000E+00  0.00000000000E+00  0.46012284354E+03  0.46012284355E+03  0.25500000000E-02 0. -1.
          2   -1    0    0  501    0  0.00000000000E+00 -0.00000000000E+00 -0.32646260711E+03  0.32646260712E+03  0.25500000000E-02 0.  1.
    5000001    1    1    2    0    0 -0.28610263158E+03  0.49466987315E+02 -0.13276060646E+03  0.35937734662E+03  0.16500000000E+03 0.  0.
   -5000001    1    1    2    0    0  0.28610263158E+03 -0.49466987315E+02  0.26642084290E+03  0.42720810405E+03  0.16500000000E+03 0.  0.
<mgrwt>
<rscale>  0 0.77514619E+03</rscale>
<asrwt>0</asrwt>
<pdfrwt beam="1">  1        2 0.46637515E-01 0.77514619E+03</pdfrwt>
<pdfrwt beam="2">  1       -2 0.65731835E-01 0.77514619E+03</pdfrwt>
<totfact> 0.23311767E+02</totfact>
</mgrwt>
</event>
<event>
 4    1  0.5387486E-005  0.6261607E+03  0.7818608E-02  0.9852570E-01
          2   -1    0    0  501    0  0.00000000000E+00  0.00000000000E+00  0.76317833598E+02  0.76317833641E+02  0.25500000000E-02 0.  1.
         -2   -1    0    0    0  501 -0.00000000000E+00 -0.00000000000E+00 -0.12843565296E+04  0.12843565296E+04  0.25500000000E-02 0. -1.
    5000001    1    1    2    0    0 -0.11334900537E+03 -0.73241004899E+02 -0.11023151337E+04  0.11227358976E+04  0.16500000000E+03 0.  0.
   -5000001    1    1    2    0    0  0.11334900537E+03  0.73241004899E+02 -0.10572356238E+03  0.23793846570E+03  0.16500000000E+03 0.  0.
<mgrwt>
<rscale>  0 0.62616071E+03</rscale>
<asrwt>0</asrwt>
<pdfrwt beam="1">  1        2 0.10902548E-01 0.62616071E+03</pdfrwt>
<pdfrwt beam="2">  1       -2 0.18347949E+00 0.62616071E+03</pdfrwt>
<totfact> 0.10436113E+02</totfact>
</mgrwt>
</event>
<event>
 4    1  0.5387486E-005  0.4213707E+03  0.7818608E-02  0.1036621E+00
         -2   -1    0    0    0  501 -0.00000000000E+00  0.00000000000E+00  0.10044687210E+03  0.10044687213E+03  0.25500000000E-02 0. -1.
          2   -1    0    0  501    0  0.00000000000E+00 -0.00000000000E+00 -0.44190846052E+03  0.44190846052E+03  0.25500000000E-02 0.  1.
    5000001    1    1    2    0    0 -0.32801536207E+02  0.12679843895E+03 -0.16675574994E+03  0.26867501751E+03  0.16500000000E+03 0.  0.
   -5000001    1    1    2    0    0  0.32801536207E+02 -0.12679843895E+03 -0.17470583848E+03  0.27368031514E+03  0.16500000000E+03 0.  0.
<mgrwt>
<rscale>  0 0.42137073E+03</rscale>
<asrwt>0</asrwt>
<pdfrwt beam="1">  1        2 0.63129779E-01 0.42137073E+03</pdfrwt>
<pdfrwt beam="2">  1       -2 0.14349553E-01 0.42137073E+03</pdfrwt>
<totfact> 0.28819033E+03</totfact>
</mgrwt>
</event>
<event>
 4    1  0.5387486E-005  0.5202392E+03  0.7818608E-02  0.1008627E+00
         -2   -1    0    0    0  501 -0.00000000000E+00  0.00000000000E+00  0.17254126282E+04  0.17254126282E+04  0.25500000000E-02 0.  1.
          2   -1    0    0  501    0  0.00000000000E+00 -0.00000000000E+00 -0.39215094367E+02  0.39215094450E+02  0.25500000000E-02 0. -1.
    5000001    1    1    2    0    0 -0.13900354016E+03 -0.10029313066E+03  0.11997627604E+04  0.12231256589E+04  0.16500000000E+03 0.  0.
   -5000001    1    1    2    0    0  0.13900354016E+03  0.10029313066E+03  0.48643477343E+03  0.54150206374E+03  0.16500000000E+03 0.  0.
<mgrwt>
<rscale>  0 0.52023925E+03</rscale>
<asrwt>0</asrwt>
<pdfrwt beam="1">  1        2 0.56021561E-02 0.52023925E+03</pdfrwt>
<pdfrwt beam="2">  1       -2 0.24648753E+00 0.52023925E+03</pdfrwt>
<totfact> 0.99974248E+01</totfact>
</mgrwt>
</event>
<event>
 4    1  0.5387486E-005  0.1157665E+04  0.7818608E-02  0.9150741E-01
         -2   -1    0    0    0  501 -0.00000000000E+00  0.00000000000E+00  0.29972094226E+03  0.29972094227E+03  0.25500000000E-02 0. -1.
          2   -1    0    0  501    0  0.00000000000E+00 -0.00000000000E+00 -0.11178630329E+04  0.11178630329E+04  0.25500000000E-02 0.  1.
    5000001    1    1    2    0    0  0.35290512243E+03  0.35666760000E+03 -0.11912038201E+03  0.54145033727E+03  0.16500000000E+03 0.  0.
   -5000001    1    1    2    0    0 -0.35290512243E+03 -0.35666760000E+03 -0.69902170861E+03  0.87613363789E+03  0.16500000000E+03 0.  0.
<mgrwt>
<rscale>  0 0.11576648E+04</rscale>
<asrwt>0</asrwt>
<pdfrwt beam="1">  1        2 0.15969472E+00 0.11576648E+04</pdfrwt>
<pdfrwt beam="2">  1       -2 0.42817278E-01 0.11576648E+04</pdfrwt>
<totfact> 0.12191898E+02</totfact>
</mgrwt>
</event>
<event>
 4    1  0.5387486E-005  0.4654349E+03  0.7818608E-02  0.1023217E+00
          2   -1    0    0  501    0  0.00000000000E+00  0.00000000000E+00  0.39547790610E+04  0.39547790610E+04  0.25500000000E-02 0.  1.
         -2   -1    0    0    0  501 -0.00000000000E+00 -0.00000000000E+00 -0.13694166996E+02  0.13694167234E+02  0.25500000000E-02 0. -1.
    5000001    1    1    2    0    0 -0.15750060773E+03  0.12445529939E+02  0.15919988908E+04  0.16083055683E+04  0.16500000000E+03 0.  0.
   -5000001    1    1    2    0    0  0.15750060773E+03 -0.12445529939E+02  0.23490860032E+04  0.23601676599E+04  0.16500000000E+03 0.  0.
<mgrwt>
<rscale>  0 0.46543487E+03</rscale>
<asrwt>0</asrwt>
<pdfrwt beam="1">  1        2 0.56496916E+00 0.46543487E+03</pdfrwt>
<pdfrwt beam="2">  1       -2 0.19563071E-02 0.46543487E+03</pdfrwt>
<totfact> 0.59563276E+02</totfact>
</mgrwt>
</event>
<event>
 4    1  0.5387486E-005  0.5026298E+03  0.7818608E-02  0.1013095E+00
         -2   -1    0    0    0  501 -0.00000000000E+00  0.00000000000E+00  0.19428130818E+03  0.19428130820E+03  0.25500000000E-02 0. -1.
          2   -1    0    0  501    0  0.00000000000E+00 -0.00000000000E+00 -0.32509144624E+03  0.32509144625E+03  0.25500000000E-02 0.  1.
    5000001    1    1    2    0    0 -0.42372396808E+02  0.17237676809E+03  0.33316135930E+01  0.24237423510E+03  0.16500000000E+03 0.  0.
   -5000001    1    1    2    0    0  0.42372396808E+02 -0.17237676809E+03 -0.13414175165E+03  0.27699851936E+03  0.16500000000E+03 0.  0.
<mgrwt>
<rscale>  0 0.50262985E+03</rscale>
<asrwt>0</asrwt>
<pdfrwt beam="1">  1        2 0.46441635E-01 0.50262985E+03</pdfrwt>
<pdfrwt beam="2">  1       -2 0.27754473E-01 0.50262985E+03</pdfrwt>
<totfact> 0.12892862E+03</totfact>
</mgrwt>
</event>
<event>
 4    1  0.5387486E-005  0.4442387E+03  0.7818608E-02  0.1029454E+00
          2   -1    0    0  501    0  0.00000000000E+00  0.00000000000E+00  0.19266487980E+03  0.19266487982E+03  0.25500000000E-02 0.  1.
         -2   -1    0    0    0  501 -0.00000000000E+00 -0.00000000000E+00 -0.25607678885E+03  0.25607678887E+03  0.25500000000E-02 0. -1.
    5000001    1    1    2    0    0 -0.42088515193E+02 -0.88760146397E+02  0.81059824459E+02  0.20843584586E+03  0.16500000000E+03 0.  0.
   -5000001    1    1    2    0    0  0.42088515193E+02  0.88760146397E+02 -0.14447173351E+03  0.24030582282E+03  0.16500000000E+03 0.  0.
<mgrwt>
<rscale>  0 0.44423869E+03</rscale>
<asrwt>0</asrwt>
<pdfrwt beam="1">  1        2 0.27523554E-01 0.44423869E+03</pdfrwt>
<pdfrwt beam="2">  1       -2 0.36582398E-01 0.44423869E+03</pdfrwt>
<totfact> 0.13757893E+03</totfact>
</mgrwt>
</event>
<event>
 4    1  0.5387486E-005  0.5053130E+03  0.7818608E-02  0.1012401E+00
         -2   -1    0    0    0  501 -0.00000000000E+00  0.00000000000E+00  0.44934635153E+03  0.44934635154E+03  0.25500000000E-02 0. -1.
          2   -1    0    0  501    0  0.00000000000E+00 -0.00000000000E+00 -0.14206257552E+03  0.14206257554E+03  0.25500000000E-02 0.  1.
    5000001    1    1    2    0    0  0.11872854158E+03 -0.11168506563E+03  0.27091550780E+03  0.35663739686E+03  0.16500000000E+03 0.  0.
   -5000001    1    1    2    0    0 -0.11872854158E+03  0.11168506563E+03  0.36368268213E+02  0.23477153022E+03  0.16500000000E+03 0.  0.
<mgrwt>
<rscale>  0 0.50531297E+03</rscale>
<asrwt>0</asrwt>
<pdfrwt beam="1">  1        2 0.20294653E-01 0.50531297E+03</pdfrwt>
<pdfrwt beam="2">  1       -2 0.64192338E-01 0.50531297E+03</pdfrwt>
<totfact> 0.63060770E+02</totfact>
</mgrwt>
</event>
<event>
 4    1  0.5387486E-005  0.6420483E+03  0.7818608E-02  0.9821816E-01
         -2   -1    0    0    0  501 -0.00000000000E+00  0.00000000000E+00  0.50843210114E+02  0.50843210178E+02  0.25500000000E-02 0. -1.
          2   -1    0    0  501    0  0.00000000000E+00 -0.00000000000E+00 -0.20269469713E+04  0.20269469713E+04  0.25500000000E-02 0.  1.
    5000001    1    1    2    0    0 -0.16808748085E+03 -0.15756078219E+03 -0.14761986159E+04  0.15031520731E+04  0.16500000000E+03 0.  0.
   -5000001    1    1    2    0    0  0.16808748085E+03  0.15756078219E+03 -0.49990514524E+03  0.57463810833E+03  0.16500000000E+03 0.  0.
<mgrwt>
<rscale>  0 0.64204826E+03</rscale>
<asrwt>0</asrwt>
<pdfrwt beam="1">  1        2 0.28956380E+00 0.64204826E+03</pdfrwt>
<pdfrwt beam="2">  1       -2 0.72633170E-02 0.64204826E+03</pdfrwt>
<totfact> 0.91570936E+02</totfact>
</mgrwt>
</event>
<event>
 4    1  0.5387486E-005  0.5183441E+03  0.7818608E-02  0.1009099E+00
          2   -1    0    0  501    0  0.00000000000E+00  0.00000000000E+00  0.46120552564E+03  0.46120552565E+03  0.25500000000E-02 0.  1.
         -2   -1    0    0    0  501 -0.00000000000E+00 -0.00000000000E+00 -0.14564036503E+03  0.14564036505E+03  0.25500000000E-02 0. -1.
    5000001    1    1    2    0    0  0.16789877914E+03  0.77052222972E+02  0.24708243073E+03  0.34985964711E+03  0.16500000000E+03 0.  0.
   -5000001    1    1    2    0    0 -0.16789877914E+03 -0.77052222972E+02  0.68482729886E+02  0.25698624359E+03  0.16500000000E+03 0.  0.
<mgrwt>
<rscale>  0 0.51834406E+03</rscale>
<asrwt>0</asrwt>
<pdfrwt beam="1">  1        2 0.65886502E-01 0.51834406E+03</pdfrwt>
<pdfrwt beam="2">  1       -2 0.20805767E-01 0.51834406E+03</pdfrwt>
<totfact> 0.14627368E+03</totfact>
</mgrwt>
</event>
<event>
 4    1  0.5387486E-005  0.9000317E+03  0.7818608E-02  0.9425542E-01
         -2   -1    0    0    0  501 -0.00000000000E+00  0.00000000000E+00  0.20033832052E+03  0.20033832053E+03  0.25500000000E-02 0. -1.
          2   -1    0    0  501    0  0.00000000000E+00 -0.00000000000E+00 -0.10108613644E+04  0.10108613644E+04  0.25500000000E-02 0.  1.
    5000001    1    1    2    0    0 -0.23621259456E+03 -0.29368270747E+03 -0.65062521629E+03  0.76979483927E+03  0.16500000000E+03 0.  0.
   -5000001    1    1    2    0    0  0.23621259456E+03  0.29368270747E+03 -0.15989782757E+03  0.44140484565E+03  0.16500000000E+03 0.  0.
<mgrwt>
<rscale>  0 0.90003171E+03</rscale>
<asrwt>0</asrwt>
<pdfrwt beam="1">  1        2 0.14440876E+00 0.90003171E+03</pdfrwt>
<pdfrwt beam="2">  1       -2 0.28619761E-01 0.90003171E+03</pdfrwt>
<totfact> 0.30935298E+02</totfact>
</mgrwt>
</event>
<event>
 4    1  0.5387486E-005  0.7296134E+03  0.7818608E-02  0.9667888E-01
          2   -1    0    0  501    0  0.00000000000E+00  0.00000000000E+00  0.34026204554E+03  0.34026204555E+03  0.25500000000E-02 0.  1.
         -2   -1    0    0    0  501 -0.00000000000E+00 -0.00000000000E+00 -0.39112189514E+03  0.39112189515E+03  0.25500000000E-02 0. -1.
    5000001    1    1    2    0    0 -0.27894584177E+03 -0.51516180695E+02 -0.18517231800E+03  0.37680032759E+03  0.16500000000E+03 0.  0.
   -5000001    1    1    2    0    0  0.27894584177E+03  0.51516180695E+02  0.13431246840E+03  0.35458361311E+03  0.16500000000E+03 0.  0.
<mgrwt>
<rscale>  0 0.72961342E+03</rscale>
<asrwt>0</asrwt>
<pdfrwt beam="1">  1        2 0.48608864E-01 0.72961342E+03</pdfrwt>
<pdfrwt beam="2">  1       -2 0.55874556E-01 0.72961342E+03</pdfrwt>
<totfact> 0.31437042E+02</totfact>
</mgrwt>
</event>
<event>
 4    1  0.5387486E-005  0.5044871E+03  0.7818608E-02  0.1012614E+00
         -2   -1    0    0    0  501 -0.00000000000E+00  0.00000000000E+00  0.33710561651E+02  0.33710561747E+02  0.25500000000E-02 0. -1.
          2   -1    0    0  501    0  0.00000000000E+00 -0.00000000000E+00 -0.18874445955E+04  0.18874445955E+04  0.25500000000E-02 0.  1.
    5000001    1    1    2    0    0  0.18518141835E+03  0.42861689645E+02 -0.98973416594E+03  0.10212384645E+04  0.16500000000E+03 0.  0.
   -5000001    1    1    2    0    0 -0.18518141835E+03 -0.42861689645E+02 -0.86399986789E+03  0.89991669273E+03  0.16500000000E+03 0.  0.
<mgrwt>
<rscale>  0 0.50448714E+03</rscale>
<asrwt>0</asrwt>
<pdfrwt beam="1">  1        2 0.26963488E+00 0.50448714E+03</pdfrwt>
<pdfrwt beam="2">  1       -2 0.48157957E-02 0.50448714E+03</pdfrwt>
<totfact> 0.20591263E+03</totfact>
</mgrwt>
</event>
<event>
 4    1  0.5387486E-005  0.5276704E+03  0.7818608E-02  0.1006799E+00
         -2   -1    0    0    0  501 -0.00000000000E+00  0.00000000000E+00  0.38924909942E+02  0.38924910026E+02  0.25500000000E-02 0. -1.
          2   -1    0    0  501    0  0.00000000000E+00 -0.00000000000E+00 -0.17882897756E+04  0.17882897756E+04  0.25500000000E-02 0.  1.
    5000001    1    1    2    0    0 -0.20402598334E+03 -0.26428291093E+02 -0.90127212318E+03  0.93906415994E+03  0.16500000000E+03 0.  0.
   -5000001    1    1    2    0    0  0.20402598334E+03  0.26428291093E+02 -0.84809274250E+03  0.88815052572E+03  0.16500000000E+03 0.  0.
<mgrwt>
<rscale>  0 0.52767042E+03</rscale>
<asrwt>0</asrwt>
<pdfrwt beam="1">  1        2 0.25546992E+00 0.52767042E+03</pdfrwt>
<pdfrwt beam="2">  1       -2 0.55607026E-02 0.52767042E+03</pdfrwt>
<totfact> 0.18462808E+03</totfact>
</mgrwt>
</event>
<event>
 4    1  0.5387486E-005  0.3537121E+03  0.7818608E-02  0.1061102E+00
         -2   -1    0    0    0  501 -0.00000000000E+00  0.00000000000E+00  0.12602251976E+03  0.12602251979E+03  0.25500000000E-02 0. -1.
          2   -1    0    0  501    0  0.00000000000E+00 -0.00000000000E+00 -0.24819416607E+03  0.24819416608E+03  0.25500000000E-02 0.  1.
    5000001    1    1    2    0    0  0.29466813213E+02  0.52757096488E+02 -0.39888112375E+02  0.18018786258E+03  0.16500000000E+03 0.  0.
   -5000001    1    1    2    0    0 -0.29466813213E+02 -0.52757096488E+02 -0.82283533931E+02  0.19402882329E+03  0.16500000000E+03 0.  0.
<mgrwt>
<rscale>  0 0.35371205E+03</rscale>
<asrwt>0</asrwt>
<pdfrwt beam="1">  1        2 0.35456309E-01 0.35371205E+03</pdfrwt>
<pdfrwt beam="2">  1       -2 0.18003217E-01 0.35371205E+03</pdfrwt>
<totfact> 0.36860649E+03</totfact>
</mgrwt>
</event>
<event>
 4    1  0.5387486E-005  0.4891237E+03  0.7818608E-02  0.1016657E+00
         -2   -1    0    0    0  501 -0.00000000000E+00  0.00000000000E+00  0.89740790139E+02  0.89740790175E+02  0.25500000000E-02 0. -1.
          2   -1    0    0  501    0  0.00000000000E+00 -0.00000000000E+00 -0.66648057094E+03  0.66648057094E+03  0.25500000000E-02 0.  1.
    5000001    1    1    2    0    0  0.11183755221E+03  0.69589059699E+02 -0.47920337770E+03  0.52365174736E+03  0.16500000000E+03 0.  0.
   -5000001    1    1    2    0    0 -0.11183755221E+03 -0.69589059699E+02 -0.97536403102E+02  0.23256961376E+03  0.16500000000E+03 0.  0.
<mgrwt>
<rscale>  0 0.48912368E+03</rscale>
<asrwt>0</asrwt>
<pdfrwt beam="1">  1        2 0.95211507E-01 0.48912368E+03</pdfrwt>
<pdfrwt beam="2">  1       -2 0.12820113E-01 0.48912368E+03</pdfrwt>
<totfact> 0.21720538E+03</totfact>
</mgrwt>
</event>
<event>
 4    1  0.5387486E-005  0.5326903E+03  0.7818608E-02  0.1005582E+00
         -2   -1    0    0    0  501 -0.00000000000E+00  0.00000000000E+00  0.80008578203E+02  0.80008578244E+02  0.25500000000E-02 0. -1.
          2   -1    0    0  501    0  0.00000000000E+00 -0.00000000000E+00 -0.88665169333E+03  0.88665169333E+03  0.25500000000E-02 0.  1.
    5000001    1    1    2    0    0  0.64546870808E+02 -0.49440811675E+01 -0.76409080730E+03  0.78437905650E+03  0.16500000000E+03 0.  0.
   -5000001    1    1    2    0    0 -0.64546870808E+02  0.49440811675E+01 -0.42552307825E+02  0.18228121508E+03  0.16500000000E+03 0.  0.
<mgrwt>
<rscale>  0 0.53269031E+03</rscale>
<asrwt>0</asrwt>
<pdfrwt beam="1">  1        2 0.12666452E+00 0.53269031E+03</pdfrwt>
<pdfrwt beam="2">  1       -2 0.11429797E-01 0.53269031E+03</pdfrwt>
<totfact> 0.18326561E+03</totfact>
</mgrwt>
</event>
<event>
 4    1  0.5387486E-005  0.8937652E+03  0.7818608E-02  0.9433409E-01
          2   -1    0    0  501    0  0.00000000000E+00  0.00000000000E+00  0.17811967759E+04  0.17811967759E+04  0.25500000000E-02 0.  1.
         -2   -1    0    0    0  501 -0.00000000000E+00 -0.00000000000E+00 -0.11211791797E+03  0.11211791800E+03  0.25500000000E-02 0. -1.
    5000001    1    1    2    0    0 -0.33287550528E+03  0.24389725571E+03  0.73547135171E+03  0.85932245552E+03  0.16500000000E+03 0.  0.
   -5000001    1    1    2    0    0  0.33287550528E+03 -0.24389725571E+03  0.93360750621E+03  0.10339922384E+04  0.16500000000E+03 0.  0.
<mgrwt>
<rscale>  0 0.89376524E+03</rscale>
<asrwt>0</asrwt>
<pdfrwt beam="1">  1        2 0.25445668E+00 0.89376524E+03</pdfrwt>
<pdfrwt beam="2">  1       -2 0.16016846E-01 0.89376524E+03</pdfrwt>
<totfact> 0.32820907E+02</totfact>
</mgrwt>
</event>
<event>
 4    1  0.5387486E-005  0.3952021E+03  0.7818608E-02  0.1045454E+00
         -2   -1    0    0    0  501 -0.00000000000E+00  0.00000000000E+00  0.31646263351E+02  0.31646263454E+02  0.25500000000E-02 0. -1.
          2   -1    0    0  501    0  0.00000000000E+00 -0.00000000000E+00 -0.12338320163E+04  0.12338320163E+04  0.25500000000E-02 0.  1.
    5000001    1    1    2    0    0  0.37582401610E+02 -0.75214080240E+02 -0.82181933929E+03  0.84242603308E+03  0.16500000000E+03 0.  0.
   -5000001    1    1    2    0    0 -0.37582401610E+02  0.75214080240E+02 -0.38036641363E+03  0.42305224665E+03  0.16500000000E+03 0.  0.
<mgrwt>
<rscale>  0 0.39520209E+03</rscale>
<asrwt>0</asrwt>
<pdfrwt beam="1">  1        2 0.17626169E+00 0.39520209E+03</pdfrwt>
<pdfrwt beam="2">  1       -2 0.45208956E-02 0.39520209E+03</pdfrwt>
<totfact> 0.49288675E+03</totfact>
</mgrwt>
</event>
<event>
 4    1  0.5387486E-005  0.6343791E+03  0.7818608E-02  0.9836540E-01
          2   -1    0    0  501    0  0.00000000000E+00  0.00000000000E+00  0.14471648985E+04  0.14471648985E+04  0.25500000000E-02 0.  1.
         -2   -1    0    0    0  501 -0.00000000000E+00 -0.00000000000E+00 -0.69521594638E+02  0.69521594685E+02  0.25500000000E-02 0. -1.
    5000001    1    1    2    0    0  0.11734596017E+03  0.24315994232E+03  0.63604028788E+03  0.71040064733E+03  0.16500000000E+03 0.  0.
   -5000001    1    1    2    0    0 -0.11734596017E+03 -0.24315994232E+03  0.74160301594E+03  0.80628584582E+03  0.16500000000E+03 0.  0.
<mgrwt>
<rscale>  0 0.63437910E+03</rscale>
<asrwt>0</asrwt>
<pdfrwt beam="1">  1        2 0.20673785E+00 0.63437910E+03</pdfrwt>
<pdfrwt beam="2">  1       -2 0.99316562E-02 0.63437910E+03</pdfrwt>
<totfact> 0.10966351E+03</totfact>
</mgrwt>
</event>
<event>
 4    1  0.5387486E-005  0.1034385E+04  0.7818608E-02  0.9271616E-01
          2   -1    0    0  501    0  0.00000000000E+00  0.00000000000E+00  0.19753622892E+04  0.19753622892E+04  0.25500000000E-02 0.  1.
         -2   -1    0    0    0  501 -0.00000000000E+00 -0.00000000000E+00 -0.13541216947E+03  0.13541216950E+03  0.25500000000E-02 0. -1.
    5000001    1    1    2    0    0  0.98732517159E+02 -0.37694074519E+03  0.31315345449E+03  0.52642427888E+03  0.16500000000E+03 0.  0.
   -5000001    1    1    2    0    0 -0.98732517159E+02  0.37694074519E+03  0.15267966653E+04  0.15843501798E+04  0.16500000000E+03 0.  0.
<mgrwt>
<rscale>  0 0.10343850E+04</rscale>
<asrwt>0</asrwt>
<pdfrwt beam="1">  1        2 0.28219459E+00 0.10343850E+04</pdfrwt>
<pdfrwt beam="2">  1       -2 0.19344597E-01 0.10343850E+04</pdfrwt>
<totfact> 0.18676811E+02</totfact>
</mgrwt>
</event>
<event>
 4    1  0.5387486E-005  0.5117769E+03  0.7818608E-02  0.1010750E+00
         -2   -1    0    0    0  501 -0.00000000000E+00  0.00000000000E+00  0.53908566837E+02  0.53908566897E+02  0.25500000000E-02 0. -1.
          2   -1    0    0  501    0  0.00000000000E+00 -0.00000000000E+00 -0.12146288997E+04  0.12146288997E+04  0.25500000000E-02 0.  1.
    5000001    1    1    2    0    0  0.11700760514E+03  0.12587727989E+03 -0.34892364972E+03  0.42250276045E+03  0.16500000000E+03 0.  0.
   -5000001    1    1    2    0    0 -0.11700760514E+03 -0.12587727989E+03 -0.81179668316E+03  0.84603470617E+03  0.16500000000E+03 0.  0.
<mgrwt>
<rscale>  0 0.51177692E+03</rscale>
<asrwt>0</asrwt>
<pdfrwt beam="1">  1        2 0.17351840E+00 0.51177692E+03</pdfrwt>
<pdfrwt beam="2">  1       -2 0.77012246E-02 0.51177692E+03</pdfrwt>
<totfact> 0.22074374E+03</totfact>
</mgrwt>
</event>
<event>
 4    1  0.5387486E-005  0.5708047E+03  0.7818608E-02  0.9967899E-01
          2   -1    0    0  501    0  0.00000000000E+00  0.00000000000E+00  0.94596234570E+03  0.94596234570E+03  0.25500000000E-02 0.  1.
         -2   -1    0    0    0  501 -0.00000000000E+00 -0.00000000000E+00 -0.86107558414E+02  0.86107558451E+02  0.25500000000E-02 0. -1.
    5000001    1    1    2    0    0  0.20761693189E+03  0.48200531224E+02  0.26029918126E+03  0.37471154957E+03  0.16500000000E+03 0.  0.
   -5000001    1    1    2    0    0 -0.20761693189E+03 -0.48200531224E+02  0.59955560603E+03  0.65735835458E+03  0.16500000000E+03 0.  0.
<mgrwt>
<rscale>  0 0.57080472E+03</rscale>
<asrwt>0</asrwt>
<pdfrwt beam="1">  1        2 0.13513747E+00 0.57080472E+03</pdfrwt>
<pdfrwt beam="2">  1       -2 0.12301081E-01 0.57080472E+03</pdfrwt>
<totfact> 0.14885074E+03</totfact>
</mgrwt>
</event>
<event>
 4    1  0.5387486E-005  0.6653949E+03  0.7818608E-02  0.9778313E-01
          2   -1    0    0  501    0  0.00000000000E+00  0.00000000000E+00  0.19178634001E+04  0.19178634001E+04  0.25500000000E-02 0.  1.
         -2   -1    0    0    0  501 -0.00000000000E+00 -0.00000000000E+00 -0.57714011571E+02  0.57714011628E+02  0.25500000000E-02 0. -1.
    5000001    1    1    2    0    0  0.23042128385E+03  0.16364671784E+03  0.75222076974E+03  0.82032633918E+03  0.16500000000E+03 0.  0.
   -5000001    1    1    2    0    0 -0.23042128385E+03 -0.16364671784E+03  0.11079286187E+04  0.11552510725E+04  0.16500000000E+03 0.  0.
<mgrwt>
<rscale>  0 0.66539489E+03</rscale>
<asrwt>0</asrwt>
<pdfrwt beam="1">  1        2 0.27398047E+00 0.66539489E+03</pdfrwt>
<pdfrwt beam="2">  1       -2 0.82448594E-02 0.66539489E+03</pdfrwt>
<totfact> 0.84805234E+02</totfact>
</mgrwt>
</event>
<event>
 4    1  0.5387486E-005  0.3681193E+03  0.7818608E-02  0.1055414E+00
         -2   -1    0    0    0  501 -0.00000000000E+00  0.00000000000E+00  0.16388571212E+02  0.16388571410E+02  0.25500000000E-02 0. -1.
          2   -1    0    0  501    0  0.00000000000E+00 -0.00000000000E+00 -0.20671700233E+04  0.20671700233E+04  0.25500000000E-02 0.  1.
    5000001    1    1    2    0    0 -0.67850146704E+02 -0.41190208293E+02 -0.11316855747E+04  0.11464019869E+04  0.16500000000E+03 0.  0.
   -5000001    1    1    2    0    0  0.67850146704E+02  0.41190208293E+02 -0.91909587742E+03  0.93715660781E+03  0.16500000000E+03 0.  0.
<mgrwt>
<rscale>  0 0.36811935E+03</rscale>
<asrwt>0</asrwt>
<pdfrwt beam="1">  1        2 0.29530984E+00 0.36811935E+03</pdfrwt>
<pdfrwt beam="2">  1       -2 0.23412258E-02 0.36811935E+03</pdfrwt>
<totfact> 0.50165057E+03</totfact>
</mgrwt>
</event>
<event>
 4    1  0.5387486E-005  0.9401396E+03  0.7818608E-02  0.9376751E-01
          2   -1    0    0  501    0  0.00000000000E+00  0.00000000000E+00  0.15208953567E+04  0.15208953567E+04  0.25500000000E-02 0.  1.
         -2   -1    0    0    0  501 -0.00000000000E+00 -0.00000000000E+00 -0.14528653927E+03  0.14528653929E+03  0.25500000000E-02 0. -1.
    5000001    1    1    2    0    0  0.14887154864E+03  0.37545427784E+03  0.99788579735E+03  0.10890958256E+04  0.16500000000E+03 0.  0.
   -5000001    1    1    2    0    0 -0.14887154864E+03 -0.37545427784E+03  0.37772302003E+03  0.57708607036E+03  0.16500000000E+03 0.  0.
<mgrwt>
<rscale>  0 0.94013961E+03</rscale>
<asrwt>0</asrwt>
<pdfrwt beam="1">  1        2 0.21727077E+00 0.94013961E+03</pdfrwt>
<pdfrwt beam="2">  1       -2 0.20755220E-01 0.94013961E+03</pdfrwt>
<totfact> 0.28496550E+02</totfact>
</mgrwt>
</event>
<event>
 4    1  0.5387486E-005  0.5585260E+03  0.7818608E-02  0.9995395E-01
         -2   -1    0    0    0  501 -0.00000000000E+00  0.00000000000E+00  0.72356673983E+02  0.72356674028E+02  0.25500000000E-02 0. -1.
          2   -1    0    0  501    0  0.00000000000E+00 -0.00000000000E+00 -0.10778248823E+04  0.10778248824E+04  0.25500000000E-02 0.  1.
    5000001    1    1    2    0    0 -0.13755732576E+03 -0.12822108836E+03 -0.24717839048E+03  0.35168852994E+03  0.16500000000E+03 0.  0.
   -5000001    1    1    2    0    0  0.13755732576E+03  0.12822108836E+03 -0.75828981789E+03  0.79849302644E+03  0.16500000000E+03 0.  0.
<mgrwt>
<rscale>  0 0.55852600E+03</rscale>
<asrwt>0</asrwt>
<pdfrwt beam="1">  1        2 0.15397497E+00 0.55852600E+03</pdfrwt>
<pdfrwt beam="2">  1       -2 0.10336668E-01 0.55852600E+03</pdfrwt>
<totfact> 0.16466885E+03</totfact>
</mgrwt>
</event>
<event>
 4    1  0.5387486E-005  0.4833371E+03  0.7818608E-02  0.1018222E+00
          2   -1    0    0  501    0  0.00000000000E+00  0.00000000000E+00  0.31019990084E+04  0.31019990084E+04  0.25500000000E-02 0.  1.
         -2   -1    0    0    0  501 -0.00000000000E+00 -0.00000000000E+00 -0.18827759179E+02  0.18827759352E+02  0.25500000000E-02 0. -1.
    5000001    1    1    2    0    0  0.12191762025E+03  0.12675357362E+03  0.16433326898E+04  0.16609327813E+04  0.16500000000E+03 0.  0.
   -5000001    1    1    2    0    0 -0.12191762025E+03 -0.12675357362E+03  0.14398385594E+04  0.14598939864E+04  0.16500000000E+03 0.  0.
<mgrwt>
<rscale>  0 0.48333711E+03</rscale>
<asrwt>0</asrwt>
<pdfrwt beam="1">  1        2 0.44314252E+00 0.48333711E+03</pdfrwt>
<pdfrwt beam="2">  1       -2 0.26896811E-02 0.48333711E+03</pdfrwt>
<totfact> 0.11881614E+03</totfact>
</mgrwt>
</event>
<event>
 4    1  0.5387486E-005  0.4540266E+03  0.7818608E-02  0.1026528E+00
         -2   -1    0    0    0  501 -0.00000000000E+00  0.00000000000E+00  0.81852306441E+02  0.81852306480E+02  0.25500000000E-02 0. -1.
          2   -1    0    0  501    0  0.00000000000E+00 -0.00000000000E+00 -0.62961021891E+03  0.62961021891E+03  0.25500000000E-02 0.  1.
    5000001    1    1    2    0    0  0.15440688422E+03  0.21645648789E+02 -0.27361401082E+03  0.35552728013E+03  0.16500000000E+03 0.  0.
   -5000001    1    1    2    0    0 -0.15440688422E+03 -0.21645648789E+02 -0.27414390165E+03  0.35593524526E+03  0.16500000000E+03 0.  0.
<mgrwt>
<rscale>  0 0.45402664E+03</rscale>
<asrwt>0</asrwt>
<pdfrwt beam="1">  1        2 0.89944314E-01 0.45402664E+03</pdfrwt>
<pdfrwt beam="2">  1       -2 0.11693187E-01 0.45402664E+03</pdfrwt>
<totfact> 0.27010523E+03</totfact>
</mgrwt>
</event>
<event>
 4    1  0.5387486E-005  0.5408866E+03  0.7818608E-02  0.1003626E+00
         -2   -1    0    0    0  501 -0.00000000000E+00  0.00000000000E+00  0.10431182066E+03  0.10431182069E+03  0.25500000000E-02 0. -1.
          2   -1    0    0  501    0  0.00000000000E+00 -0.00000000000E+00 -0.70116282701E+03  0.70116282701E+03  0.25500000000E-02 0.  1.
    5000001    1    1    2    0    0  0.21335433760E+02 -0.16112654160E+03 -0.90486316029E+02  0.24865585964E+03  0.16500000000E+03 0.  0.
   -5000001    1    1    2    0    0 -0.21335433760E+02  0.16112654160E+03 -0.50636469032E+03  0.55681878807E+03  0.16500000000E+03 0.  0.
<mgrwt>
<rscale>  0 0.54088657E+03</rscale>
<asrwt>0</asrwt>
<pdfrwt beam="1">  1        2 0.10016612E+00 0.54088657E+03</pdfrwt>
<pdfrwt beam="2">  1       -2 0.14901689E-01 0.54088657E+03</pdfrwt>
<totfact> 0.15906043E+03</totfact>
</mgrwt>
</event>
<event>
 4    1  0.5387486E-005  0.6877967E+03  0.7818608E-02  0.9738332E-01
         -2   -1    0    0    0  501 -0.00000000000E+00  0.00000000000E+00  0.59707529123E+02  0.59707529177E+02  0.25500000000E-02 0. -1.
          2   -1    0    0  501    0  0.00000000000E+00 -0.00000000000E+00 -0.19807566029E+04  0.19807566029E+04  0.25500000000E-02 0.  1.
    5000001    1    1    2    0    0  0.20861792920E+03  0.45578262541E+02 -0.32811436779E+03  0.42483273973E+03  0.16500000000E+03 0.  0.
   -5000001    1    1    2    0    0 -0.20861792920E+03 -0.45578262541E+02 -0.15929347060E+04  0.16156313924E+04  0.16500000000E+03 0.  0.
<mgrwt>
<rscale>  0 0.68779672E+03</rscale>
<asrwt>0</asrwt>
<pdfrwt beam="1">  1        2 0.28296519E+00 0.68779672E+03</pdfrwt>
<pdfrwt beam="2">  1       -2 0.85296483E-02 0.68779672E+03</pdfrwt>
<totfact> 0.74556826E+02</totfact>
</mgrwt>
</event>
<event>
 4    1  0.5387486E-005  0.7241963E+03  0.7818608E-02  0.9676725E-01
         -2   -1    0    0    0  501 -0.00000000000E+00  0.00000000000E+00  0.13318886193E+03  0.13318886195E+03  0.25500000000E-02 0. -1.
          2   -1    0    0  501    0  0.00000000000E+00 -0.00000000000E+00 -0.98442961314E+03  0.98442961315E+03  0.25500000000E-02 0.  1.
    5000001    1    1    2    0    0  0.84252279196E+02 -0.25198195070E+03 -0.70722381095E+03  0.77329416705E+03  0.16500000000E+03 0.  0.
   -5000001    1    1    2    0    0 -0.84252279196E+02  0.25198195070E+03 -0.14401694027E+03  0.34432430805E+03  0.16500000000E+03 0.  0.
<mgrwt>
<rscale>  0 0.72419627E+03</rscale>
<asrwt>0</asrwt>
<pdfrwt beam="1">  1        2 0.14063280E+00 0.72419627E+03</pdfrwt>
<pdfrwt beam="2">  1       -2 0.19026981E-01 0.72419627E+03</pdfrwt>
<totfact> 0.67131114E+02</totfact>
</mgrwt>
</event>
<event>
 4    1  0.5387486E-005  0.3934262E+03  0.7818608E-02  0.1046080E+00
         -2   -1    0    0    0  501 -0.00000000000E+00  0.00000000000E+00  0.63528174229E+02  0.63528174281E+02  0.25500000000E-02 0. -1.
          2   -1    0    0  501    0  0.00000000000E+00 -0.00000000000E+00 -0.60911631351E+03  0.60911631352E+03  0.25500000000E-02 0.  1.
    5000001    1    1    2    0    0  0.80920078501E+02 -0.54044518638E+02 -0.34929622210E+03  0.39837384436E+03  0.16500000000E+03 0.  0.
   -5000001    1    1    2    0    0 -0.80920078501E+02  0.54044518638E+02 -0.19629191719E+03  0.27427064344E+03  0.16500000000E+03 0.  0.
<mgrwt>
<rscale>  0 0.39342622E+03</rscale>
<asrwt>0</asrwt>
<pdfrwt beam="1">  1        2 0.87016613E-01 0.39342622E+03</pdfrwt>
<pdfrwt beam="2">  1       -2 0.90754538E-02 0.39342622E+03</pdfrwt>
<totfact> 0.42156314E+03</totfact>
</mgrwt>
</event>
<event>
 4    1  0.5387486E-005  0.3966987E+03  0.7818608E-02  0.1044929E+00
         -2   -1    0    0    0  501 -0.00000000000E+00  0.00000000000E+00  0.88198680799E+02  0.88198680836E+02  0.25500000000E-02 0. -1.
          2   -1    0    0  501    0  0.00000000000E+00 -0.00000000000E+00 -0.44606639604E+03  0.44606639605E+03  0.25500000000E-02 0.  1.
    5000001    1    1    2    0    0 -0.14669422391E+02 -0.10397367803E+03 -0.13443410509E+03  0.23732519101E+03  0.16500000000E+03 0.  0.
   -5000001    1    1    2    0    0  0.14669422391E+02  0.10397367803E+03 -0.22343361015E+03  0.29693988587E+03  0.16500000000E+03 0.  0.
<mgrwt>
<rscale>  0 0.39669872E+03</rscale>
<asrwt>0</asrwt>
<pdfrwt beam="1">  1        2 0.63723769E-01 0.39669872E+03</pdfrwt>
<pdfrwt beam="2">  1       -2 0.12599812E-01 0.39669872E+03</pdfrwt>
<totfact> 0.35311783E+03</totfact>
</mgrwt>
</event>
<event>
 4    1  0.5387486E-005  0.4370325E+03  0.7818608E-02  0.1031661E+00
         -2   -1    0    0    0  501 -0.00000000000E+00  0.00000000000E+00  0.17442717027E+02  0.17442717214E+02  0.25500000000E-02 0. -1.
          2   -1    0    0  501    0  0.00000000000E+00 -0.00000000000E+00 -0.27374944301E+04  0.27374944301E+04  0.25500000000E-02 0.  1.
    5000001    1    1    2    0    0 -0.11286483048E+03  0.43595286235E+02 -0.87642938439E+03  0.89999582486E+03  0.16500000000E+03 0.  0.
   -5000001    1    1    2    0    0  0.11286483048E+03 -0.43595286235E+02 -0.18436223287E+04  0.18549413225E+04  0.16500000000E+03 0.  0.
<mgrwt>
<rscale>  0 0.43703245E+03</rscale>
<asrwt>0</asrwt>
<pdfrwt beam="1">  1        2 0.39107036E+00 0.43703245E+03</pdfrwt>
<pdfrwt beam="2">  1       -2 0.24918185E-02 0.43703245E+03</pdfrwt>
<totfact> 0.20941872E+03</totfact>
</mgrwt>
</event>
<event>
 4    1  0.5387486E-005  0.3836641E+03  0.7818608E-02  0.1049588E+00
         -2   -1    0    0    0  501 -0.00000000000E+00  0.00000000000E+00  0.27085128747E+02  0.27085128867E+02  0.25500000000E-02 0. -1.
          2   -1    0    0  501    0  0.00000000000E+00 -0.00000000000E+00 -0.13586617038E+04  0.13586617038E+04  0.25500000000E-02 0.  1.
    5000001    1    1    2    0    0 -0.15738819385E+02  0.82305443931E+02 -0.48330345434E+03  0.51752210147E+03  0.16500000000E+03 0.  0.
   -5000001    1    1    2    0    0  0.15738819385E+02 -0.82305443931E+02 -0.84827312071E+03  0.86822473119E+03  0.16500000000E+03 0.  0.
<mgrwt>
<rscale>  0 0.38366406E+03</rscale>
<asrwt>0</asrwt>
<pdfrwt beam="1">  1        2 0.19409449E+00 0.38366406E+03</pdfrwt>
<pdfrwt beam="2">  1       -2 0.38693050E-02 0.38366406E+03</pdfrwt>
<totfact> 0.53539722E+03</totfact>
</mgrwt>
</event>
<event>
 4    1  0.5387486E-005  0.4640356E+03  0.7818608E-02  0.1023617E+00
         -2   -1    0    0    0  501 -0.00000000000E+00  0.00000000000E+00  0.11259664121E+03  0.11259664124E+03  0.25500000000E-02 0. -1.
          2   -1    0    0  501    0  0.00000000000E+00 -0.00000000000E+00 -0.47809822289E+03  0.47809822289E+03  0.25500000000E-02 0.  1.
    5000001    1    1    2    0    0  0.94575737237E+02 -0.16506407015E+02 -0.14884116587E+02  0.19147733149E+03  0.16500000000E+03 0.  0.
   -5000001    1    1    2    0    0 -0.94575737237E+02  0.16506407015E+02 -0.35061746509E+03  0.39921753265E+03  0.16500000000E+03 0.  0.
<mgrwt>
<rscale>  0 0.46403558E+03</rscale>
<asrwt>0</asrwt>
<pdfrwt beam="1">  1        2 0.68299745E-01 0.46403558E+03</pdfrwt>
<pdfrwt beam="2">  1       -2 0.16085235E-01 0.46403558E+03</pdfrwt>
<totfact> 0.21829929E+03</totfact>
</mgrwt>
</event>
<event>
 4    1  0.5387486E-005  0.4882470E+03  0.7818608E-02  0.1016893E+00
         -2   -1    0    0    0  501 -0.00000000000E+00  0.00000000000E+00  0.39640875279E+02  0.39640875361E+02  0.25500000000E-02 0. -1.
          2   -1    0    0  501    0  0.00000000000E+00 -0.00000000000E+00 -0.15034047420E+04  0.15034047420E+04  0.25500000000E-02 0.  1.
    5000001    1    1    2    0    0 -0.15188419677E+02  0.16028958256E+03 -0.47810837295E+03  0.53078814479E+03  0.16500000000E+03 0.  0.
   -5000001    1    1    2    0    0  0.15188419677E+02 -0.16028958256E+03 -0.98565549379E+03  0.10122574726E+04  0.16500000000E+03 0.  0.
<mgrwt>
<rscale>  0 0.48824699E+03</rscale>
<asrwt>0</asrwt>
<pdfrwt beam="1">  1        2 0.21477207E+00 0.48824699E+03</pdfrwt>
<pdfrwt beam="2">  1       -2 0.56629831E-02 0.48824699E+03</pdfrwt>
<totfact> 0.25084624E+03</totfact>
</mgrwt>
</event>
<event>
 4    1  0.5387486E-005  0.7363014E+03  0.7818608E-02  0.9657090E-01
         -2   -1    0    0    0  501 -0.00000000000E+00  0.00000000000E+00  0.19921094453E+03  0.19921094455E+03  0.25500000000E-02 0. -1.
          2   -1    0    0  501    0  0.00000000000E+00 -0.00000000000E+00 -0.68035882979E+03  0.68035882979E+03  0.25500000000E-02 0.  1.
    5000001    1    1    2    0    0  0.12249193275E+03  0.30542752806E+03 -0.24587289436E+03  0.44268355364E+03  0.16500000000E+03 0.  0.
   -5000001    1    1    2    0    0 -0.12249193275E+03 -0.30542752806E+03 -0.23527499090E+03  0.43688622069E+03  0.16500000000E+03 0.  0.
<mgrwt>
<rscale>  0 0.73630137E+03</rscale>
<asrwt>0</asrwt>
<pdfrwt beam="1">  1        2 0.97194118E-01 0.73630137E+03</pdfrwt>
<pdfrwt beam="2">  1       -2 0.28458707E-01 0.73630137E+03</pdfrwt>
<totfact> 0.52907507E+02</totfact>
</mgrwt>
</event>
<event>
 4    1  0.5387486E-005  0.5453856E+03  0.7818608E-02  0.1002568E+00
          2   -1    0    0  501    0  0.00000000000E+00  0.00000000000E+00  0.61316021042E+03  0.61316021043E+03  0.25500000000E-02 0.  1.
         -2   -1    0    0    0  501 -0.00000000000E+00 -0.00000000000E+00 -0.12127559726E+03  0.12127559729E+03  0.25500000000E-02 0. -1.
    5000001    1    1    2    0    0  0.55540408571E+02  0.17105963571E+03  0.82171047441E+02  0.25753294351E+03  0.16500000000E+03 0.  0.
   -5000001    1    1    2    0    0 -0.55540408571E+02 -0.17105963571E+03  0.40971356572E+03  0.47690286421E+03  0.16500000000E+03 0.  0.
<mgrwt>
<rscale>  0 0.54538563E+03</rscale>
<asrwt>0</asrwt>
<pdfrwt beam="1">  1        2 0.87594316E-01 0.54538563E+03</pdfrwt>
<pdfrwt beam="2">  1       -2 0.17325085E-01 0.54538563E+03</pdfrwt>
<totfact> 0.14474123E+03</totfact>
</mgrwt>
</event>
<event>
 4    1  0.5387486E-005  0.4570743E+03  0.7818608E-02  0.1025633E+00
          2   -1    0    0  501    0  0.00000000000E+00  0.00000000000E+00  0.51205431518E+03  0.51205431519E+03  0.25500000000E-02 0.  1.
         -2   -1    0    0    0  501 -0.00000000000E+00 -0.00000000000E+00 -0.10199940941E+03  0.10199940944E+03  0.25500000000E-02 0. -1.
    5000001    1    1    2    0    0  0.14626316360E+03 -0.17265422967E+02  0.28235697315E+03  0.35866623502E+03  0.16500000000E+03 0.  0.
   -5000001    1    1    2    0    0 -0.14626316360E+03  0.17265422967E+02  0.12769793262E+03  0.25538748961E+03  0.16500000000E+03 0.  0.
<mgrwt>
<rscale>  0 0.45707434E+03</rscale>
<asrwt>0</asrwt>
<pdfrwt beam="1">  1        2 0.73150618E-01 0.45707434E+03</pdfrwt>
<pdfrwt beam="2">  1       -2 0.14571344E-01 0.45707434E+03</pdfrwt>
<totfact> 0.23846406E+03</totfact>
</mgrwt>
</event>
<event>
 4    1  0.5387486E-005  0.3580987E+03  0.7818608E-02  0.1059339E+00
          2   -1    0    0  501    0  0.00000000000E+00  0.00000000000E+00  0.44004606067E+02  0.44004606141E+02  0.25500000000E-02 0.  1.
         -2   -1    0    0    0  501 -0.00000000000E+00 -0.00000000000E+00 -0.72852979229E+03  0.72852979229E+03  0.25500000000E-02 0. -1.
    5000001    1    1    2    0    0  0.46148332413E+02 -0.23144086007E+02 -0.24180570514E+03  0.29725463216E+03  0.16500000000E+03 0.  0.
   -5000001    1    1    2    0    0 -0.46148332413E+02  0.23144086007E+02 -0.44271948108E+03  0.47527976627E+03  0.16500000000E+03 0.  0.
<mgrwt>
<rscale>  0 0.35809868E+03</rscale>
<asrwt>0</asrwt>
<pdfrwt beam="1">  1        2 0.62863727E-02 0.35809868E+03</pdfrwt>
<pdfrwt beam="2">  1       -2 0.10407568E+00 0.35809868E+03</pdfrwt>
<totfact> 0.91332037E+02</totfact>
</mgrwt>
</event>
<event>
 4    1  0.5387486E-005  0.6881877E+03  0.7818608E-02  0.9737649E-01
          2   -1    0    0  501    0  0.00000000000E+00  0.00000000000E+00  0.21767178865E+04  0.21767178866E+04  0.25500000000E-02 0.  1.
         -2   -1    0    0    0  501 -0.00000000000E+00 -0.00000000000E+00 -0.54394087685E+02  0.54394087745E+02  0.25500000000E-02 0. -1.
    5000001    1    1    2    0    0  0.26211612590E+03  0.12009048406E+03  0.77030102790E+03  0.83887738163E+03  0.16500000000E+03 0.  0.
   -5000001    1    1    2    0    0 -0.26211612590E+03 -0.12009048406E+03  0.13520227710E+04  0.13922345927E+04  0.16500000000E+03 0.  0.
<mgrwt>
<rscale>  0 0.68818772E+03</rscale>
<asrwt>0</asrwt>
<pdfrwt beam="1">  1        2 0.31095970E+00 0.68818772E+03</pdfrwt>
<pdfrwt beam="2">  1       -2 0.77705838E-02 0.68818772E+03</pdfrwt>
<totfact> 0.68918680E+02</totfact>
</mgrwt>
</event>
<event>
 4    1  0.5387486E-005  0.5821408E+03  0.7818608E-02  0.9943167E-01
          2   -1    0    0  501    0  0.00000000000E+00  0.00000000000E+00  0.51209185494E+02  0.51209185557E+02  0.25500000000E-02 0.  1.
         -2   -1    0    0    0  501 -0.00000000000E+00 -0.00000000000E+00 -0.16544292834E+04  0.16544292834E+04  0.25500000000E-02 0. -1.
    5000001    1    1    2    0    0  0.16648604095E+03  0.16902412896E+03 -0.90353740827E+03  0.94862616775E+03  0.16500000000E+03 0.  0.
   -5000001    1    1    2    0    0 -0.16648604095E+03 -0.16902412896E+03 -0.69968268964E+03  0.75701230121E+03  0.16500000000E+03 0.  0.
<mgrwt>
<rscale>  0 0.58214079E+03</rscale>
<asrwt>0</asrwt>
<pdfrwt beam="1">  1        2 0.73155990E-02 0.58214079E+03</pdfrwt>
<pdfrwt beam="2">  1       -2 0.23634701E+00 0.58214079E+03</pdfrwt>
<totfact> 0.80551398E+01</totfact>
</mgrwt>
</event>
<event>
 4    1  0.5387486E-005  0.4965453E+03  0.7818608E-02  0.1014685E+00
         -2   -1    0    0    0  501 -0.00000000000E+00  0.00000000000E+00  0.18410719347E+03  0.18410719349E+03  0.25500000000E-02 0. -1.
          2   -1    0    0  501    0  0.00000000000E+00 -0.00000000000E+00 -0.33480119438E+03  0.33480119439E+03  0.25500000000E-02 0.  1.
    5000001    1    1    2    0    0  0.13863868630E+03  0.11776522033E+03 -0.11338658744E+03  0.27050111029E+03  0.16500000000E+03 0.  0.
   -5000001    1    1    2    0    0 -0.13863868630E+03 -0.11776522033E+03 -0.37307413463E+02  0.24840727758E+03  0.16500000000E+03 0.  0.
<mgrwt>
<rscale>  0 0.49654530E+03</rscale>
<asrwt>0</asrwt>
<pdfrwt beam="1">  1        2 0.47828742E-01 0.49654530E+03</pdfrwt>
<pdfrwt beam="2">  1       -2 0.26301028E-01 0.49654530E+03</pdfrwt>
<totfact> 0.13758890E+03</totfact>
</mgrwt>
</event>
<event>
 4    1  0.5387486E-005  0.5154390E+03  0.7818608E-02  0.1009826E+00
          2   -1    0    0  501    0  0.00000000000E+00  0.00000000000E+00  0.38900646664E+04  0.38900646664E+04  0.25500000000E-02 0.  1.
         -2   -1    0    0    0  501 -0.00000000000E+00 -0.00000000000E+00 -0.17074093721E+02  0.17074093911E+02  0.25500000000E-02 0. -1.
    5000001    1    1    2    0    0 -0.19768073134E+03  0.85661866794E+01  0.19863624934E+04  0.20030007505E+04  0.16500000000E+03 0.  0.
   -5000001    1    1    2    0    0  0.19768073134E+03 -0.85661866794E+01  0.18866280792E+04  0.19041380098E+04  0.16500000000E+03 0.  0.
<mgrwt>
<rscale>  0 0.51543895E+03</rscale>
<asrwt>0</asrwt>
<pdfrwt beam="1">  1        2 0.55572322E+00 0.51543895E+03</pdfrwt>
<pdfrwt beam="2">  1       -2 0.24391576E-02 0.51543895E+03</pdfrwt>
<totfact> 0.46796863E+02</totfact>
</mgrwt>
</event>
<event>
 4    1  0.5387486E-005  0.6387598E+03  0.7818608E-02  0.9828102E-01
         -2   -1    0    0    0  501 -0.00000000000E+00  0.00000000000E+00  0.49593040646E+03  0.49593040647E+03  0.25500000000E-02 0. -1.
          2   -1    0    0  501    0  0.00000000000E+00 -0.00000000000E+00 -0.20568109426E+03  0.20568109427E+03  0.25500000000E-02 0.  1.
    5000001    1    1    2    0    0 -0.18570145583E+03  0.11312681790E+03 -0.37009893752E+02  0.27545859918E+03  0.16500000000E+03 0.  0.
   -5000001    1    1    2    0    0  0.18570145583E+03 -0.11312681790E+03  0.32725920596E+03  0.42615290156E+03  0.16500000000E+03 0.  0.
<mgrwt>
<rscale>  0 0.63875976E+03</rscale>
<asrwt>0</asrwt>
<pdfrwt beam="1">  1        2 0.29383013E-01 0.63875976E+03</pdfrwt>
<pdfrwt beam="2">  1       -2 0.70847201E-01 0.63875976E+03</pdfrwt>
<totfact> 0.33310439E+02</totfact>
</mgrwt>
</event>
<event>
 4    1  0.5387486E-005  0.4864869E+03  0.7818608E-02  0.1017367E+00
         -2   -1    0    0    0  501 -0.00000000000E+00  0.00000000000E+00  0.26548436123E+02  0.26548436246E+02  0.25500000000E-02 0. -1.
          2   -1    0    0  501    0  0.00000000000E+00 -0.00000000000E+00 -0.22286574119E+04  0.22286574119E+04  0.25500000000E-02 0.  1.
    5000001    1    1    2    0    0 -0.63385721611E+02 -0.15782649688E+03 -0.84649534485E+03  0.87903715602E+03  0.16500000000E+03 0.  0.
   -5000001    1    1    2    0    0  0.63385721611E+02  0.15782649688E+03 -0.13556136310E+04  0.13761686921E+04  0.16500000000E+03 0.  0.
<mgrwt>
<rscale>  0 0.48648687E+03</rscale>
<asrwt>0</asrwt>
<pdfrwt beam="1">  1        2 0.31837951E+00 0.48648687E+03</pdfrwt>
<pdfrwt beam="2">  1       -2 0.37926352E-02 0.48648687E+03</pdfrwt>
<totfact> 0.20078549E+03</totfact>
</mgrwt>
</event>
<event>
 4    1  0.5387486E-005  0.4009134E+03  0.7818608E-02  0.1043464E+00
         -2   -1    0    0    0  501 -0.00000000000E+00  0.00000000000E+00  0.18766541139E+02  0.18766541312E+02  0.25500000000E-02 0. -1.
          2   -1    0    0  501    0  0.00000000000E+00 -0.00000000000E+00 -0.21411988854E+04  0.21411988854E+04  0.25500000000E-02 0.  1.
    5000001    1    1    2    0    0  0.78975411942E+02  0.62742518117E+02 -0.77693826389E+03  0.80064461852E+03  0.16500000000E+03 0.  0.
   -5000001    1    1    2    0    0 -0.78975411942E+02 -0.62742518117E+02 -0.13454940804E+04  0.13593208082E+04  0.16500000000E+03 0.  0.
<mgrwt>
<rscale>  0 0.40091344E+03</rscale>
<asrwt>0</asrwt>
<pdfrwt beam="1">  1        2 0.30588540E+00 0.40091344E+03</pdfrwt>
<pdfrwt beam="2">  1       -2 0.26809358E-02 0.40091344E+03</pdfrwt>
<totfact> 0.37634056E+03</totfact>
</mgrwt>
</event>
<event>
 4    1  0.5387486E-005  0.3947687E+03  0.7818608E-02  0.1045606E+00
         -2   -1    0    0    0  501 -0.00000000000E+00  0.00000000000E+00  0.93381054053E+02  0.93381054087E+02  0.25500000000E-02 0. -1.
          2   -1    0    0  501    0  0.00000000000E+00 -0.00000000000E+00 -0.41722153173E+03  0.41722153174E+03  0.25500000000E-02 0.  1.
    5000001    1    1    2    0    0  0.48118592137E+01 -0.44257364856E+02 -0.34180692020E+02  0.17428479004E+03  0.16500000000E+03 0.  0.
   -5000001    1    1    2    0    0 -0.48118592137E+01  0.44257364856E+02 -0.28965978565E+03  0.33631779578E+03  0.16500000000E+03 0.  0.
<mgrwt>
<rscale>  0 0.39476872E+03</rscale>
<asrwt>0</asrwt>
<pdfrwt beam="1">  1        2 0.59603075E-01 0.39476872E+03</pdfrwt>
<pdfrwt beam="2">  1       -2 0.13340151E-01 0.39476872E+03</pdfrwt>
<totfact> 0.34606564E+03</totfact>
</mgrwt>
</event>
<event>
 4    1  0.5387486E-005  0.5517555E+03  0.7818608E-02  0.1001088E+00
         -2   -1    0    0    0  501 -0.00000000000E+00  0.00000000000E+00  0.77796943370E+02  0.77796943411E+02  0.25500000000E-02 0. -1.
          2   -1    0    0  501    0  0.00000000000E+00 -0.00000000000E+00 -0.97829704721E+03  0.97829704722E+03  0.25500000000E-02 0.  1.
    5000001    1    1    2    0    0 -0.13525997402E+03  0.86574158182E+02 -0.74111926543E+03  0.77606256901E+03  0.16500000000E+03 0.  0.
   -5000001    1    1    2    0    0  0.13525997402E+03 -0.86574158182E+02 -0.15938083842E+03  0.28003142161E+03  0.16500000000E+03 0.  0.
<mgrwt>
<rscale>  0 0.55175545E+03</rscale>
<asrwt>0</asrwt>
<pdfrwt beam="1">  1        2 0.13975671E+00 0.55175545E+03</pdfrwt>
<pdfrwt beam="2">  1       -2 0.11113850E-01 0.55175545E+03</pdfrwt>
<totfact> 0.16791392E+03</totfact>
</mgrwt>
</event>
<event>
 4    1  0.5387486E-005  0.4101415E+03  0.7818608E-02  0.1040324E+00
         -2   -1    0    0    0  501 -0.00000000000E+00  0.00000000000E+00  0.13732041685E+02  0.13732041921E+02  0.25500000000E-02 0. -1.
          2   -1    0    0  501    0  0.00000000000E+00 -0.00000000000E+00 -0.30624730413E+04  0.30624730413E+04  0.25500000000E-02 0.  1.
    5000001    1    1    2    0    0  0.48531289012E+02 -0.10279889549E+03 -0.11969126176E+04  0.12135681740E+04  0.16500000000E+03 0.  0.
   -5000001    1    1    2    0    0 -0.48531289012E+02  0.10279889549E+03 -0.18518283821E+04  0.18626369092E+04  0.16500000000E+03 0.  0.
<mgrwt>
<rscale>  0 0.41014148E+03</rscale>
<asrwt>0</asrwt>
<pdfrwt beam="1">  1        2 0.43749571E+00 0.41014148E+03</pdfrwt>
<pdfrwt beam="2">  1       -2 0.19617222E-02 0.41014148E+03</pdfrwt>
<totfact> 0.20165639E+03</totfact>
</mgrwt>
</event>
<event>
 4    1  0.5387486E-005  0.8482889E+03  0.7818608E-02  0.9492636E-01
          2   -1    0    0  501    0  0.00000000000E+00  0.00000000000E+00  0.66241981430E+03  0.66241981431E+03  0.25500000000E-02 0.  1.
         -2   -1    0    0    0  501 -0.00000000000E+00 -0.00000000000E+00 -0.27157777508E+03  0.27157777509E+03  0.25500000000E-02 0. -1.
    5000001    1    1    2    0    0  0.18572257966E+03 -0.33260361120E+03  0.29112554214E+03  0.50704745347E+03  0.16500000000E+03 0.  0.
   -5000001    1    1    2    0    0 -0.18572257966E+03  0.33260361120E+03  0.99716497079E+02  0.42695013593E+03  0.16500000000E+03 0.  0.
<mgrwt>
<rscale>  0 0.84828886E+03</rscale>
<asrwt>0</asrwt>
<pdfrwt beam="1">  1        2 0.94631402E-01 0.84828886E+03</pdfrwt>
<pdfrwt beam="2">  1       -2 0.38796825E-01 0.84828886E+03</pdfrwt>
<totfact> 0.30332475E+02</totfact>
</mgrwt>
</event>
<event>
 4    1  0.5387486E-005  0.4870110E+03  0.7818608E-02  0.1017226E+00
         -2   -1    0    0    0  501 -0.00000000000E+00  0.00000000000E+00  0.65410657182E+02  0.65410657232E+02  0.25500000000E-02 0. -1.
          2   -1    0    0  501    0  0.00000000000E+00 -0.00000000000E+00 -0.90650273110E+03  0.90650273111E+03  0.25500000000E-02 0.  1.
    5000001    1    1    2    0    0 -0.84875036546E+02 -0.14161762341E+02 -0.73397180776E+03  0.75719478466E+03  0.16500000000E+03 0.  0.
   -5000001    1    1    2    0    0  0.84875036546E+02  0.14161762341E+02 -0.10712026617E+03  0.21471860368E+03  0.16500000000E+03 0.  0.
<mgrwt>
<rscale>  0 0.48701104E+03</rscale>
<asrwt>0</asrwt>
<pdfrwt beam="1">  1        2 0.12950038E+00 0.48701104E+03</pdfrwt>
<pdfrwt beam="2">  1       -2 0.93443802E-02 0.48701104E+03</pdfrwt>
<totfact> 0.24661485E+03</totfact>
</mgrwt>
</event>
<event>
 4    1  0.5387486E-005  0.4469946E+03  0.7818608E-02  0.1028622E+00
          2   -1    0    0  501    0  0.00000000000E+00  0.00000000000E+00  0.19641130819E+04  0.19641130819E+04  0.25500000000E-02 0.  1.
         -2   -1    0    0    0  501 -0.00000000000E+00 -0.00000000000E+00 -0.25431853372E+02  0.25431853500E+02  0.25500000000E-02 0. -1.
    5000001    1    1    2    0    0 -0.71827055643E+02  0.11459052893E+03  0.12657851148E+04  0.12836382169E+04  0.16500000000E+03 0.  0.
   -5000001    1    1    2    0    0  0.71827055643E+02 -0.11459052893E+03  0.67289611377E+03  0.70590671846E+03  0.16500000000E+03 0.  0.
<mgrwt>
<rscale>  0 0.44699457E+03</rscale>
<asrwt>0</asrwt>
<pdfrwt beam="1">  1        2 0.28058766E+00 0.44699457E+03</pdfrwt>
<pdfrwt beam="2">  1       -2 0.36331209E-02 0.44699457E+03</pdfrwt>
<totfact> 0.29083604E+03</totfact>
</mgrwt>
</event>
<event>
 4    1  0.5387486E-005  0.5438469E+03  0.7818608E-02  0.1002928E+00
         -2   -1    0    0    0  501 -0.00000000000E+00  0.00000000000E+00  0.12464478098E+03  0.12464478101E+03  0.25500000000E-02 0. -1.
          2   -1    0    0  501    0  0.00000000000E+00 -0.00000000000E+00 -0.59322477594E+03  0.59322477594E+03  0.25500000000E-02 0.  1.
    5000001    1    1    2    0    0 -0.21249891432E+03  0.28101397434E+01 -0.18226038518E+03  0.32497312732E+03  0.16500000000E+03 0.  0.
   -5000001    1    1    2    0    0  0.21249891432E+03 -0.28101397434E+01 -0.28631960978E+03  0.39289642963E+03  0.16500000000E+03 0.  0.
<mgrwt>
<rscale>  0 0.54384694E+03</rscale>
<asrwt>0</asrwt>
<pdfrwt beam="1">  1        2 0.84746395E-01 0.54384694E+03</pdfrwt>
<pdfrwt beam="2">  1       -2 0.17806398E-01 0.54384694E+03</pdfrwt>
<totfact> 0.14358204E+03</totfact>
</mgrwt>
</event>
<event>
 4    1  0.5387486E-005  0.4230542E+03  0.7818608E-02  0.1036077E+00
          2   -1    0    0  501    0  0.00000000000E+00  0.00000000000E+00  0.45077146736E+03  0.45077146736E+03  0.25500000000E-02 0.  1.
         -2   -1    0    0    0  501 -0.00000000000E+00 -0.00000000000E+00 -0.99260298520E+02  0.99260298553E+02  0.25500000000E-02 0. -1.
    5000001    1    1    2    0    0 -0.63948297570E+02 -0.38905048014E+02  0.33832848038E+02  0.18431670876E+03  0.16500000000E+03 0.  0.
   -5000001    1    1    2    0    0  0.63948297570E+02  0.38905048014E+02  0.31767832080E+03  0.36571505715E+03  0.16500000000E+03 0.  0.
<mgrwt>
<rscale>  0 0.42305418E+03</rscale>
<asrwt>0</asrwt>
<pdfrwt beam="1">  1        2 0.64395924E-01 0.42305418E+03</pdfrwt>
<pdfrwt beam="2">  1       -2 0.14180043E-01 0.42305418E+03</pdfrwt>
<totfact> 0.28755157E+03</totfact>
</mgrwt>
</event>
<event>
 4    1  0.5387486E-005  0.7920030E+03  0.7818608E-02  0.9571665E-01
          2   -1    0    0  501    0  0.00000000000E+00  0.00000000000E+00  0.10233500729E+04  0.10233500729E+04  0.25500000000E-02 0.  1.
         -2   -1    0    0    0  501 -0.00000000000E+00 -0.00000000000E+00 -0.15323904952E+03  0.15323904954E+03  0.25500000000E-02 0. -1.
    5000001    1    1    2    0    0  0.33116579714E+03 -0.93544331595E+02  0.27804041737E+03  0.47217878062E+03  0.16500000000E+03 0.  0.
   -5000001    1    1    2    0    0 -0.33116579714E+03  0.93544331595E+02  0.59207060602E+03  0.70441034184E+03  0.16500000000E+03 0.  0.
<mgrwt>
<rscale>  0 0.79200301E+03</rscale>
<asrwt>0</asrwt>
<pdfrwt beam="1">  1        2 0.14619287E+00 0.79200301E+03</pdfrwt>
<pdfrwt beam="2">  1       -2 0.21891292E-01 0.79200301E+03</pdfrwt>
<totfact> 0.49562483E+02</totfact>
</mgrwt>
</event>
<event>
 4    1  0.5387486E-005  0.4860519E+03  0.7818608E-02  0.1017485E+00
          2   -1    0    0  501    0  0.00000000000E+00  0.00000000000E+00  0.51295401836E+03  0.51295401836E+03  0.25500000000E-02 0.  1.
         -2   -1    0    0    0  501 -0.00000000000E+00 -0.00000000000E+00 -0.11514015900E+03  0.11514015903E+03  0.25500000000E-02 0. -1.
    5000001    1    1    2    0    0 -0.15740440887E+03  0.49930626139E+02  0.11157435194E+03  0.25873355285E+03  0.16500000000E+03 0.  0.
   -5000001    1    1    2    0    0  0.15740440887E+03 -0.49930626139E+02  0.28623950741E+03  0.36936062454E+03  0.16500000000E+03 0.  0.
<mgrwt>
<rscale>  0 0.48605188E+03</rscale>
<asrwt>0</asrwt>
<pdfrwt beam="1">  1        2 0.73279145E-01 0.48605188E+03</pdfrwt>
<pdfrwt beam="2">  1       -2 0.16448594E-01 0.48605188E+03</pdfrwt>
<totfact> 0.19424565E+03</totfact>
</mgrwt>
</event>
<event>
 4    1  0.5387486E-005  0.6888668E+03  0.7818608E-02  0.9736463E-01
         -2   -1    0    0    0  501 -0.00000000000E+00  0.00000000000E+00  0.16355881593E+03  0.16355881595E+03  0.25500000000E-02 0. -1.
          2   -1    0    0  501    0  0.00000000000E+00 -0.00000000000E+00 -0.72533151041E+03  0.72533151042E+03  0.25500000000E-02 0.  1.
    5000001    1    1    2    0    0  0.10107558548E+03 -0.19200497381E+03 -0.92124080669E+01  0.27274906491E+03  0.16500000000E+03 0.  0.
   -5000001    1    1    2    0    0 -0.10107558548E+03  0.19200497381E+03 -0.55256028641E+03  0.61614126146E+03  0.16500000000E+03 0.  0.
<mgrwt>
<rscale>  0 0.68886679E+03</rscale>
<asrwt>0</asrwt>
<pdfrwt beam="1">  1        2 0.10361879E+00 0.68886679E+03</pdfrwt>
<pdfrwt beam="2">  1       -2 0.23365546E-01 0.68886679E+03</pdfrwt>
<totfact> 0.69957932E+02</totfact>
</mgrwt>
</event>
<event>
 4    1  0.5387486E-005  0.9421807E+03  0.7818608E-02  0.9374337E-01
          2   -1    0    0  501    0  0.00000000000E+00  0.00000000000E+00  0.18543491542E+04  0.18543491542E+04  0.25500000000E-02 0.  1.
         -2   -1    0    0    0  501 -0.00000000000E+00 -0.00000000000E+00 -0.11967870854E+03  0.11967870856E+03  0.25500000000E-02 0. -1.
    5000001    1    1    2    0    0  0.37129905317E+03  0.23368455537E+03  0.96626744987E+03  0.10739502982E+04  0.16500000000E+03 0.  0.
   -5000001    1    1    2    0    0 -0.37129905317E+03 -0.23368455537E+03  0.76840299578E+03  0.90007756456E+03  0.16500000000E+03 0.  0.
<mgrwt>
<rscale>  0 0.94218069E+03</rscale>
<asrwt>0</asrwt>
<pdfrwt beam="1">  1        2 0.26490699E+00 0.94218069E+03</pdfrwt>
<pdfrwt beam="2">  1       -2 0.17096960E-01 0.94218069E+03</pdfrwt>
<totfact> 0.26842867E+02</totfact>
</mgrwt>
</event>
<event>
 4    1  0.5387486E-005  0.5102616E+03  0.7818608E-02  0.1011135E+00
         -2   -1    0    0    0  501 -0.00000000000E+00  0.00000000000E+00  0.67101067938E+02  0.67101067986E+02  0.25500000000E-02 0. -1.
          2   -1    0    0  501    0  0.00000000000E+00 -0.00000000000E+00 -0.97005502242E+03  0.97005502242E+03  0.25500000000E-02 0.  1.
    5000001    1    1    2    0    0  0.73307136976E+02  0.17524082921E+03 -0.36563871920E+03  0.44384677258E+03  0.16500000000E+03 0.  0.
   -5000001    1    1    2    0    0 -0.73307136976E+02 -0.17524082921E+03 -0.53731523528E+03  0.59330931782E+03  0.16500000000E+03 0.  0.
<mgrwt>
<rscale>  0 0.51026161E+03</rscale>
<asrwt>0</asrwt>
<pdfrwt beam="1">  1        2 0.13857928E+00 0.51026161E+03</pdfrwt>
<pdfrwt beam="2">  1       -2 0.95858674E-02 0.51026161E+03</pdfrwt>
<totfact> 0.21597562E+03</totfact>
</mgrwt>
</event>
<event>
 4    1  0.5387486E-005  0.3850741E+03  0.7818608E-02  0.1049074E+00
         -2   -1    0    0    0  501 -0.00000000000E+00  0.00000000000E+00  0.34563665172E+02  0.34563665266E+02  0.25500000000E-02 0. -1.
          2   -1    0    0  501    0  0.00000000000E+00 -0.00000000000E+00 -0.10725285858E+04  0.10725285858E+04  0.25500000000E-02 0.  1.
    5000001    1    1    2    0    0 -0.98283993615E+02  0.79188798387E+01 -0.48708837514E+03  0.52364352117E+03  0.16500000000E+03 0.  0.
   -5000001    1    1    2    0    0  0.98283993615E+02 -0.79188798387E+01 -0.55087654543E+03  0.58344872985E+03  0.16500000000E+03 0.  0.
<mgrwt>
<rscale>  0 0.38507412E+03</rscale>
<asrwt>0</asrwt>
<pdfrwt beam="1">  1        2 0.15321835E+00 0.38507412E+03</pdfrwt>
<pdfrwt beam="2">  1       -2 0.49376671E-02 0.38507412E+03</pdfrwt>
<totfact> 0.53019436E+03</totfact>
</mgrwt>
</event>
<event>
 4    1  0.5387486E-005  0.5970303E+03  0.7818608E-02  0.9911586E-01
          2   -1    0    0  501    0  0.00000000000E+00  0.00000000000E+00  0.12253224475E+04  0.12253224475E+04  0.25500000000E-02 0.  1.
         -2   -1    0    0    0  501 -0.00000000000E+00 -0.00000000000E+00 -0.72724770019E+02  0.72724770063E+02  0.25500000000E-02 0. -1.
    5000001    1    1    2    0    0 -0.10699832030E+03  0.20085196254E+03  0.79475879532E+03  0.84300456354E+03  0.16500000000E+03 0.  0.
   -5000001    1    1    2    0    0  0.10699832030E+03 -0.20085196254E+03  0.35783888219E+03  0.45504265406E+03  0.16500000000E+03 0.  0.
<mgrwt>
<rscale>  0 0.59703029E+03</rscale>
<asrwt>0</asrwt>
<pdfrwt beam="1">  1        2 0.17504606E+00 0.59703029E+03</pdfrwt>
<pdfrwt beam="2">  1       -2 0.10389253E-01 0.59703029E+03</pdfrwt>
<totfact> 0.13447248E+03</totfact>
</mgrwt>
</event>
<event>
 4    1  0.5387486E-005  0.5898212E+03  0.7818608E-02  0.9926752E-01
         -2   -1    0    0    0  501 -0.00000000000E+00  0.00000000000E+00  0.47676684675E+02  0.47676684743E+02  0.25500000000E-02 0. -1.
          2   -1    0    0  501    0  0.00000000000E+00 -0.00000000000E+00 -0.18242092916E+04  0.18242092916E+04  0.25500000000E-02 0.  1.
    5000001    1    1    2    0    0 -0.82936537547E+02 -0.21439301357E+03 -0.62455875084E+03  0.68566862753E+03  0.16500000000E+03 0.  0.
   -5000001    1    1    2    0    0  0.82936537547E+02  0.21439301357E+03 -0.11519738561E+04  0.11862173489E+04  0.16500000000E+03 0.  0.
<mgrwt>
<rscale>  0 0.58982116E+03</rscale>
<asrwt>0</asrwt>
<pdfrwt beam="1">  1        2 0.26060128E+00 0.58982116E+03</pdfrwt>
<pdfrwt beam="2">  1       -2 0.68109561E-02 0.58982116E+03</pdfrwt>
<totfact> 0.12857453E+03</totfact>
</mgrwt>
</event>
<event>
 4    1  0.5387486E-005  0.8322693E+03  0.7818608E-02  0.9514448E-01
         -2   -1    0    0    0  501 -0.00000000000E+00  0.00000000000E+00  0.69351926036E+02  0.69351926083E+02  0.25500000000E-02 0. -1.
          2   -1    0    0  501    0  0.00000000000E+00 -0.00000000000E+00 -0.24969464437E+04  0.24969464437E+04  0.25500000000E-02 0.  1.
    5000001    1    1    2    0    0  0.29759496861E+03 -0.10271230088E+03 -0.54651819137E+03  0.65193536152E+03  0.16500000000E+03 0.  0.
   -5000001    1    1    2    0    0 -0.29759496861E+03  0.10271230088E+03 -0.18810763263E+04  0.19143630083E+04  0.16500000000E+03 0.  0.
<mgrwt>
<rscale>  0 0.83226930E+03</rscale>
<asrwt>0</asrwt>
<pdfrwt beam="1">  1        2 0.35670658E+00 0.83226930E+03</pdfrwt>
<pdfrwt beam="2">  1       -2 0.99074195E-02 0.83226930E+03</pdfrwt>
<totfact> 0.31617892E+02</totfact>
</mgrwt>
</event>
<event>
 4    1  0.5387486E-005  0.4468202E+03  0.7818608E-02  0.1028675E+00
         -2   -1    0    0    0  501 -0.00000000000E+00  0.00000000000E+00  0.26775692540E+02  0.26775692661E+02  0.25500000000E-02 0. -1.
          2   -1    0    0  501    0  0.00000000000E+00 -0.00000000000E+00 -0.18640811435E+04  0.18640811435E+04  0.25500000000E-02 0.  1.
    5000001    1    1    2    0    0 -0.12787770681E+03  0.78779298394E+02 -0.96656342555E+03  0.99198222835E+03  0.16500000000E+03 0.  0.
   -5000001    1    1    2    0    0  0.12787770681E+03 -0.78779298394E+02 -0.87074202545E+03  0.89887460786E+03  0.16500000000E+03 0.  0.
<mgrwt>
<rscale>  0 0.44682016E+03</rscale>
<asrwt>0</asrwt>
<pdfrwt beam="1">  1        2 0.26629722E+00 0.44682016E+03</pdfrwt>
<pdfrwt beam="2">  1       -2 0.38251001E-02 0.44682016E+03</pdfrwt>
<totfact> 0.30157505E+03</totfact>
</mgrwt>
</event>
<event>
 4    1  0.5387486E-005  0.1060442E+04  0.7818608E-02  0.9244629E-01
         -2   -1    0    0    0  501 -0.00000000000E+00  0.00000000000E+00  0.32936402849E+03  0.32936402850E+03  0.25500000000E-02 0. -1.
          2   -1    0    0  501    0  0.00000000000E+00 -0.00000000000E+00 -0.85356770325E+03  0.85356770326E+03  0.25500000000E-02 0.  1.
    5000001    1    1    2    0    0 -0.81618978250E+02 -0.48650856789E+03 -0.14748508918E+03  0.54067466722E+03  0.16500000000E+03 0.  0.
   -5000001    1    1    2    0    0  0.81618978250E+02  0.48650856789E+03 -0.37671858558E+03  0.64225706454E+03  0.16500000000E+03 0.  0.
<mgrwt>
<rscale>  0 0.10604424E+04</rscale>
<asrwt>0</asrwt>
<pdfrwt beam="1">  1        2 0.12193824E+00 0.10604424E+04</pdfrwt>
<pdfrwt beam="2">  1       -2 0.47052004E-01 0.10604424E+04</pdfrwt>
<totfact> 0.14868077E+02</totfact>
</mgrwt>
</event>
<event>
 4    1  0.5387486E-005  0.6396868E+03  0.7818608E-02  0.9826326E-01
          2   -1    0    0  501    0  0.00000000000E+00  0.00000000000E+00  0.23378063916E+04  0.23378063916E+04  0.25500000000E-02 0.  1.
         -2   -1    0    0    0  501 -0.00000000000E+00 -0.00000000000E+00 -0.43758883615E+02  0.43758883690E+02  0.25500000000E-02 0. -1.
    5000001    1    1    2    0    0 -0.45881511035E+02 -0.20287071828E+03  0.18110702461E+04  0.18304267475E+04  0.16500000000E+03 0.  0.
   -5000001    1    1    2    0    0  0.45881511035E+02  0.20287071828E+03  0.48297726181E+03  0.55113852779E+03  0.16500000000E+03 0.  0.
<mgrwt>
<rscale>  0 0.63968679E+03</rscale>
<asrwt>0</asrwt>
<pdfrwt beam="1">  1        2 0.33397232E+00 0.63968679E+03</pdfrwt>
<pdfrwt beam="2">  1       -2 0.62512694E-02 0.63968679E+03</pdfrwt>
<totfact> 0.80861451E+02</totfact>
</mgrwt>
</event>
<event>
 4    1  0.5387486E-005  0.6904036E+03  0.7818608E-02  0.9733786E-01
          2   -1    0    0  501    0  0.00000000000E+00  0.00000000000E+00  0.29420505654E+03  0.29420505655E+03  0.25500000000E-02 0.  1.
         -2   -1    0    0    0  501 -0.00000000000E+00 -0.00000000000E+00 -0.40503818180E+03  0.40503818181E+03  0.25500000000E-02 0. -1.
    5000001    1    1    2    0    0  0.15406270167E+03 -0.19757159785E+03  0.11756076920E+03  0.32220395214E+03  0.16500000000E+03 0.  0.
   -5000001    1    1    2    0    0 -0.15406270167E+03  0.19757159785E+03 -0.22839389446E+03  0.37703928622E+03  0.16500000000E+03 0.  0.
<mgrwt>
<rscale>  0 0.69040360E+03</rscale>
<asrwt>0</asrwt>
<pdfrwt beam="1">  1        2 0.42029294E-01 0.69040360E+03</pdfrwt>
<pdfrwt beam="2">  1       -2 0.57862597E-01 0.69040360E+03</pdfrwt>
<totfact> 0.34377119E+02</totfact>
</mgrwt>
</event>
<event>
 4    1  0.5387486E-005  0.5124000E+03  0.7818608E-02  0.1010592E+00
          2   -1    0    0  501    0  0.00000000000E+00  0.00000000000E+00  0.37986563326E+03  0.37986563326E+03  0.25500000000E-02 0.  1.
         -2   -1    0    0    0  501 -0.00000000000E+00 -0.00000000000E+00 -0.17279382937E+03  0.17279382938E+03  0.25500000000E-02 0. -1.
    5000001    1    1    2    0    0  0.15024974608E+03  0.10812699572E+03  0.34078949135E+02  0.25030542977E+03  0.16500000000E+03 0.  0.
   -5000001    1    1    2    0    0 -0.15024974608E+03 -0.10812699572E+03  0.17299285475E+03  0.30235403287E+03  0.16500000000E+03 0.  0.
<mgrwt>
<rscale>  0 0.51239999E+03</rscale>
<asrwt>0</asrwt>
<pdfrwt beam="1">  1        2 0.54266519E-01 0.51239999E+03</pdfrwt>
<pdfrwt beam="2">  1       -2 0.24684833E-01 0.51239999E+03</pdfrwt>
<totfact> 0.13417482E+03</totfact>
</mgrwt>
</event>
<event>
 4    1  0.5387486E-005  0.5379177E+03  0.7818608E-02  0.1004330E+00
          2   -1    0    0  501    0  0.00000000000E+00  0.00000000000E+00  0.17110567604E+04  0.17110567604E+04  0.25500000000E-02 0.  1.
         -2   -1    0    0    0  501 -0.00000000000E+00 -0.00000000000E+00 -0.42277295297E+02  0.42277295374E+02  0.25500000000E-02 0. -1.
    5000001    1    1    2    0    0  0.12183156774E+03 -0.16906820367E+03  0.96826145483E+03  0.10040827821E+04  0.16500000000E+03 0.  0.
   -5000001    1    1    2    0    0 -0.12183156774E+03  0.16906820367E+03  0.70051801025E+03  0.74925127366E+03  0.16500000000E+03 0.  0.
<mgrwt>
<rscale>  0 0.53791766E+03</rscale>
<asrwt>0</asrwt>
<pdfrwt beam="1">  1        2 0.24443667E+00 0.53791766E+03</pdfrwt>
<pdfrwt beam="2">  1       -2 0.60396138E-02 0.53791766E+03</pdfrwt>
<totfact> 0.17749078E+03</totfact>
</mgrwt>
</event>
<event>
 4    1  0.5387486E-005  0.5006784E+03  0.7818608E-02  0.1013602E+00
         -2   -1    0    0    0  501 -0.00000000000E+00  0.00000000000E+00  0.11126309783E+03  0.11126309786E+03  0.25500000000E-02 0. -1.
          2   -1    0    0  501    0  0.00000000000E+00 -0.00000000000E+00 -0.56325693700E+03  0.56325693701E+03  0.25500000000E-02 0.  1.
    5000001    1    1    2    0    0  0.18589252031E+03 -0.25752184911E+02 -0.20576595627E+03  0.32370330998E+03  0.16500000000E+03 0.  0.
   -5000001    1    1    2    0    0 -0.18589252031E+03  0.25752184911E+02 -0.24622788291E+03  0.35081672488E+03  0.16500000000E+03 0.  0.
<mgrwt>
<rscale>  0 0.50067839E+03</rscale>
<asrwt>0</asrwt>
<pdfrwt beam="1">  1        2 0.80465275E-01 0.50067839E+03</pdfrwt>
<pdfrwt beam="2">  1       -2 0.15894729E-01 0.50067839E+03</pdfrwt>
<totfact> 0.18495517E+03</totfact>
</mgrwt>
</event>
<event>
 4    1  0.5387486E-005  0.3699776E+03  0.7818608E-02  0.1054702E+00
          2   -1    0    0  501    0  0.00000000000E+00  0.00000000000E+00  0.31310305149E+04  0.31310305149E+04  0.25500000000E-02 0.  1.
         -2   -1    0    0    0  501 -0.00000000000E+00 -0.00000000000E+00 -0.10929583031E+02  0.10929583328E+02  0.25500000000E-02 0. -1.
    5000001    1    1    2    0    0  0.76690836059E+02  0.10452240199E+02  0.18292877572E+04  0.18383442094E+04  0.16500000000E+03 0.  0.
   -5000001    1    1    2    0    0 -0.76690836059E+02 -0.10452240199E+02  0.12908131747E+04  0.13036158889E+04  0.16500000000E+03 0.  0.
<mgrwt>
<rscale>  0 0.36997761E+03</rscale>
<asrwt>0</asrwt>
<pdfrwt beam="1">  1        2 0.44728955E+00 0.36997761E+03</pdfrwt>
<pdfrwt beam="2">  1       -2 0.15613708E-02 0.36997761E+03</pdfrwt>
<totfact> 0.26044744E+03</totfact>
</mgrwt>
</event>
<event>
 4    1  0.5387486E-005  0.7220107E+03  0.7818608E-02  0.9680314E-01
          2   -1    0    0  501    0  0.00000000000E+00  0.00000000000E+00  0.15724832894E+03  0.15724832896E+03  0.25500000000E-02 0.  1.
         -2   -1    0    0    0  501 -0.00000000000E+00 -0.00000000000E+00 -0.82878381340E+03  0.82878381341E+03  0.25500000000E-02 0. -1.
    5000001    1    1    2    0    0 -0.23104748157E+03  0.18808371083E+03 -0.17222023137E+03  0.38163232189E+03  0.16500000000E+03 0.  0.
   -5000001    1    1    2    0    0  0.23104748157E+03 -0.18808371083E+03 -0.49931525310E+03  0.60439982048E+03  0.16500000000E+03 0.  0.
<mgrwt>
<rscale>  0 0.72201072E+03</rscale>
<asrwt>0</asrwt>
<pdfrwt beam="1">  1        2 0.22464047E-01 0.72201072E+03</pdfrwt>
<pdfrwt beam="2">  1       -2 0.11839769E+00 0.72201072E+03</pdfrwt>
<totfact> 0.13755969E+02</totfact>
</mgrwt>
</event>
<event>
 4    1  0.5387486E-005  0.4557177E+03  0.7818608E-02  0.1026031E+00
         -2   -1    0    0    0  501 -0.00000000000E+00  0.00000000000E+00  0.80842012984E+02  0.80842013025E+02  0.25500000000E-02 0. -1.
          2   -1    0    0  501    0  0.00000000000E+00 -0.00000000000E+00 -0.64223618284E+03  0.64223618285E+03  0.25500000000E-02 0.  1.
    5000001    1    1    2    0    0 -0.13572986361E+03  0.20898168931E+02 -0.15949159856E+03  0.26743578547E+03  0.16500000000E+03 0.  0.
   -5000001    1    1    2    0    0  0.13572986361E+03 -0.20898168931E+02 -0.40190257130E+03  0.45564241040E+03  0.16500000000E+03 0.  0.
<mgrwt>
<rscale>  0 0.45571775E+03</rscale>
<asrwt>0</asrwt>
<pdfrwt beam="1">  1        2 0.91748023E-01 0.45571775E+03</pdfrwt>
<pdfrwt beam="2">  1       -2 0.11548859E-01 0.45571775E+03</pdfrwt>
<totfact> 0.26925429E+03</totfact>
</mgrwt>
</event>
<event>
 4    1  0.5387486E-005  0.6039223E+03  0.7818608E-02  0.9897302E-01
         -2   -1    0    0    0  501 -0.00000000000E+00  0.00000000000E+00  0.57157792262E+03  0.57157792262E+03  0.25500000000E-02 0. -1.
          2   -1    0    0  501    0  0.00000000000E+00 -0.00000000000E+00 -0.15952426270E+03  0.15952426272E+03  0.25500000000E-02 0.  1.
    5000001    1    1    2    0    0 -0.16389320819E+03 -0.35652068057E+02  0.43515630267E+03  0.49468986385E+03  0.16500000000E+03 0.  0.
   -5000001    1    1    2    0    0  0.16389320819E+03  0.35652068057E+02 -0.23102642749E+02  0.23641232149E+03  0.16500000000E+03 0.  0.
<mgrwt>
<rscale>  0 0.60392234E+03</rscale>
<asrwt>0</asrwt>
<pdfrwt beam="1">  1        2 0.22789181E-01 0.60392234E+03</pdfrwt>
<pdfrwt beam="2">  1       -2 0.81653988E-01 0.60392234E+03</pdfrwt>
<totfact> 0.32528854E+02</totfact>
</mgrwt>
</event>
<event>
 4    1  0.5387486E-005  0.6729900E+03  0.7818608E-02  0.9764571E-01
         -2   -1    0    0    0  501 -0.00000000000E+00  0.00000000000E+00  0.15493965322E+04  0.15493965322E+04  0.25500000000E-02 0. -1.
          2   -1    0    0  501    0  0.00000000000E+00 -0.00000000000E+00 -0.73079355609E+02  0.73079355653E+02  0.25500000000E-02 0.  1.
    5000001    1    1    2    0    0  0.20498057058E+02 -0.28403867619E+03  0.90701702815E+03  0.96488498241E+03  0.16500000000E+03 0.  0.
   -5000001    1    1    2    0    0 -0.20498057058E+02  0.28403867619E+03  0.56930014844E+03  0.65759090545E+03  0.16500000000E+03 0.  0.
<mgrwt>
<rscale>  0 0.67299005E+03</rscale>
<asrwt>0</asrwt>
<pdfrwt beam="1">  1        2 0.10439910E-01 0.67299005E+03</pdfrwt>
<pdfrwt beam="2">  1       -2 0.22134233E+00 0.67299005E+03</pdfrwt>
<totfact> 0.62621085E+01</totfact>
</mgrwt>
</event>
<event>
 4    1  0.5387486E-005  0.3840251E+03  0.7818608E-02  0.1049456E+00
         -2   -1    0    0    0  501 -0.00000000000E+00  0.00000000000E+00  0.14588235525E+02  0.14588235747E+02  0.25500000000E-02 0. -1.
          2   -1    0    0  501    0  0.00000000000E+00 -0.00000000000E+00 -0.25272976033E+04  0.25272976033E+04  0.25500000000E-02 0.  1.
    5000001    1    1    2    0    0 -0.46484930272E+02 -0.85837854340E+02 -0.13272828031E+04  0.13410569061E+04  0.16500000000E+03 0.  0.
   -5000001    1    1    2    0    0  0.46484930272E+02  0.85837854340E+02 -0.11854265647E+04  0.12008289330E+04  0.16500000000E+03 0.  0.
<mgrwt>
<rscale>  0 0.38402507E+03</rscale>
<asrwt>0</asrwt>
<pdfrwt beam="1">  1        2 0.36104223E+00 0.38402507E+03</pdfrwt>
<pdfrwt beam="2">  1       -2 0.20840353E-02 0.38402507E+03</pdfrwt>
<totfact> 0.35166948E+03</totfact>
</mgrwt>
</event>
<event>
 4    1  0.5387486E-005  0.8723080E+03  0.7818608E-02  0.9460876E-01
          2   -1    0    0  501    0  0.00000000000E+00  0.00000000000E+00  0.90572502244E+03  0.90572502245E+03  0.25500000000E-02 0.  1.
         -2   -1    0    0    0  501 -0.00000000000E+00 -0.00000000000E+00 -0.21003097315E+03  0.21003097317E+03  0.25500000000E-02 0. -1.
    5000001    1    1    2    0    0 -0.96574432148E+02 -0.29846834728E+03  0.67293428280E+03  0.76057578467E+03  0.16500000000E+03 0.  0.
   -5000001    1    1    2    0    0  0.96574432148E+02  0.29846834728E+03  0.22759766496E+02  0.35518021094E+03  0.16500000000E+03 0.  0.
<mgrwt>
<rscale>  0 0.87230799E+03</rscale>
<asrwt>0</asrwt>
<pdfrwt beam="1">  1        2 0.12938929E+00 0.87230799E+03</pdfrwt>
<pdfrwt beam="2">  1       -2 0.30004425E-01 0.87230799E+03</pdfrwt>
<totfact> 0.33065674E+02</totfact>
</mgrwt>
</event>
<event>
 4    1  0.5387486E-005  0.5163086E+03  0.7818608E-02  0.1009608E+00
          2   -1    0    0  501    0  0.00000000000E+00  0.00000000000E+00  0.90118843336E+03  0.90118843336E+03  0.25500000000E-02 0.  1.
         -2   -1    0    0    0  501 -0.00000000000E+00 -0.00000000000E+00 -0.73950844234E+02  0.73950844278E+02  0.25500000000E-02 0. -1.
    5000001    1    1    2    0    0  0.16879782894E+03  0.10321272173E+03  0.44482897403E+03  0.51404609630E+03  0.16500000000E+03 0.  0.
   -5000001    1    1    2    0    0 -0.16879782894E+03 -0.10321272173E+03  0.38240861509E+03  0.46109318134E+03  0.16500000000E+03 0.  0.
<mgrwt>
<rscale>  0 0.51630861E+03</rscale>
<asrwt>0</asrwt>
<pdfrwt beam="1">  1        2 0.12874120E+00 0.51630861E+03</pdfrwt>
<pdfrwt beam="2">  1       -2 0.10564407E-01 0.51630861E+03</pdfrwt>
<totfact> 0.20390571E+03</totfact>
</mgrwt>
</event>
<event>
 4    1  0.5387486E-005  0.4015415E+03  0.7818608E-02  0.1043247E+00
         -2   -1    0    0    0  501 -0.00000000000E+00  0.00000000000E+00  0.22882505966E+02  0.22882506109E+02  0.25500000000E-02 0. -1.
          2   -1    0    0  501    0  0.00000000000E+00 -0.00000000000E+00 -0.17615594316E+04  0.17615594316E+04  0.25500000000E-02 0.  1.
    5000001    1    1    2    0    0 -0.30654861263E+02  0.10509058155E+03 -0.10167381793E+04  0.10358403719E+04  0.16500000000E+03 0.  0.
   -5000001    1    1    2    0    0  0.30654861263E+02 -0.10509058155E+03 -0.72193874635E+03  0.74860156581E+03  0.16500000000E+03 0.  0.
<mgrwt>
<rscale>  0 0.40154150E+03</rscale>
<asrwt>0</asrwt>
<pdfrwt beam="1">  1        2 0.25165126E+00 0.40154150E+03</pdfrwt>
<pdfrwt beam="2">  1       -2 0.32689306E-02 0.40154150E+03</pdfrwt>
<totfact> 0.43073088E+03</totfact>
</mgrwt>
</event>
<event>
 4    1  0.5387486E-005  0.4294731E+03  0.7818608E-02  0.1034027E+00
         -2   -1    0    0    0  501 -0.00000000000E+00  0.00000000000E+00  0.50231752186E+02  0.50231752250E+02  0.25500000000E-02 0. -1.
          2   -1    0    0  501    0  0.00000000000E+00 -0.00000000000E+00 -0.91798086486E+03  0.91798086486E+03  0.25500000000E-02 0.  1.
    5000001    1    1    2    0    0  0.10200314765E+03  0.88529603764E+02 -0.49111437709E+03  0.53540682126E+03  0.16500000000E+03 0.  0.
   -5000001    1    1    2    0    0 -0.10200314765E+03 -0.88529603764E+02 -0.37663473558E+03  0.43280579585E+03  0.16500000000E+03 0.  0.
<mgrwt>
<rscale>  0 0.42947311E+03</rscale>
<asrwt>0</asrwt>
<pdfrwt beam="1">  1        2 0.13114011E+00 0.42947311E+03</pdfrwt>
<pdfrwt beam="2">  1       -2 0.71759652E-02 0.42947311E+03</pdfrwt>
<totfact> 0.36842370E+03</totfact>
</mgrwt>
</event>
<event>
 4    1  0.5387486E-005  0.4208553E+03  0.7818608E-02  0.1036788E+00
          2   -1    0    0  501    0  0.00000000000E+00  0.00000000000E+00  0.46373276283E+02  0.46373276353E+02  0.25500000000E-02 0.  1.
         -2   -1    0    0    0  501 -0.00000000000E+00 -0.00000000000E+00 -0.95485566442E+03  0.95485566442E+03  0.25500000000E-02 0. -1.
    5000001    1    1    2    0    0  0.28477547937E+02  0.12724752848E+03 -0.43710532215E+03  0.48506594077E+03  0.16500000000E+03 0.  0.
   -5000001    1    1    2    0    0 -0.28477547937E+02 -0.12724752848E+03 -0.47137706598E+03  0.51616300001E+03  0.16500000000E+03 0.  0.
<mgrwt>
<rscale>  0 0.42085525E+03</rscale>
<asrwt>0</asrwt>
<pdfrwt beam="1">  1        2 0.66247544E-02 0.42085525E+03</pdfrwt>
<pdfrwt beam="2">  1       -2 0.13640794E+00 0.42085525E+03</pdfrwt>
<totfact> 0.44106392E+02</totfact>
</mgrwt>
</event>
<event>
 4    1  0.5387486E-005  0.4256157E+03  0.7818608E-02  0.1035254E+00
          2   -1    0    0  501    0  0.00000000000E+00  0.00000000000E+00  0.50480505830E+03  0.50480505831E+03  0.25500000000E-02 0.  1.
         -2   -1    0    0    0  501 -0.00000000000E+00 -0.00000000000E+00 -0.89712200315E+02  0.89712200351E+02  0.25500000000E-02 0. -1.
    5000001    1    1    2    0    0 -0.76406111445E+02  0.22019715839E+02  0.56200753104E+02  0.19158884728E+03  0.16500000000E+03 0.  0.
   -5000001    1    1    2    0    0  0.76406111445E+02 -0.22019715839E+02  0.35889210489E+03  0.40292841138E+03  0.16500000000E+03 0.  0.
<mgrwt>
<rscale>  0 0.42561566E+03</rscale>
<asrwt>0</asrwt>
<pdfrwt beam="1">  1        2 0.72115013E-01 0.42561566E+03</pdfrwt>
<pdfrwt beam="2">  1       -2 0.12816028E-01 0.42561566E+03</pdfrwt>
<totfact> 0.29947221E+03</totfact>
</mgrwt>
</event>
<event>
 4    1  0.5387486E-005  0.5077175E+03  0.7818608E-02  0.1011784E+00
          2   -1    0    0  501    0  0.00000000000E+00  0.00000000000E+00  0.25047894583E+04  0.25047894583E+04  0.25500000000E-02 0.  1.
         -2   -1    0    0    0  501 -0.00000000000E+00 -0.00000000000E+00 -0.25728412424E+02  0.25728412550E+02  0.25500000000E-02 0. -1.
    5000001    1    1    2    0    0  0.34315961732E+02  0.12821238683E+03  0.19373633565E+04  0.19489016847E+04  0.16500000000E+03 0.  0.
   -5000001    1    1    2    0    0 -0.34315961732E+02 -0.12821238683E+03  0.54169768940E+03  0.58161618621E+03  0.16500000000E+03 0.  0.
<mgrwt>
<rscale>  0 0.50771747E+03</rscale>
<asrwt>0</asrwt>
<pdfrwt beam="1">  1        2 0.35782702E+00 0.50771747E+03</pdfrwt>
<pdfrwt beam="2">  1       -2 0.36754880E-02 0.50771747E+03</pdfrwt>
<totfact> 0.15258091E+03</totfact>
</mgrwt>
</event>
<event>
 4    1  0.5387486E-005  0.8300391E+03  0.7818608E-02  0.9517526E-01
          2   -1    0    0  501    0  0.00000000000E+00  0.00000000000E+00  0.25989516930E+03  0.25989516931E+03  0.25500000000E-02 0.  1.
         -2   -1    0    0    0  501 -0.00000000000E+00 -0.00000000000E+00 -0.66273343029E+03  0.66273343030E+03  0.25500000000E-02 0. -1.
    5000001    1    1    2    0    0  0.24555037828E+03  0.24934454117E+03 -0.36833109852E+03  0.53419143256E+03  0.16500000000E+03 0.  0.
   -5000001    1    1    2    0    0 -0.24555037828E+03 -0.24934454117E+03 -0.34507162478E+02  0.38843716705E+03  0.16500000000E+03 0.  0.
<mgrwt>
<rscale>  0 0.83003908E+03</rscale>
<asrwt>0</asrwt>
<pdfrwt beam="1">  1        2 0.37127882E-01 0.83003908E+03</pdfrwt>
<pdfrwt beam="2">  1       -2 0.94676204E-01 0.83003908E+03</pdfrwt>
<totfact> 0.13234368E+02</totfact>
</mgrwt>
</event>
<event>
 4    1  0.5387486E-005  0.1249554E+04  0.7818608E-02  0.9070555E-01
         -2   -1    0    0    0  501 -0.00000000000E+00  0.00000000000E+00  0.40545200736E+03  0.40545200737E+03  0.25500000000E-02 0. -1.
          2   -1    0    0  501    0  0.00000000000E+00 -0.00000000000E+00 -0.96274324967E+03  0.96274324968E+03  0.25500000000E-02 0.  1.
    5000001    1    1    2    0    0  0.60126283338E+03  0.77477896286E+00 -0.32249258486E+03  0.70195730809E+03  0.16500000000E+03 0.  0.
   -5000001    1    1    2    0    0 -0.60126283338E+03 -0.77477896286E+00 -0.23479865745E+03  0.66623794895E+03  0.16500000000E+03 0.  0.
<mgrwt>
<rscale>  0 0.12495538E+04</rscale>
<asrwt>0</asrwt>
<pdfrwt beam="1">  1        2 0.13753475E+00 0.12495538E+04</pdfrwt>
<pdfrwt beam="2">  1       -2 0.57921716E-01 0.12495538E+04</pdfrwt>
<totfact> 0.81370334E+01</totfact>
</mgrwt>
</event>
<event>
 4    1  0.5387486E-005  0.7220444E+03  0.7818608E-02  0.9680259E-01
         -2   -1    0    0    0  501 -0.00000000000E+00  0.00000000000E+00  0.42488880891E+03  0.42488880892E+03  0.25500000000E-02 0. -1.
          2   -1    0    0  501    0  0.00000000000E+00 -0.00000000000E+00 -0.30675563533E+03  0.30675563535E+03  0.25500000000E-02 0.  1.
    5000001    1    1    2    0    0  0.46037978765E+02 -0.22719008609E+03  0.28423082646E+03  0.40217781318E+03  0.16500000000E+03 0.  0.
   -5000001    1    1    2    0    0 -0.46037978765E+02  0.22719008609E+03 -0.16609765288E+03  0.32946663108E+03  0.16500000000E+03 0.  0.
<mgrwt>
<rscale>  0 0.72204442E+03</rscale>
<asrwt>0</asrwt>
<pdfrwt beam="1">  1        2 0.43822234E-01 0.72204442E+03</pdfrwt>
<pdfrwt beam="2">  1       -2 0.60698401E-01 0.72204442E+03</pdfrwt>
<totfact> 0.29655271E+02</totfact>
</mgrwt>
</event>
<event>
 4    1  0.5387486E-005  0.3783749E+03  0.7818608E-02  0.1051536E+00
          2   -1    0    0  501    0  0.00000000000E+00  0.00000000000E+00  0.19325376609E+04  0.19325376609E+04  0.25500000000E-02 0.  1.
         -2   -1    0    0    0  501 -0.00000000000E+00 -0.00000000000E+00 -0.18520667834E+02  0.18520668009E+02  0.25500000000E-02 0. -1.
    5000001    1    1    2    0    0  0.11406378528E+02 -0.58812816691E+02  0.59320387017E+03  0.61863146094E+03  0.16500000000E+03 0.  0.
   -5000001    1    1    2    0    0 -0.11406378528E+02  0.58812816691E+02  0.13208131229E+04  0.13324268679E+04  0.16500000000E+03 0.  0.
<mgrwt>
<rscale>  0 0.37837488E+03</rscale>
<asrwt>0</asrwt>
<pdfrwt beam="1">  1        2 0.27607654E+00 0.37837488E+03</pdfrwt>
<pdfrwt beam="2">  1       -2 0.26458123E-02 0.37837488E+03</pdfrwt>
<totfact> 0.48695225E+03</totfact>
</mgrwt>
</event>
<event>
 4    1  0.5387486E-005  0.4922116E+03  0.7818608E-02  0.1015832E+00
         -2   -1    0    0    0  501 -0.00000000000E+00  0.00000000000E+00  0.24598016951E+02  0.24598017084E+02  0.25500000000E-02 0. -1.
          2   -1    0    0  501    0  0.00000000000E+00 -0.00000000000E+00 -0.24623147091E+04  0.24623147091E+04  0.25500000000E-02 0.  1.
    5000001    1    1    2    0    0  0.13681825899E+02  0.14533769048E+03 -0.66462522539E+03  0.70018706561E+03  0.16500000000E+03 0.  0.
   -5000001    1    1    2    0    0 -0.13681825899E+02 -0.14533769048E+03 -0.17730914667E+04  0.17867256605E+04  0.16500000000E+03 0.  0.
<mgrwt>
<rscale>  0 0.49221158E+03</rscale>
<asrwt>0</asrwt>
<pdfrwt beam="1">  1        2 0.35175909E+00 0.49221158E+03</pdfrwt>
<pdfrwt beam="2">  1       -2 0.35140040E-02 0.49221158E+03</pdfrwt>
<totfact> 0.17190530E+03</totfact>
</mgrwt>
</event>
<event>
 4    1  0.5387486E-005  0.6854279E+03  0.7818608E-02  0.9742482E-01
         -2   -1    0    0    0  501 -0.00000000000E+00  0.00000000000E+00  0.54167719643E+02  0.54167719703E+02  0.25500000000E-02 0. -1.
          2   -1    0    0  501    0  0.00000000000E+00 -0.00000000000E+00 -0.21683184322E+04  0.21683184322E+04  0.25500000000E-02 0.  1.
    5000001    1    1    2    0    0 -0.21043400602E+03  0.94464575736E+01 -0.36272910415E+03  0.45074284182E+03  0.16500000000E+03 0.  0.
   -5000001    1    1    2    0    0  0.21043400602E+03 -0.94464575736E+01 -0.17514216084E+04  0.17717433101E+04  0.16500000000E+03 0.  0.
<mgrwt>
<rscale>  0 0.68542794E+03</rscale>
<asrwt>0</asrwt>
<pdfrwt beam="1">  1        2 0.30975972E+00 0.68542794E+03</pdfrwt>
<pdfrwt beam="2">  1       -2 0.77382470E-02 0.68542794E+03</pdfrwt>
<totfact> 0.70073222E+02</totfact>
</mgrwt>
</event>
<event>
 4    1  0.5387486E-005  0.5674899E+03  0.7818608E-02  0.9975249E-01
          2   -1    0    0  501    0  0.00000000000E+00  0.00000000000E+00  0.17463353443E+03  0.17463353445E+03  0.25500000000E-02 0.  1.
         -2   -1    0    0    0  501 -0.00000000000E+00 -0.00000000000E+00 -0.46102944077E+03  0.46102944078E+03  0.25500000000E-02 0. -1.
    5000001    1    1    2    0    0  0.20721207239E+03 -0.90146362644E+02 -0.19601056298E+03  0.34162603888E+03  0.16500000000E+03 0.  0.
   -5000001    1    1    2    0    0 -0.20721207239E+03  0.90146362644E+02 -0.90385343353E+02  0.29403693635E+03  0.16500000000E+03 0.  0.
<mgrwt>
<rscale>  0 0.56748991E+03</rscale>
<asrwt>0</asrwt>
<pdfrwt beam="1">  1        2 0.24947648E-01 0.56748991E+03</pdfrwt>
<pdfrwt beam="2">  1       -2 0.65861348E-01 0.56748991E+03</pdfrwt>
<totfact> 0.47025815E+02</totfact>
</mgrwt>
</event>
<event>
 4    1  0.5387486E-005  0.5100264E+03  0.7818608E-02  0.1011195E+00
          2   -1    0    0  501    0  0.00000000000E+00  0.00000000000E+00  0.64757340670E+02  0.64757340720E+02  0.25500000000E-02 0.  1.
         -2   -1    0    0    0  501 -0.00000000000E+00 -0.00000000000E+00 -0.10042370557E+04  0.10042370557E+04  0.25500000000E-02 0. -1.
    5000001    1    1    2    0    0 -0.85123763871E+02 -0.33475474397E+02 -0.11011297866E+03  0.21844113768E+03  0.16500000000E+03 0.  0.
   -5000001    1    1    2    0    0  0.85123763871E+02  0.33475474397E+02 -0.82936673633E+03  0.85055325871E+03  0.16500000000E+03 0.  0.
<mgrwt>
<rscale>  0 0.51002636E+03</rscale>
<asrwt>0</asrwt>
<pdfrwt beam="1">  1        2 0.92510493E-02 0.51002636E+03</pdfrwt>
<pdfrwt beam="2">  1       -2 0.14346243E+00 0.51002636E+03</pdfrwt>
<totfact> 0.25135265E+02</totfact>
</mgrwt>
</event>
<event>
 4    1  0.5387486E-005  0.5186818E+03  0.7818608E-02  0.1009015E+00
         -2   -1    0    0    0  501 -0.00000000000E+00  0.00000000000E+00  0.73791686182E+02  0.73791686226E+02  0.25500000000E-02 0. -1.
          2   -1    0    0  501    0  0.00000000000E+00 -0.00000000000E+00 -0.91145363672E+03  0.91145363673E+03  0.25500000000E-02 0.  1.
    5000001    1    1    2    0    0 -0.14598945127E+03 -0.76551655265E+02 -0.20342510765E+03  0.30948319862E+03  0.16500000000E+03 0.  0.
   -5000001    1    1    2    0    0  0.14598945127E+03  0.76551655265E+02 -0.63423684289E+03  0.67576212433E+03  0.16500000000E+03 0.  0.
<mgrwt>
<rscale>  0 0.51868179E+03</rscale>
<asrwt>0</asrwt>
<pdfrwt beam="1">  1        2 0.13020766E+00 0.51868179E+03</pdfrwt>
<pdfrwt beam="2">  1       -2 0.10541670E-01 0.51868179E+03</pdfrwt>
<totfact> 0.20154838E+03</totfact>
</mgrwt>
</event>
<event>
 4    1  0.5387486E-005  0.8977816E+03  0.7818608E-02  0.9428359E-01
          2   -1    0    0  501    0  0.00000000000E+00  0.00000000000E+00  0.25783077399E+04  0.25783077399E+04  0.25500000000E-02 0.  1.
         -2   -1    0    0    0  501 -0.00000000000E+00 -0.00000000000E+00 -0.78153182802E+02  0.78153182844E+02  0.25500000000E-02 0. -1.
    5000001    1    1    2    0    0 -0.19849615373E+03  0.59801402571E+01  0.16354041367E+03  0.30562550945E+03  0.16500000000E+03 0.  0.
   -5000001    1    1    2    0    0  0.19849615373E+03 -0.59801402571E+01  0.23366141434E+04  0.23508354132E+04  0.16500000000E+03 0.  0.
<mgrwt>
<rscale>  0 0.89778161E+03</rscale>
<asrwt>0</asrwt>
<pdfrwt beam="1">  1        2 0.36832959E+00 0.89778161E+03</pdfrwt>
<pdfrwt beam="2">  1       -2 0.11164743E-01 0.89778161E+03</pdfrwt>
<totfact> 0.23456173E+02</totfact>
</mgrwt>
</event>
<event>
 4    1  0.5387486E-005  0.4248149E+03  0.7818608E-02  0.1035511E+00
         -2   -1    0    0    0  501 -0.00000000000E+00  0.00000000000E+00  0.10393193623E+03  0.10393193626E+03  0.25500000000E-02 0. -1.
          2   -1    0    0  501    0  0.00000000000E+00 -0.00000000000E+00 -0.43410058836E+03  0.43410058837E+03  0.25500000000E-02 0.  1.
    5000001    1    1    2    0    0 -0.46703089366E+02  0.11907964878E+03 -0.11553197253E+03  0.23860800068E+03  0.16500000000E+03 0.  0.
   -5000001    1    1    2    0    0  0.46703089366E+02 -0.11907964878E+03 -0.21463667960E+03  0.29942452395E+03  0.16500000000E+03 0.  0.
<mgrwt>
<rscale>  0 0.42481485E+03</rscale>
<asrwt>0</asrwt>
<pdfrwt beam="1">  1        2 0.62014369E-01 0.42481485E+03</pdfrwt>
<pdfrwt beam="2">  1       -2 0.14847420E-01 0.42481485E+03</pdfrwt>
<totfact> 0.27773347E+03</totfact>
</mgrwt>
</event>
<event>
 4    1  0.5387486E-005  0.4174542E+03  0.7818608E-02  0.1037898E+00
          2   -1    0    0  501    0  0.00000000000E+00  0.00000000000E+00  0.10339702287E+04  0.10339702288E+04  0.25500000000E-02 0.  1.
         -2   -1    0    0    0  501 -0.00000000000E+00 -0.00000000000E+00 -0.42135649481E+02  0.42135649558E+02  0.25500000000E-02 0. -1.
    5000001    1    1    2    0    0  0.69475699797E+02 -0.57659748921E+02  0.26262465654E+03  0.32302976602E+03  0.16500000000E+03 0.  0.
   -5000001    1    1    2    0    0 -0.69475699797E+02  0.57659748921E+02  0.72920992272E+03  0.75307611229E+03  0.16500000000E+03 0.  0.
<mgrwt>
<rscale>  0 0.41745422E+03</rscale>
<asrwt>0</asrwt>
<pdfrwt beam="1">  1        2 0.14771005E+00 0.41745422E+03</pdfrwt>
<pdfrwt beam="2">  1       -2 0.60193780E-02 0.41745422E+03</pdfrwt>
<totfact> 0.41181029E+03</totfact>
</mgrwt>
</event>
<event>
 4    1  0.5387486E-005  0.6217835E+03  0.7818608E-02  0.9861215E-01
          2   -1    0    0  501    0  0.00000000000E+00  0.00000000000E+00  0.12400786789E+03  0.12400786791E+03  0.25500000000E-02 0.  1.
         -2   -1    0    0    0  501 -0.00000000000E+00 -0.00000000000E+00 -0.77941572412E+03  0.77941572413E+03  0.25500000000E-02 0. -1.
    5000001    1    1    2    0    0 -0.17085821836E+03 -0.19296806270E+03 -0.24812921499E+03  0.39398262822E+03  0.16500000000E+03 0.  0.
   -5000001    1    1    2    0    0  0.17085821836E+03  0.19296806270E+03 -0.40727864125E+03  0.50944096382E+03  0.16500000000E+03 0.  0.
<mgrwt>
<rscale>  0 0.62178351E+03</rscale>
<asrwt>0</asrwt>
<pdfrwt beam="1">  1        2 0.17715410E-01 0.62178351E+03</pdfrwt>
<pdfrwt beam="2">  1       -2 0.11134510E+00 0.62178351E+03</pdfrwt>
<totfact> 0.21185982E+02</totfact>
</mgrwt>
</event>
<event>
 4    1  0.5387486E-005  0.9627566E+03  0.7818608E-02  0.9350363E-01
          2   -1    0    0  501    0  0.00000000000E+00  0.00000000000E+00  0.94793711237E+03  0.94793711237E+03  0.25500000000E-02 0. -1.
         -2   -1    0    0    0  501 -0.00000000000E+00 -0.00000000000E+00 -0.24445193837E+03  0.24445193838E+03  0.25500000000E-02 0.  1.
    5000001    1    1    2    0    0  0.18800238134E+03 -0.37459716134E+03  0.56204288402E+03  0.72026740322E+03  0.16500000000E+03 0.  0.
   -5000001    1    1    2    0    0 -0.18800238134E+03  0.37459716134E+03  0.14144228998E+03  0.47212164753E+03  0.16500000000E+03 0.  0.
<mgrwt>
<rscale>  0 0.96275659E+03</rscale>
<asrwt>0</asrwt>
<pdfrwt beam="1">  1        2 0.13541959E+00 0.96275659E+03</pdfrwt>
<pdfrwt beam="2">  1       -2 0.34921705E-01 0.96275659E+03</pdfrwt>
<totfact> 0.23245970E+02</totfact>
</mgrwt>
</event>
<event>
 4    1  0.5387486E-005  0.4297167E+03  0.7818608E-02  0.1033950E+00
         -2   -1    0    0    0  501 -0.00000000000E+00  0.00000000000E+00  0.16728891590E+02  0.16728891784E+02  0.25500000000E-02 0. -1.
          2   -1    0    0  501    0  0.00000000000E+00 -0.00000000000E+00 -0.27595435948E+04  0.27595435948E+04  0.25500000000E-02 0.  1.
    5000001    1    1    2    0    0 -0.30774398839E+02 -0.13082009266E+03 -0.15628607827E+04  0.15772824054E+04  0.16500000000E+03 0.  0.
   -5000001    1    1    2    0    0  0.30774398839E+02  0.13082009266E+03 -0.11799539205E+04  0.11989900812E+04  0.16500000000E+03 0.  0.
<mgrwt>
<rscale>  0 0.42971668E+03</rscale>
<asrwt>0</asrwt>
<pdfrwt beam="1">  1        2 0.39422022E+00 0.42971668E+03</pdfrwt>
<pdfrwt beam="2">  1       -2 0.23898434E-02 0.42971668E+03</pdfrwt>
<totfact> 0.21724625E+03</totfact>
</mgrwt>
</event>
<event>
 4    1  0.5387486E-005  0.5611723E+03  0.7818608E-02  0.9989405E-01
          2   -1    0    0  501    0  0.00000000000E+00  0.00000000000E+00  0.20676312740E+04  0.20676312740E+04  0.25500000000E-02 0.  1.
         -2   -1    0    0    0  501 -0.00000000000E+00 -0.00000000000E+00 -0.38076711439E+02  0.38076711524E+02  0.25500000000E-02 0. -1.
    5000001    1    1    2    0    0 -0.22679081564E+03  0.78569343638E+01  0.10252529561E+04  0.10629508123E+04  0.16500000000E+03 0.  0.
   -5000001    1    1    2    0    0  0.22679081564E+03 -0.78569343638E+01  0.10043016065E+04  0.10427571732E+04  0.16500000000E+03 0.  0.
<mgrwt>
<rscale>  0 0.56117234E+03</rscale>
<asrwt>0</asrwt>
<pdfrwt beam="1">  1        2 0.29537585E+00 0.56117234E+03</pdfrwt>
<pdfrwt beam="2">  1       -2 0.54395310E-02 0.56117234E+03</pdfrwt>
<totfact> 0.13819562E+03</totfact>
</mgrwt>
</event>
<event>
 4    1  0.5387486E-005  0.7234428E+03  0.7818608E-02  0.9677961E-01
          2   -1    0    0  501    0  0.00000000000E+00  0.00000000000E+00  0.26714105039E+04  0.26714105039E+04  0.25500000000E-02 0.  1.
         -2   -1    0    0    0  501 -0.00000000000E+00 -0.00000000000E+00 -0.48978762232E+02  0.48978762298E+02  0.25500000000E-02 0. -1.
    5000001    1    1    2    0    0  0.73107934454E+02  0.29290163252E+03  0.89111288464E+03  0.95521898515E+03  0.16500000000E+03 0.  0.
   -5000001    1    1    2    0    0 -0.73107934454E+02 -0.29290163252E+03  0.17313188571E+04  0.17651702811E+04  0.16500000000E+03 0.  0.
<mgrwt>
<rscale>  0 0.72344282E+03</rscale>
<asrwt>0</asrwt>
<pdfrwt beam="1">  1        2 0.38163004E+00 0.72344282E+03</pdfrwt>
<pdfrwt beam="2">  1       -2 0.69969666E-02 0.72344282E+03</pdfrwt>
<totfact> 0.45244437E+02</totfact>
</mgrwt>
</event>
<event>
 4    1  0.5387486E-005  0.4936801E+03  0.7818608E-02  0.1015442E+00
         -2   -1    0    0    0  501 -0.00000000000E+00  0.00000000000E+00  0.10995702830E+02  0.10995703125E+02  0.25500000000E-02 0. -1.
          2   -1    0    0  501    0  0.00000000000E+00 -0.00000000000E+00 -0.55412556607E+04  0.55412556607E+04  0.25500000000E-02 0.  1.
    5000001    1    1    2    0    0  0.15651522202E+03  0.66054918503E+02 -0.19823161019E+04  0.19964123810E+04  0.16500000000E+03 0.  0.
   -5000001    1    1    2    0    0 -0.15651522202E+03 -0.66054918503E+02 -0.35479438559E+04  0.35558389828E+04  0.16500000000E+03 0.  0.
<mgrwt>
<rscale>  0 0.49368006E+03</rscale>
<asrwt>0</asrwt>
<pdfrwt beam="1">  1        2 0.79160616E+00 0.49368006E+03</pdfrwt>
<pdfrwt beam="2">  1       -2 0.15708183E-02 0.49368006E+03</pdfrwt>
<totfact> 0.33520184E+01</totfact>
</mgrwt>
</event>
<event>
 4    1  0.5387486E-005  0.4083138E+03  0.7818608E-02  0.1040938E+00
         -2   -1    0    0    0  501 -0.00000000000E+00  0.00000000000E+00  0.17285571330E+03  0.17285571332E+03  0.25500000000E-02 0. -1.
          2   -1    0    0  501    0  0.00000000000E+00 -0.00000000000E+00 -0.24112622152E+03  0.24112622153E+03  0.25500000000E-02 0.  1.
    5000001    1    1    2    0    0 -0.89995552955E+02 -0.79702863837E+02 -0.35976773891E+02  0.20729465578E+03  0.16500000000E+03 0.  0.
   -5000001    1    1    2    0    0  0.89995552955E+02  0.79702863837E+02 -0.32293734326E+02  0.20668727908E+03  0.16500000000E+03 0.  0.
<mgrwt>
<rscale>  0 0.40831383E+03</rscale>
<asrwt>0</asrwt>
<pdfrwt beam="1">  1        2 0.34446603E-01 0.40831383E+03</pdfrwt>
<pdfrwt beam="2">  1       -2 0.24693673E-01 0.40831383E+03</pdfrwt>
<totfact> 0.22040992E+03</totfact>
</mgrwt>
</event>
<event>
 4    1  0.5387486E-005  0.6038691E+03  0.7818608E-02  0.9897411E-01
         -2   -1    0    0    0  501 -0.00000000000E+00  0.00000000000E+00  0.63051668993E+03  0.63051668993E+03  0.25500000000E-02 0. -1.
          2   -1    0    0  501    0  0.00000000000E+00 -0.00000000000E+00 -0.14458695279E+03  0.14458695281E+03  0.25500000000E-02 0.  1.
    5000001    1    1    2    0    0 -0.22966618347E+03 -0.26592456736E+02  0.11152801690E+03  0.30515113163E+03  0.16500000000E+03 0.  0.
   -5000001    1    1    2    0    0  0.22966618347E+03  0.26592456736E+02  0.37440172023E+03  0.46995251111E+03  0.16500000000E+03 0.  0.
<mgrwt>
<rscale>  0 0.60386915E+03</rscale>
<asrwt>0</asrwt>
<pdfrwt beam="1">  1        2 0.20655279E-01 0.60386915E+03</pdfrwt>
<pdfrwt beam="2">  1       -2 0.90073812E-01 0.60386915E+03</pdfrwt>
<totfact> 0.29172988E+02</totfact>
</mgrwt>
</event>
<event>
 4    1  0.5387486E-005  0.8237567E+03  0.7818608E-02  0.9526253E-01
          2   -1    0    0  501    0  0.00000000000E+00  0.00000000000E+00  0.35368656280E+04  0.35368656280E+04  0.25500000000E-02 0.  1.
         -2   -1    0    0    0  501 -0.00000000000E+00 -0.00000000000E+00 -0.47964441777E+02  0.47964441845E+02  0.25500000000E-02 0. -1.
    5000001    1    1    2    0    0  0.13107684785E+03  0.35053996114E+03  0.15330682737E+04  0.15866892374E+04  0.16500000000E+03 0.  0.
   -5000001    1    1    2    0    0 -0.13107684785E+03 -0.35053996114E+03  0.19558329126E+04  0.19981408325E+04  0.16500000000E+03 0.  0.
<mgrwt>
<rscale>  0 0.82375673E+03</rscale>
<asrwt>0</asrwt>
<pdfrwt beam="1">  1        2 0.50526639E+00 0.82375673E+03</pdfrwt>
<pdfrwt beam="2">  1       -2 0.68520649E-02 0.82375673E+03</pdfrwt>
<totfact> 0.15194737E+02</totfact>
</mgrwt>
</event>
<event>
 4    1  0.5387486E-005  0.4744240E+03  0.7818608E-02  0.1020679E+00
         -2   -1    0    0    0  501 -0.00000000000E+00  0.00000000000E+00  0.30278885454E+02  0.30278885562E+02  0.25500000000E-02 0. -1.
          2   -1    0    0  501    0  0.00000000000E+00 -0.00000000000E+00 -0.18583752858E+04  0.18583752858E+04  0.25500000000E-02 0.  1.
    5000001    1    1    2    0    0 -0.15687242536E+03 -0.65958761627E+02 -0.95075421650E+03  0.97985616101E+03  0.16500000000E+03 0.  0.
   -5000001    1    1    2    0    0  0.15687242536E+03  0.65958761627E+02 -0.87734218387E+03  0.90879801038E+03  0.16500000000E+03 0.  0.
<mgrwt>
<rscale>  0 0.47442400E+03</rscale>
<asrwt>0</asrwt>
<pdfrwt beam="1">  1        2 0.26548211E+00 0.47442400E+03</pdfrwt>
<pdfrwt beam="2">  1       -2 0.43255563E-02 0.47442400E+03</pdfrwt>
<totfact> 0.25138960E+03</totfact>
</mgrwt>
</event>
<event>
 4    1  0.5387486E-005  0.6947679E+03  0.7818608E-02  0.9726222E-01
         -2   -1    0    0    0  501 -0.00000000000E+00  0.00000000000E+00  0.33782658782E+02  0.33782658878E+02  0.25500000000E-02 0.  1.
          2   -1    0    0  501    0  0.00000000000E+00 -0.00000000000E+00 -0.35721171246E+04  0.35721171246E+04  0.25500000000E-02 0. -1.
    5000001    1    1    2    0    0  0.26278351965E+03  0.30471321890E+02 -0.25642312126E+04  0.25831164108E+04  0.16500000000E+03 0.  0.
   -5000001    1    1    2    0    0 -0.26278351965E+03 -0.30471321890E+02 -0.97410325318E+03  0.10227833727E+04  0.16500000000E+03 0.  0.
<mgrwt>
<rscale>  0 0.69476792E+03</rscale>
<asrwt>0</asrwt>
<pdfrwt beam="1">  1        2 0.51030220E+00 0.69476792E+03</pdfrwt>
<pdfrwt beam="2">  1       -2 0.48260964E-02 0.69476792E+03</pdfrwt>
<totfact> 0.25460108E+02</totfact>
</mgrwt>
</event>
<event>
 4    1  0.5387486E-005  0.6989813E+03  0.7818608E-02  0.9718976E-01
          2   -1    0    0  501    0  0.00000000000E+00  0.00000000000E+00  0.31832114871E+03  0.31832114872E+03  0.25500000000E-02 0.  1.
         -2   -1    0    0    0  501 -0.00000000000E+00 -0.00000000000E+00 -0.38371222016E+03  0.38371222017E+03  0.25500000000E-02 0. -1.
    5000001    1    1    2    0    0  0.20274308448E+03  0.20223401132E+03  0.81446463144E+02  0.34038489978E+03  0.16500000000E+03 0.  0.
   -5000001    1    1    2    0    0 -0.20274308448E+03 -0.20223401132E+03 -0.14683753459E+03  0.36164846910E+03  0.16500000000E+03 0.  0.
<mgrwt>
<rscale>  0 0.69898130E+03</rscale>
<asrwt>0</asrwt>
<pdfrwt beam="1">  1        2 0.45474450E-01 0.69898130E+03</pdfrwt>
<pdfrwt beam="2">  1       -2 0.54816031E-01 0.69898130E+03</pdfrwt>
<totfact> 0.35248666E+02</totfact>
</mgrwt>
</event>
<event>
 4    1  0.5387486E-005  0.5783230E+03  0.7818608E-02  0.9951428E-01
         -2   -1    0    0    0  501 -0.00000000000E+00  0.00000000000E+00  0.72143591513E+02  0.72143591558E+02  0.25500000000E-02 0. -1.
          2   -1    0    0  501    0  0.00000000000E+00 -0.00000000000E+00 -0.11589993557E+04  0.11589993557E+04  0.25500000000E-02 0.  1.
    5000001    1    1    2    0    0  0.16219982086E+03  0.13237871815E+03 -0.78197368349E+03  0.82616024388E+03  0.16500000000E+03 0.  0.
   -5000001    1    1    2    0    0 -0.16219982086E+03 -0.13237871815E+03 -0.30488208071E+03  0.40498270339E+03  0.16500000000E+03 0.  0.
<mgrwt>
<rscale>  0 0.57832301E+03</rscale>
<asrwt>0</asrwt>
<pdfrwt beam="1">  1        2 0.16557133E+00 0.57832301E+03</pdfrwt>
<pdfrwt beam="2">  1       -2 0.10306228E-01 0.57832301E+03</pdfrwt>
<totfact> 0.14850327E+03</totfact>
</mgrwt>
</event>
<event>
 4    1  0.5387486E-005  0.4116441E+03  0.7818608E-02  0.1039821E+00
         -2   -1    0    0    0  501 -0.00000000000E+00  0.00000000000E+00  0.28304547555E+02  0.28304547669E+02  0.25500000000E-02 0. -1.
          2   -1    0    0  501    0  0.00000000000E+00 -0.00000000000E+00 -0.14966754696E+04  0.14966754696E+04  0.25500000000E-02 0.  1.
    5000001    1    1    2    0    0  0.99784138981E+02 -0.69988009357E+02 -0.79645442338E+03  0.82244747210E+03  0.16500000000E+03 0.  0.
   -5000001    1    1    2    0    0 -0.99784138981E+02  0.69988009357E+02 -0.67191649871E+03  0.70253254521E+03  0.16500000000E+03 0.  0.
<mgrwt>
<rscale>  0 0.41164413E+03</rscale>
<asrwt>0</asrwt>
<pdfrwt beam="1">  1        2 0.21381073E+00 0.41164413E+03</pdfrwt>
<pdfrwt beam="2">  1       -2 0.40435078E-02 0.41164413E+03</pdfrwt>
<totfact> 0.42466307E+03</totfact>
</mgrwt>
</event>
<event>
 4    1  0.5387486E-005  0.3761767E+03  0.7818608E-02  0.1052356E+00
          2   -1    0    0  501    0  0.00000000000E+00  0.00000000000E+00  0.24481596226E+04  0.24481596226E+04  0.25500000000E-02 0.  1.
         -2   -1    0    0    0  501 -0.00000000000E+00 -0.00000000000E+00 -0.14450537325E+02  0.14450537550E+02  0.25500000000E-02 0. -1.
    5000001    1    1    2    0    0 -0.33152399930E+02  0.55539324232E+02  0.80445486369E+03  0.82374530400E+03  0.16500000000E+03 0.  0.
   -5000001    1    1    2    0    0  0.33152399930E+02 -0.55539324232E+02  0.16292542215E+04  0.16388648561E+04  0.16500000000E+03 0.  0.
<mgrwt>
<rscale>  0 0.37617667E+03</rscale>
<asrwt>0</asrwt>
<pdfrwt beam="1">  1        2 0.34973694E+00 0.37617667E+03</pdfrwt>
<pdfrwt beam="2">  1       -2 0.20643634E-02 0.37617667E+03</pdfrwt>
<totfact> 0.39114157E+03</totfact>
</mgrwt>
</event>
<event>
 4    1  0.5387486E-005  0.4636040E+03  0.7818608E-02  0.1023741E+00
         -2   -1    0    0    0  501 -0.00000000000E+00  0.00000000000E+00  0.10145502901E+03  0.10145502904E+03  0.25500000000E-02 0.  1.
          2   -1    0    0  501    0  0.00000000000E+00 -0.00000000000E+00 -0.52961559531E+03  0.52961559532E+03  0.25500000000E-02 0. -1.
    5000001    1    1    2    0    0  0.95493060039E+02 -0.13036804064E+03 -0.24104548225E+03  0.33383030876E+03  0.16500000000E+03 0.  0.
   -5000001    1    1    2    0    0 -0.95493060039E+02  0.13036804064E+03 -0.18711508406E+03  0.29724031560E+03  0.16500000000E+03 0.  0.
<mgrwt>
<rscale>  0 0.46360399E+03</rscale>
<asrwt>0</asrwt>
<pdfrwt beam="1">  1        2 0.75659369E-01 0.46360399E+03</pdfrwt>
<pdfrwt beam="2">  1       -2 0.14493576E-01 0.46360399E+03</pdfrwt>
<totfact> 0.23159713E+03</totfact>
</mgrwt>
</event>
<event>
 4    1  0.5387486E-005  0.5258367E+03  0.7818608E-02  0.1007247E+00
          2   -1    0    0  501    0  0.00000000000E+00  0.00000000000E+00  0.13045507261E+04  0.13045507261E+04  0.25500000000E-02 0.  1.
         -2   -1    0    0    0  501 -0.00000000000E+00 -0.00000000000E+00 -0.52988411689E+02  0.52988411750E+02  0.25500000000E-02 0. -1.
    5000001    1    1    2    0    0  0.16411475856E+03 -0.11084134514E+03  0.75947133342E+03  0.80202316927E+03  0.16500000000E+03 0.  0.
   -5000001    1    1    2    0    0 -0.16411475856E+03  0.11084134514E+03  0.49209098100E+03  0.55551596858E+03  0.16500000000E+03 0.  0.
<mgrwt>
<rscale>  0 0.52583675E+03</rscale>
<asrwt>0</asrwt>
<pdfrwt beam="1">  1        2 0.18636438E+00 0.52583675E+03</pdfrwt>
<pdfrwt beam="2">  1       -2 0.75697736E-02 0.52583675E+03</pdfrwt>
<totfact> 0.20250341E+03</totfact>
</mgrwt>
</event>
<event>
 4    1  0.5387486E-005  0.4884450E+03  0.7818608E-02  0.1016840E+00
          2   -1    0    0  501    0  0.00000000000E+00  0.00000000000E+00  0.31060989516E+03  0.31060989517E+03  0.25500000000E-02 0.  1.
         -2   -1    0    0    0  501 -0.00000000000E+00 -0.00000000000E+00 -0.19202427629E+03  0.19202427630E+03  0.25500000000E-02 0. -1.
    5000001    1    1    2    0    0  0.16739272496E+03 -0.65678716873E+02  0.68814833395E+02  0.25356360053E+03  0.16500000000E+03 0.  0.
   -5000001    1    1    2    0    0 -0.16739272496E+03  0.65678716873E+02  0.49770785478E+02  0.24907057094E+03  0.16500000000E+03 0.  0.
<mgrwt>
<rscale>  0 0.48844504E+03</rscale>
<asrwt>0</asrwt>
<pdfrwt beam="1">  1        2 0.44372842E-01 0.48844504E+03</pdfrwt>
<pdfrwt beam="2">  1       -2 0.27432040E-01 0.48844504E+03</pdfrwt>
<totfact> 0.13843276E+03</totfact>
</mgrwt>
</event>
<event>
 4    1  0.5387486E-005  0.5022310E+03  0.7818608E-02  0.1013198E+00
          2   -1    0    0  501    0  0.00000000000E+00  0.00000000000E+00  0.19895502861E+02  0.19895503024E+02  0.25500000000E-02 0. -1.
         -2   -1    0    0    0  501 -0.00000000000E+00 -0.00000000000E+00 -0.31695102112E+04  0.31695102112E+04  0.25500000000E-02 0.  1.
    5000001    1    1    2    0    0  0.31201260429E+02  0.97806439082E+02 -0.25848001274E+04  0.25920949668E+04  0.16500000000E+03 0.  0.
   -5000001    1    1    2    0    0 -0.31201260429E+02 -0.97806439082E+02 -0.56481458097E+03  0.59731074748E+03  0.16500000000E+03 0.  0.
<mgrwt>
<rscale>  0 0.50223102E+03</rscale>
<asrwt>0</asrwt>
<pdfrwt beam="1">  1        2 0.28422167E-02 0.50223102E+03</pdfrwt>
<pdfrwt beam="2">  1       -2 0.45278685E+00 0.50223102E+03</pdfrwt>
<totfact> 0.13233779E+01</totfact>
</mgrwt>
</event>
<event>
 4    1  0.5387486E-005  0.3725585E+03  0.7818608E-02  0.1053719E+00
         -2   -1    0    0    0  501 -0.00000000000E+00  0.00000000000E+00  0.51859600075E+03  0.51859600075E+03  0.25500000000E-02 0. -1.
          2   -1    0    0  501    0  0.00000000000E+00 -0.00000000000E+00 -0.66911360236E+02  0.66911360285E+02  0.25500000000E-02 0.  1.
    5000001    1    1    2    0    0 -0.64093694757E+02 -0.18481603119E+02  0.13939954251E+03  0.22606813976E+03  0.16500000000E+03 0.  0.
   -5000001    1    1    2    0    0  0.64093694757E+02  0.18481603119E+02  0.31228509800E+03  0.35943922128E+03  0.16500000000E+03 0.  0.
<mgrwt>
<rscale>  0 0.37255853E+03</rscale>
<asrwt>0</asrwt>
<pdfrwt beam="1">  1        2 0.95587655E-02 0.37255853E+03</pdfrwt>
<pdfrwt beam="2">  1       -2 0.74085145E-01 0.37255853E+03</pdfrwt>
<totfact> 0.11519234E+03</totfact>
</mgrwt>
</event>
<event>
 4    1  0.5387486E-005  0.3999001E+03  0.7818608E-02  0.1043814E+00
          2   -1    0    0  501    0  0.00000000000E+00  0.00000000000E+00  0.15136076730E+03  0.15136076732E+03  0.25500000000E-02 0.  1.
         -2   -1    0    0    0  501 -0.00000000000E+00 -0.00000000000E+00 -0.26413724634E+03  0.26413724636E+03  0.25500000000E-02 0. -1.
    5000001    1    1    2    0    0 -0.88060254932E+02  0.11133376415E+02 -0.12894361857E+03  0.22744233849E+03  0.16500000000E+03 0.  0.
   -5000001    1    1    2    0    0  0.88060254932E+02 -0.11133376415E+02  0.16167139519E+02  0.18805567519E+03  0.16500000000E+03 0.  0.
<mgrwt>
<rscale>  0 0.39990007E+03</rscale>
<asrwt>0</asrwt>
<pdfrwt beam="1">  1        2 0.21622967E-01 0.39990007E+03</pdfrwt>
<pdfrwt beam="2">  1       -2 0.37733892E-01 0.39990007E+03</pdfrwt>
<totfact> 0.17040525E+03</totfact>
</mgrwt>
</event>
<event>
 4    1  0.5387486E-005  0.5744758E+03  0.7818608E-02  0.9959823E-01
         -2   -1    0    0    0  501 -0.00000000000E+00  0.00000000000E+00  0.18142685080E+03  0.18142685082E+03  0.25500000000E-02 0. -1.
          2   -1    0    0  501    0  0.00000000000E+00 -0.00000000000E+00 -0.45475959292E+03  0.45475959293E+03  0.25500000000E-02 0.  1.
    5000001    1    1    2    0    0  0.22251533047E+03  0.31697832333E+02 -0.21309266063E+03  0.35092920494E+03  0.16500000000E+03 0.  0.
   -5000001    1    1    2    0    0 -0.22251533047E+03 -0.31697832333E+02 -0.60240081495E+02  0.28525723880E+03  0.16500000000E+03 0.  0.
<mgrwt>
<rscale>  0 0.57447576E+03</rscale>
<asrwt>0</asrwt>
<pdfrwt beam="1">  1        2 0.64965656E-01 0.57447576E+03</pdfrwt>
<pdfrwt beam="2">  1       -2 0.25918122E-01 0.57447576E+03</pdfrwt>
<totfact> 0.10062712E+03</totfact>
</mgrwt>
</event>
<event>
 4    1  0.5387486E-005  0.6396788E+03  0.7818608E-02  0.9826341E-01
         -2   -1    0    0    0  501 -0.00000000000E+00  0.00000000000E+00  0.79614870205E+02  0.79614870245E+02  0.25500000000E-02 0. -1.
          2   -1    0    0  501    0  0.00000000000E+00 -0.00000000000E+00 -0.12849010996E+04  0.12849010996E+04  0.25500000000E-02 0.  1.
    5000001    1    1    2    0    0 -0.20590803093E+03  0.11738655107E+02 -0.98741284916E+03  0.10221277063E+04  0.16500000000E+03 0.  0.
   -5000001    1    1    2    0    0  0.20590803093E+03 -0.11738655107E+02 -0.21787338025E+03  0.34238826359E+03  0.16500000000E+03 0.  0.
<mgrwt>
<rscale>  0 0.63967878E+03</rscale>
<asrwt>0</asrwt>
<pdfrwt beam="1">  1        2 0.18355729E+00 0.63967878E+03</pdfrwt>
<pdfrwt beam="2">  1       -2 0.11373554E-01 0.63967878E+03</pdfrwt>
<totfact> 0.10740267E+03</totfact>
</mgrwt>
</event>
<event>
 4    1  0.5387486E-005  0.8164036E+03  0.7818608E-02  0.9536572E-01
          2   -1    0    0  501    0  0.00000000000E+00  0.00000000000E+00  0.22181163496E+04  0.22181163496E+04  0.25500000000E-02 0.  1.
         -2   -1    0    0    0  501 -0.00000000000E+00 -0.00000000000E+00 -0.75121711343E+02  0.75121711386E+02  0.25500000000E-02 0. -1.
    5000001    1    1    2    0    0  0.35776507552E+03  0.60414735940E+02  0.82408773400E+03  0.91541869268E+03  0.16500000000E+03 0.  0.
   -5000001    1    1    2    0    0 -0.35776507552E+03 -0.60414735940E+02  0.13189069042E+04  0.13778193683E+04  0.16500000000E+03 0.  0.
<mgrwt>
<rscale>  0 0.81640357E+03</rscale>
<asrwt>0</asrwt>
<pdfrwt beam="1">  1        2 0.31687373E+00 0.81640357E+03</pdfrwt>
<pdfrwt beam="2">  1       -2 0.10731674E-01 0.81640357E+03</pdfrwt>
<totfact> 0.38618769E+02</totfact>
</mgrwt>
</event>
<event>
 4    1  0.5387486E-005  0.3629380E+03  0.7818608E-02  0.1057427E+00
          2   -1    0    0  501    0  0.00000000000E+00  0.00000000000E+00  0.27104508633E+04  0.27104508633E+04  0.25500000000E-02 0.  1.
         -2   -1    0    0    0  501 -0.00000000000E+00 -0.00000000000E+00 -0.12149637449E+02  0.12149637717E+02  0.25500000000E-02 0. -1.
    5000001    1    1    2    0    0 -0.34300530312E+02 -0.63264696932E+02  0.11769334860E+04  0.11906201656E+04  0.16500000000E+03 0.  0.
   -5000001    1    1    2    0    0  0.34300530312E+02  0.63264696932E+02  0.15213677398E+04  0.15319803354E+04  0.16500000000E+03 0.  0.
<mgrwt>
<rscale>  0 0.36293799E+03</rscale>
<asrwt>0</asrwt>
<pdfrwt beam="1">  1        2 0.38720777E+00 0.36293799E+03</pdfrwt>
<pdfrwt beam="2">  1       -2 0.17356602E-02 0.36293799E+03</pdfrwt>
<totfact> 0.37227183E+03</totfact>
</mgrwt>
</event>
<event>
 4    1  0.5387486E-005  0.3935571E+03  0.7818608E-02  0.1046034E+00
          2   -1    0    0  501    0  0.00000000000E+00  0.00000000000E+00  0.10567144215E+04  0.10567144215E+04  0.25500000000E-02 0.  1.
         -2   -1    0    0    0  501 -0.00000000000E+00 -0.00000000000E+00 -0.36643571275E+02  0.36643571364E+02  0.25500000000E-02 0. -1.
    5000001    1    1    2    0    0 -0.25866256679E+02  0.95370848321E+02  0.39441229922E+03  0.43880602060E+03  0.16500000000E+03 0.  0.
   -5000001    1    1    2    0    0  0.25866256679E+02 -0.95370848321E+02  0.62565855101E+03  0.65455197226E+03  0.16500000000E+03 0.  0.
<mgrwt>
<rscale>  0 0.39355706E+03</rscale>
<asrwt>0</asrwt>
<pdfrwt beam="1">  1        2 0.15095921E+00 0.39355706E+03</pdfrwt>
<pdfrwt beam="2">  1       -2 0.52347957E-02 0.39355706E+03</pdfrwt>
<totfact> 0.49519259E+03</totfact>
</mgrwt>
</event>
<event>
 4    1  0.5387486E-005  0.3575251E+03  0.7818608E-02  0.1059568E+00
         -2   -1    0    0    0  501 -0.00000000000E+00  0.00000000000E+00  0.13753008190E+03  0.13753008193E+03  0.25500000000E-02 0. -1.
          2   -1    0    0  501    0  0.00000000000E+00 -0.00000000000E+00 -0.23235679486E+03  0.23235679487E+03  0.25500000000E-02 0.  1.
    5000001    1    1    2    0    0 -0.54080321797E+02  0.20564064070E+02 -0.85894675047E+02  0.19480877069E+03  0.16500000000E+03 0.  0.
   -5000001    1    1    2    0    0  0.54080321797E+02 -0.20564064070E+02 -0.89320379081E+01  0.17507810611E+03  0.16500000000E+03 0.  0.
<mgrwt>
<rscale>  0 0.35752510E+03</rscale>
<asrwt>0</asrwt>
<pdfrwt beam="1">  1        2 0.33193828E-01 0.35752510E+03</pdfrwt>
<pdfrwt beam="2">  1       -2 0.19647155E-01 0.35752510E+03</pdfrwt>
<totfact> 0.34140941E+03</totfact>
</mgrwt>
</event>
<event>
 4    1  0.5387486E-005  0.7688511E+03  0.7818608E-02  0.9606232E-01
          2   -1    0    0  501    0  0.00000000000E+00  0.00000000000E+00  0.64598737319E+03  0.64598737320E+03  0.25500000000E-02 0.  1.
         -2   -1    0    0    0  501 -0.00000000000E+00 -0.00000000000E+00 -0.22877070636E+03  0.22877070637E+03  0.25500000000E-02 0. -1.
    5000001    1    1    2    0    0  0.11970553484E+03  0.27784235035E+03  0.14749441370E+02  0.34491786376E+03  0.16500000000E+03 0.  0.
   -5000001    1    1    2    0    0 -0.11970553484E+03 -0.27784235035E+03  0.40246722547E+03  0.52984021581E+03  0.16500000000E+03 0.  0.
<mgrwt>
<rscale>  0 0.76885106E+03</rscale>
<asrwt>0</asrwt>
<pdfrwt beam="1">  1        2 0.92283910E-01 0.76885106E+03</pdfrwt>
<pdfrwt beam="2">  1       -2 0.32681530E-01 0.76885106E+03</pdfrwt>
<totfact> 0.43517674E+02</totfact>
</mgrwt>
</event>
<event>
 4    1  0.5387486E-005  0.5191466E+03  0.7818608E-02  0.1008899E+00
          2   -1    0    0  501    0  0.00000000000E+00  0.00000000000E+00  0.10999558918E+04  0.10999558918E+04  0.25500000000E-02 0.  1.
         -2   -1    0    0    0  501 -0.00000000000E+00 -0.00000000000E+00 -0.61255461449E+02  0.61255461502E+02  0.25500000000E-02 0. -1.
    5000001    1    1    2    0    0  0.92330646283E+02 -0.14572555444E+03  0.29132672661E+03  0.37663927981E+03  0.16500000000E+03 0.  0.
   -5000001    1    1    2    0    0 -0.92330646283E+02  0.14572555444E+03  0.74737370369E+03  0.78457207345E+03  0.16500000000E+03 0.  0.
<mgrwt>
<rscale>  0 0.51914663E+03</rscale>
<asrwt>0</asrwt>
<pdfrwt beam="1">  1        2 0.15713655E+00 0.51914663E+03</pdfrwt>
<pdfrwt beam="2">  1       -2 0.87507806E-02 0.51914663E+03</pdfrwt>
<totfact> 0.20915027E+03</totfact>
</mgrwt>
</event>
<event>
 4    1  0.5387486E-005  0.3804545E+03  0.7818608E-02  0.1050766E+00
          2   -1    0    0  501    0  0.00000000000E+00  0.00000000000E+00  0.21674922942E+04  0.21674922942E+04  0.25500000000E-02 0.  1.
         -2   -1    0    0    0  501 -0.00000000000E+00 -0.00000000000E+00 -0.16695055865E+02  0.16695056060E+02  0.25500000000E-02 0. -1.
    5000001    1    1    2    0    0  0.58802514686E+02 -0.58949594951E+01  0.65083975605E+03  0.67402512886E+03  0.16500000000E+03 0.  0.
   -5000001    1    1    2    0    0 -0.58802514686E+02  0.58949594951E+01  0.14999574822E+04  0.15101622214E+04  0.16500000000E+03 0.  0.
<mgrwt>
<rscale>  0 0.38045449E+03</rscale>
<asrwt>0</asrwt>
<pdfrwt beam="1">  1        2 0.30964178E+00 0.38045449E+03</pdfrwt>
<pdfrwt beam="2">  1       -2 0.23850078E-02 0.38045449E+03</pdfrwt>
<totfact> 0.43526787E+03</totfact>
</mgrwt>
</event>
<event>
 4    1  0.5387486E-005  0.1402674E+04  0.7818608E-02  0.8951885E-01
         -2   -1    0    0    0  501 -0.00000000000E+00  0.00000000000E+00  0.34061462733E+03  0.34061462734E+03  0.25500000000E-02 0. -1.
          2   -1    0    0  501    0  0.00000000000E+00 -0.00000000000E+00 -0.14440765202E+04  0.14440765202E+04  0.25500000000E-02 0.  1.
    5000001    1    1    2    0    0 -0.41997710472E+03 -0.53647667526E+03 -0.57903741553E+03  0.90922897016E+03  0.16500000000E+03 0.  0.
   -5000001    1    1    2    0    0  0.41997710472E+03  0.53647667526E+03 -0.52442447732E+03  0.87546217737E+03  0.16500000000E+03 0.  0.
<mgrwt>
<rscale>  0 0.14026740E+04</rscale>
<asrwt>0</asrwt>
<pdfrwt beam="1">  1        2 0.20629664E+00 0.14026740E+04</pdfrwt>
<pdfrwt beam="2">  1       -2 0.48659233E-01 0.14026740E+04</pdfrwt>
<totfact> 0.61008124E+01</totfact>
</mgrwt>
</event>
<event>
 4    1  0.5387486E-005  0.1006219E+04  0.7818608E-02  0.9301750E-01
         -2   -1    0    0    0  501 -0.00000000000E+00  0.00000000000E+00  0.36847545840E+03  0.36847545841E+03  0.25500000000E-02 0. -1.
          2   -1    0    0  501    0  0.00000000000E+00 -0.00000000000E+00 -0.68693603483E+03  0.68693603483E+03  0.25500000000E-02 0.  1.
    5000001    1    1    2    0    0 -0.32213634353E+03 -0.23063353459E+01 -0.52576686906E+03  0.63830474196E+03  0.16500000000E+03 0.  0.
   -5000001    1    1    2    0    0  0.32213634353E+03  0.23063353459E+01  0.20730629263E+03  0.41710675129E+03  0.16500000000E+03 0.  0.
<mgrwt>
<rscale>  0 0.10062188E+04</rscale>
<asrwt>0</asrwt>
<pdfrwt beam="1">  1        2 0.98133720E-01 0.10062188E+04</pdfrwt>
<pdfrwt beam="2">  1       -2 0.52639351E-01 0.10062188E+04</pdfrwt>
<totfact> 0.15655592E+02</totfact>
</mgrwt>
</event>
<event>
 4    1  0.5387486E-005  0.6279050E+03  0.7818608E-02  0.9849145E-01
          2   -1    0    0  501    0  0.00000000000E+00  0.00000000000E+00  0.20125091307E+04  0.20125091307E+04  0.25500000000E-02 0.  1.
         -2   -1    0    0    0  501 -0.00000000000E+00 -0.00000000000E+00 -0.48976765002E+02  0.48976765068E+02  0.25500000000E-02 0. -1.
    5000001    1    1    2    0    0  0.26286107812E+03 -0.38960619745E+02  0.89322479237E+03  0.94640868867E+03  0.16500000000E+03 0.  0.
   -5000001    1    1    2    0    0 -0.26286107812E+03  0.38960619745E+02  0.10703075733E+04  0.11150772071E+04  0.16500000000E+03 0.  0.
<mgrwt>
<rscale>  0 0.62790505E+03</rscale>
<asrwt>0</asrwt>
<pdfrwt beam="1">  1        2 0.28750130E+00 0.62790505E+03</pdfrwt>
<pdfrwt beam="2">  1       -2 0.69966808E-02 0.62790505E+03</pdfrwt>
<totfact> 0.98878587E+02</totfact>
</mgrwt>
</event>
<event>
 4    1  0.5387486E-005  0.4064931E+03  0.7818608E-02  0.1041554E+00
          2   -1    0    0  501    0  0.00000000000E+00  0.00000000000E+00  0.89222861171E+03  0.89222861171E+03  0.25500000000E-02 0.  1.
         -2   -1    0    0    0  501 -0.00000000000E+00 -0.00000000000E+00 -0.46298858855E+02  0.46298858925E+02  0.25500000000E-02 0. -1.
    5000001    1    1    2    0    0  0.84991085388E+02  0.40946737704E+02  0.25672767157E+03  0.31942795318E+03  0.16500000000E+03 0.  0.
   -5000001    1    1    2    0    0 -0.84991085388E+02 -0.40946737704E+02  0.58920208129E+03  0.61909951746E+03  0.16500000000E+03 0.  0.
<mgrwt>
<rscale>  0 0.40649313E+03</rscale>
<asrwt>0</asrwt>
<pdfrwt beam="1">  1        2 0.12746122E+00 0.40649313E+03</pdfrwt>
<pdfrwt beam="2">  1       -2 0.66141230E-02 0.40649313E+03</pdfrwt>
<totfact> 0.43434256E+03</totfact>
</mgrwt>
</event>
<event>
 4    1  0.5387486E-005  0.5181711E+03  0.7818608E-02  0.1009142E+00
         -2   -1    0    0    0  501 -0.00000000000E+00  0.00000000000E+00  0.44932106033E+02  0.44932106105E+02  0.25500000000E-02 0. -1.
          2   -1    0    0  501    0  0.00000000000E+00 -0.00000000000E+00 -0.14939279055E+04  0.14939279055E+04  0.25500000000E-02 0.  1.
    5000001    1    1    2    0    0  0.10169110227E+03  0.14483220766E+03 -0.99963071523E+03  0.10284959968E+04  0.16500000000E+03 0.  0.
   -5000001    1    1    2    0    0 -0.10169110227E+03 -0.14483220766E+03 -0.44936508425E+03  0.51036401480E+03  0.16500000000E+03 0.  0.
<mgrwt>
<rscale>  0 0.51817112E+03</rscale>
<asrwt>0</asrwt>
<pdfrwt beam="1">  1        2 0.21341824E+00 0.51817112E+03</pdfrwt>
<pdfrwt beam="2">  1       -2 0.64188733E-02 0.51817112E+03</pdfrwt>
<totfact> 0.20852483E+03</totfact>
</mgrwt>
</event>
<event>
 4    1  0.5387486E-005  0.9605092E+03  0.7818608E-02  0.9352951E-01
         -2   -1    0    0    0  501 -0.00000000000E+00  0.00000000000E+00  0.88310424328E+02  0.88310424365E+02  0.25500000000E-02 0. -1.
          2   -1    0    0  501    0  0.00000000000E+00 -0.00000000000E+00 -0.26117466963E+04  0.26117466963E+04  0.25500000000E-02 0.  1.
    5000001    1    1    2    0    0 -0.40635625018E+03  0.28991134474E+02 -0.71769413535E+03  0.84159120710E+03  0.16500000000E+03 0.  0.
   -5000001    1    1    2    0    0  0.40635625018E+03 -0.28991134474E+02 -0.18057421367E+04  0.18584659136E+04  0.16500000000E+03 0.  0.
<mgrwt>
<rscale>  0 0.96050915E+03</rscale>
<asrwt>0</asrwt>
<pdfrwt beam="1">  1        2 0.37310662E+00 0.96050915E+03</pdfrwt>
<pdfrwt beam="2">  1       -2 0.12615777E-01 0.96050915E+03</pdfrwt>
<totfact> 0.18304088E+02</totfact>
</mgrwt>
</event>
<event>
 4    1  0.5387486E-005  0.4740919E+03  0.7818608E-02  0.1020772E+00
          2   -1    0    0  501    0  0.00000000000E+00  0.00000000000E+00  0.99434431717E+03  0.99434431717E+03  0.25500000000E-02 0.  1.
         -2   -1    0    0    0  501 -0.00000000000E+00 -0.00000000000E+00 -0.56510381854E+02  0.56510381911E+02  0.25500000000E-02 0. -1.
    5000001    1    1    2    0    0  0.14538733894E+03 -0.21966900082E+02  0.65889279647E+03  0.69497103556E+03  0.16500000000E+03 0.  0.
   -5000001    1    1    2    0    0 -0.14538733894E+03  0.21966900082E+02  0.27894113884E+03  0.35588366352E+03  0.16500000000E+03 0.  0.
<mgrwt>
<rscale>  0 0.47409188E+03</rscale>
<asrwt>0</asrwt>
<pdfrwt beam="1">  1        2 0.14204919E+00 0.47409188E+03</pdfrwt>
<pdfrwt beam="2">  1       -2 0.80729116E-02 0.47409188E+03</pdfrwt>
<totfact> 0.27462565E+03</totfact>
</mgrwt>
</event>
<event>
 4    1  0.5387486E-005  0.6263503E+03  0.7818608E-02  0.9852197E-01
         -2   -1    0    0    0  501 -0.00000000000E+00  0.00000000000E+00  0.81059397112E+02  0.81059397152E+02  0.25500000000E-02 0. -1.
          2   -1    0    0  501    0  0.00000000000E+00 -0.00000000000E+00 -0.12099606861E+04  0.12099606861E+04  0.25500000000E-02 0.  1.
    5000001    1    1    2    0    0 -0.26190033697E+03  0.34047063893E+02 -0.49600539156E+03  0.58565974552E+03  0.16500000000E+03 0.  0.
   -5000001    1    1    2    0    0  0.26190033697E+03 -0.34047063893E+02 -0.63289589742E+03  0.70536033772E+03  0.16500000000E+03 0.  0.
<mgrwt>
<rscale>  0 0.62635033E+03</rscale>
<asrwt>0</asrwt>
<pdfrwt beam="1">  1        2 0.17285152E+00 0.62635033E+03</pdfrwt>
<pdfrwt beam="2">  1       -2 0.11579915E-01 0.62635033E+03</pdfrwt>
<totfact> 0.11477288E+03</totfact>
</mgrwt>
</event>
<event>
 4    1  0.5387486E-005  0.4051156E+03  0.7818608E-02  0.1042023E+00
          2   -1    0    0  501    0  0.00000000000E+00  0.00000000000E+00  0.26936400135E+02  0.26936400255E+02  0.25500000000E-02 0.  1.
         -2   -1    0    0    0  501 -0.00000000000E+00 -0.00000000000E+00 -0.15232052297E+04  0.15232052297E+04  0.25500000000E-02 0. -1.
    5000001    1    1    2    0    0  0.34506336967E+02 -0.10590162381E+03 -0.89124573889E+03  0.91320852400E+03  0.16500000000E+03 0.  0.
   -5000001    1    1    2    0    0 -0.34506336967E+02  0.10590162381E+03 -0.60502309072E+03  0.63693310600E+03  0.16500000000E+03 0.  0.
<mgrwt>
<rscale>  0 0.40511562E+03</rscale>
<asrwt>0</asrwt>
<pdfrwt beam="1">  1        2 0.38480581E-02 0.40511562E+03</pdfrwt>
<pdfrwt beam="2">  1       -2 0.21760069E+00 0.40511562E+03</pdfrwt>
<totfact> 0.25001828E+02</totfact>
</mgrwt>
</event>
<event>
 4    1  0.5387486E-005  0.4798248E+03  0.7818608E-02  0.1019183E+00
          2   -1    0    0  501    0  0.00000000000E+00  0.00000000000E+00  0.23233152735E+03  0.23233152736E+03  0.25500000000E-02 0. -1.
         -2   -1    0    0    0  501 -0.00000000000E+00 -0.00000000000E+00 -0.24774061818E+03  0.24774061819E+03  0.25500000000E-02 0.  1.
    5000001    1    1    2    0    0 -0.33884157196E+01 -0.14508611757E+03 -0.10404277828E+03  0.24312828422E+03  0.16500000000E+03 0.  0.
   -5000001    1    1    2    0    0  0.33884157196E+01  0.14508611757E+03  0.88633687453E+02  0.23694386134E+03  0.16500000000E+03 0.  0.
<mgrwt>
<rscale>  0 0.47982479E+03</rscale>
<asrwt>0</asrwt>
<pdfrwt beam="1">  1        2 0.33190218E-01 0.47982479E+03</pdfrwt>
<pdfrwt beam="2">  1       -2 0.35391517E-01 0.47982479E+03</pdfrwt>
<totfact> 0.11893129E+03</totfact>
</mgrwt>
</event>
<event>
 4    1  0.5387486E-005  0.4842762E+03  0.7818608E-02  0.1017967E+00
         -2   -1    0    0    0  501 -0.00000000000E+00  0.00000000000E+00  0.15466839791E+03  0.15466839793E+03  0.25500000000E-02 0. -1.
          2   -1    0    0  501    0  0.00000000000E+00 -0.00000000000E+00 -0.37907461806E+03  0.37907461807E+03  0.25500000000E-02 0.  1.
    5000001    1    1    2    0    0  0.11221774289E+03  0.10400513722E+03 -0.13649001139E+02  0.22543554649E+03  0.16500000000E+03 0.  0.
   -5000001    1    1    2    0    0 -0.11221774289E+03 -0.10400513722E+03 -0.21075721902E+03  0.30830746951E+03  0.16500000000E+03 0.  0.
<mgrwt>
<rscale>  0 0.48427622E+03</rscale>
<asrwt>0</asrwt>
<pdfrwt beam="1">  1        2 0.54153516E-01 0.48427622E+03</pdfrwt>
<pdfrwt beam="2">  1       -2 0.22095486E-01 0.48427622E+03</pdfrwt>
<totfact> 0.16361687E+03</totfact>
</mgrwt>
</event>
<event>
 4    1  0.5387486E-005  0.6355930E+03  0.7818608E-02  0.9834195E-01
          2   -1    0    0  501    0  0.00000000000E+00  0.00000000000E+00  0.14382783132E+04  0.14382783132E+04  0.25500000000E-02 0.  1.
         -2   -1    0    0    0  501 -0.00000000000E+00 -0.00000000000E+00 -0.70219112955E+02  0.70219113001E+02  0.25500000000E-02 0. -1.
    5000001    1    1    2    0    0 -0.16859754819E+03  0.91673640765E+02  0.11401888238E+04  0.11679403853E+04  0.16500000000E+03 0.  0.
   -5000001    1    1    2    0    0  0.16859754819E+03 -0.91673640765E+02  0.22787037648E+03  0.34055704095E+03  0.16500000000E+03 0.  0.
<mgrwt>
<rscale>  0 0.63559304E+03</rscale>
<asrwt>0</asrwt>
<pdfrwt beam="1">  1        2 0.20546832E+00 0.63559304E+03</pdfrwt>
<pdfrwt beam="2">  1       -2 0.10031302E-01 0.63559304E+03</pdfrwt>
<totfact> 0.10906768E+03</totfact>
</mgrwt>
</event>
<event>
 4    1  0.5387486E-005  0.6909056E+03  0.7818608E-02  0.9732912E-01
         -2   -1    0    0    0  501 -0.00000000000E+00  0.00000000000E+00  0.12217159009E+03  0.12217159011E+03  0.25500000000E-02 0. -1.
          2   -1    0    0  501    0  0.00000000000E+00 -0.00000000000E+00 -0.97680346700E+03  0.97680346700E+03  0.25500000000E-02 0.  1.
    5000001    1    1    2    0    0  0.62752210091E+02 -0.24019642110E+03 -0.70501855766E+03  0.76544648881E+03  0.16500000000E+03 0.  0.
   -5000001    1    1    2    0    0 -0.62752210091E+02  0.24019642110E+03 -0.14961331925E+03  0.33352856831E+03  0.16500000000E+03 0.  0.
<mgrwt>
<rscale>  0 0.69090559E+03</rscale>
<asrwt>0</asrwt>
<pdfrwt beam="1">  1        2 0.13954335E+00 0.69090559E+03</pdfrwt>
<pdfrwt beam="2">  1       -2 0.17453085E-01 0.69090559E+03</pdfrwt>
<totfact> 0.78858458E+02</totfact>
</mgrwt>
</event>
<event>
 4    1  0.5387486E-005  0.6451514E+03  0.7818608E-02  0.9815920E-01
         -2   -1    0    0    0  501 -0.00000000000E+00  0.00000000000E+00  0.20169598901E+03  0.20169598902E+03  0.25500000000E-02 0. -1.
          2   -1    0    0  501    0  0.00000000000E+00 -0.00000000000E+00 -0.51590054474E+03  0.51590054474E+03  0.25500000000E-02 0.  1.
    5000001    1    1    2    0    0 -0.23332969759E+03  0.75285490708E+02 -0.30092559022E+03  0.42177228896E+03  0.16500000000E+03 0.  0.
   -5000001    1    1    2    0    0  0.23332969759E+03 -0.75285490708E+02 -0.13278965509E+02  0.29582424480E+03  0.16500000000E+03 0.  0.
<mgrwt>
<rscale>  0 0.64515136E+03</rscale>
<asrwt>0</asrwt>
<pdfrwt beam="1">  1        2 0.73700077E-01 0.64515136E+03</pdfrwt>
<pdfrwt beam="2">  1       -2 0.28813713E-01 0.64515136E+03</pdfrwt>
<totfact> 0.71851490E+02</totfact>
</mgrwt>
</event>
<event>
 4    1  0.5387486E-005  0.6696414E+03  0.7818608E-02  0.9770606E-01
          2   -1    0    0  501    0  0.00000000000E+00  0.00000000000E+00  0.35511918845E+03  0.35511918846E+03  0.25500000000E-02 0.  1.
         -2   -1    0    0    0  501 -0.00000000000E+00 -0.00000000000E+00 -0.31568249708E+03  0.31568249709E+03  0.25500000000E-02 0. -1.
    5000001    1    1    2    0    0  0.11292699305E+03  0.24991818313E+03  0.11821626814E+03  0.34119157385E+03  0.16500000000E+03 0.  0.
   -5000001    1    1    2    0    0 -0.11292699305E+03 -0.24991818313E+03 -0.78779576761E+02  0.32961011170E+03  0.16500000000E+03 0.  0.
<mgrwt>
<rscale>  0 0.66964143E+03</rscale>
<asrwt>0</asrwt>
<pdfrwt beam="1">  1        2 0.50731313E-01 0.66964143E+03</pdfrwt>
<pdfrwt beam="2">  1       -2 0.45097499E-01 0.66964143E+03</pdfrwt>
<totfact> 0.46423487E+02</totfact>
</mgrwt>
</event>
<event>
 4    1  0.5387486E-005  0.7544612E+03  0.7818608E-02  0.9628377E-01
         -2   -1    0    0    0  501 -0.00000000000E+00  0.00000000000E+00  0.14408517273E+03  0.14408517275E+03  0.25500000000E-02 0. -1.
          2   -1    0    0  501    0  0.00000000000E+00 -0.00000000000E+00 -0.98763049077E+03  0.98763049078E+03  0.25500000000E-02 0.  1.
    5000001    1    1    2    0    0 -0.12796653771E+03 -0.17994367233E+03 -0.35466437067E+02  0.27791730451E+03  0.16500000000E+03 0.  0.
   -5000001    1    1    2    0    0  0.12796653771E+03  0.17994367233E+03 -0.80807888098E+03  0.85379835902E+03  0.16500000000E+03 0.  0.
<mgrwt>
<rscale>  0 0.75446116E+03</rscale>
<asrwt>0</asrwt>
<pdfrwt beam="1">  1        2 0.14109007E+00 0.75446116E+03</pdfrwt>
<pdfrwt beam="2">  1       -2 0.20583597E-01 0.75446116E+03</pdfrwt>
<totfact> 0.58189090E+02</totfact>
</mgrwt>
</event>
<event>
 4    1  0.5387486E-005  0.9281902E+03  0.7818608E-02  0.9391012E-01
         -2   -1    0    0    0  501 -0.00000000000E+00  0.00000000000E+00  0.73342794097E+02  0.73342794141E+02  0.25500000000E-02 0. -1.
          2   -1    0    0  501    0  0.00000000000E+00 -0.00000000000E+00 -0.29366795463E+04  0.29366795463E+04  0.25500000000E-02 0.  1.
    5000001    1    1    2    0    0 -0.42379947649E+03  0.82561188157E+02 -0.12965156564E+04  0.13764447658E+04  0.16500000000E+03 0.  0.
   -5000001    1    1    2    0    0  0.42379947649E+03 -0.82561188157E+02 -0.15668210958E+04  0.16335775746E+04  0.16500000000E+03 0.  0.
<mgrwt>
<rscale>  0 0.92819025E+03</rscale>
<asrwt>0</asrwt>
<pdfrwt beam="1">  1        2 0.41952558E+00 0.92819025E+03</pdfrwt>
<pdfrwt beam="2">  1       -2 0.10477544E-01 0.92819025E+03</pdfrwt>
<totfact> 0.16718606E+02</totfact>
</mgrwt>
</event>
<event>
 4    1  0.5387486E-005  0.3870267E+03  0.7818608E-02  0.1048367E+00
          2   -1    0    0  501    0  0.00000000000E+00  0.00000000000E+00  0.52373853585E+02  0.52373853647E+02  0.25500000000E-02 0.  1.
         -2   -1    0    0    0  501 -0.00000000000E+00 -0.00000000000E+00 -0.71500225591E+03  0.71500225592E+03  0.25500000000E-02 0. -1.
    5000001    1    1    2    0    0  0.87806185538E+02 -0.48979663183E+02 -0.31019167540E+03  0.36544877769E+03  0.16500000000E+03 0.  0.
   -5000001    1    1    2    0    0 -0.87806185538E+02  0.48979663183E+02 -0.35243672692E+03  0.40192733187E+03  0.16500000000E+03 0.  0.
<mgrwt>
<rscale>  0 0.38702674E+03</rscale>
<asrwt>0</asrwt>
<pdfrwt beam="1">  1        2 0.74819795E-02 0.38702674E+03</pdfrwt>
<pdfrwt beam="2">  1       -2 0.10214317E+00 0.38702674E+03</pdfrwt>
<totfact> 0.76170732E+02</totfact>
</mgrwt>
</event>
<event>
 4    1  0.5387486E-005  0.9028928E+03  0.7818608E-02  0.9421973E-01
         -2   -1    0    0    0  501 -0.00000000000E+00  0.00000000000E+00  0.63121176737E+02  0.63121176789E+02  0.25500000000E-02 0. -1.
          2   -1    0    0  501    0  0.00000000000E+00 -0.00000000000E+00 -0.32287712251E+04  0.32287712251E+04  0.25500000000E-02 0.  1.
    5000001    1    1    2    0    0 -0.38309803842E+03  0.16894150553E+03 -0.17129344957E+04  0.17710660423E+04  0.16500000000E+03 0.  0.
   -5000001    1    1    2    0    0  0.38309803842E+03 -0.16894150553E+03 -0.14527155526E+04  0.15208263596E+04  0.16500000000E+03 0.  0.
<mgrwt>
<rscale>  0 0.90289277E+03</rscale>
<asrwt>0</asrwt>
<pdfrwt beam="1">  1        2 0.46125293E+00 0.90289277E+03</pdfrwt>
<pdfrwt beam="2">  1       -2 0.90173130E-02 0.90289277E+03</pdfrwt>
<totfact> 0.14707562E+02</totfact>
</mgrwt>
</event>
<event>
 4    1  0.5387486E-005  0.5566951E+03  0.7818608E-02  0.9999560E-01
         -2   -1    0    0    0  501 -0.00000000000E+00  0.00000000000E+00  0.75219418663E+02  0.75219418707E+02  0.25500000000E-02 0. -1.
          2   -1    0    0  501    0  0.00000000000E+00 -0.00000000000E+00 -0.10300182226E+04  0.10300182226E+04  0.25500000000E-02 0.  1.
    5000001    1    1    2    0    0 -0.60442447931E+02  0.75360317269E+02 -0.75788457259E+02  0.20567293741E+03  0.16500000000E+03 0.  0.
   -5000001    1    1    2    0    0  0.60442447931E+02 -0.75360317269E+02 -0.87901034671E+03  0.89956470393E+03  0.16500000000E+03 0.  0.
<mgrwt>
<rscale>  0 0.55669515E+03</rscale>
<asrwt>0</asrwt>
<pdfrwt beam="1">  1        2 0.14714545E+00 0.55669515E+03</pdfrwt>
<pdfrwt beam="2">  1       -2 0.10745632E-01 0.55669515E+03</pdfrwt>
<totfact> 0.16502220E+03</totfact>
</mgrwt>
</event>
<event>
 4    1  0.5387486E-005  0.3988267E+03  0.7818608E-02  0.1044187E+00
         -2   -1    0    0    0  501 -0.00000000000E+00  0.00000000000E+00  0.42587620354E+02  0.42587620430E+02  0.25500000000E-02 0. -1.
          2   -1    0    0  501    0  0.00000000000E+00 -0.00000000000E+00 -0.93373833507E+03  0.93373833507E+03  0.25500000000E-02 0.  1.
    5000001    1    1    2    0    0  0.66188684445E+02 -0.58793832417E+02 -0.61345566610E+03  0.64139731130E+03  0.16500000000E+03 0.  0.
   -5000001    1    1    2    0    0 -0.66188684445E+02  0.58793832417E+02 -0.27769504862E+03  0.33492864420E+03  0.16500000000E+03 0.  0.
<mgrwt>
<rscale>  0 0.39882675E+03</rscale>
<asrwt>0</asrwt>
<pdfrwt beam="1">  1        2 0.13339118E+00 0.39882675E+03</pdfrwt>
<pdfrwt beam="2">  1       -2 0.60839463E-02 0.39882675E+03</pdfrwt>
<totfact> 0.46557635E+03</totfact>
</mgrwt>
</event>
<event>
 4    1  0.5387486E-005  0.3739988E+03  0.7818608E-02  0.1053174E+00
         -2   -1    0    0    0  501 -0.00000000000E+00  0.00000000000E+00  0.23481435035E+03  0.23481435036E+03  0.25500000000E-02 0. -1.
          2   -1    0    0  501    0  0.00000000000E+00 -0.00000000000E+00 -0.14892094578E+03  0.14892094580E+03  0.25500000000E-02 0.  1.
    5000001    1    1    2    0    0 -0.78155756187E+02 -0.25588749661E+01  0.84357102727E+02  0.20113674663E+03  0.16500000000E+03 0.  0.
   -5000001    1    1    2    0    0  0.78155756187E+02  0.25588749661E+01  0.15363018487E+01  0.18259854953E+03  0.16500000000E+03 0.  0.
<mgrwt>
<rscale>  0 0.37399880E+03</rscale>
<asrwt>0</asrwt>
<pdfrwt beam="1">  1        2 0.21274421E-01 0.37399880E+03</pdfrwt>
<pdfrwt beam="2">  1       -2 0.33544907E-01 0.37399880E+03</pdfrwt>
<totfact> 0.21647815E+03</totfact>
</mgrwt>
</event>
<event>
 4    1  0.5387486E-005  0.4592067E+03  0.7818608E-02  0.1025012E+00
          2   -1    0    0  501    0  0.00000000000E+00  0.00000000000E+00  0.52064698963E+03  0.52064698963E+03  0.25500000000E-02 0.  1.
         -2   -1    0    0    0  501 -0.00000000000E+00 -0.00000000000E+00 -0.10125420840E+03  0.10125420843E+03  0.25500000000E-02 0. -1.
    5000001    1    1    2    0    0  0.15616929305E+03  0.31451096157E+02  0.22419931636E+03  0.32073096669E+03  0.16500000000E+03 0.  0.
   -5000001    1    1    2    0    0 -0.15616929305E+03 -0.31451096157E+02  0.19519346486E+03  0.30117023137E+03  0.16500000000E+03 0.  0.
<mgrwt>
<rscale>  0 0.45920670E+03</rscale>
<asrwt>0</asrwt>
<pdfrwt beam="1">  1        2 0.74378140E-01 0.45920670E+03</pdfrwt>
<pdfrwt beam="2">  1       -2 0.14464887E-01 0.45920670E+03</pdfrwt>
<totfact> 0.23689805E+03</totfact>
</mgrwt>
</event>
<event>
 4    1  0.5387486E-005  0.3549845E+03  0.7818608E-02  0.1060588E+00
          2   -1    0    0  501    0  0.00000000000E+00  0.00000000000E+00  0.41840747027E+03  0.41840747027E+03  0.25500000000E-02 0.  1.
         -2   -1    0    0    0  501 -0.00000000000E+00 -0.00000000000E+00 -0.75293837452E+02  0.75293837495E+02  0.25500000000E-02 0. -1.
    5000001    1    1    2    0    0 -0.49891258667E+02 -0.42300074615E+02  0.17192494697E+03  0.24710649808E+03  0.16500000000E+03 0.  0.
   -5000001    1    1    2    0    0  0.49891258667E+02  0.42300074615E+02  0.17118868585E+03  0.24659480969E+03  0.16500000000E+03 0.  0.
<mgrwt>
<rscale>  0 0.35498453E+03</rscale>
<asrwt>0</asrwt>
<pdfrwt beam="1">  1        2 0.59772498E-01 0.35498453E+03</pdfrwt>
<pdfrwt beam="2">  1       -2 0.10756262E-01 0.35498453E+03</pdfrwt>
<totfact> 0.48863346E+03</totfact>
</mgrwt>
</event>
<event>
 4    1  0.5387486E-005  0.5157428E+03  0.7818608E-02  0.1009750E+00
         -2   -1    0    0    0  501 -0.00000000000E+00  0.00000000000E+00  0.41909861151E+02  0.41909861229E+02  0.25500000000E-02 0. -1.
          2   -1    0    0  501    0  0.00000000000E+00 -0.00000000000E+00 -0.15866826794E+04  0.15866826794E+04  0.25500000000E-02 0.  1.
    5000001    1    1    2    0    0 -0.13804592292E+03  0.44413786073E+02 -0.11988992007E+04  0.12188574792E+04  0.16500000000E+03 0.  0.
   -5000001    1    1    2    0    0  0.13804592292E+03 -0.44413786073E+02 -0.34587361756E+03  0.40973506141E+03  0.16500000000E+03 0.  0.
<mgrwt>
<rscale>  0 0.51574277E+03</rscale>
<asrwt>0</asrwt>
<pdfrwt beam="1">  1        2 0.22666892E+00 0.51574277E+03</pdfrwt>
<pdfrwt beam="2">  1       -2 0.59871240E-02 0.51574277E+03</pdfrwt>
<totfact> 0.20829341E+03</totfact>
</mgrwt>
</event>
<event>
 4    1  0.5387486E-005  0.4347920E+03  0.7818608E-02  0.1032357E+00
         -2   -1    0    0    0  501 -0.00000000000E+00  0.00000000000E+00  0.34933423335E+02  0.34933423428E+02  0.25500000000E-02 0. -1.
          2   -1    0    0  501    0  0.00000000000E+00 -0.00000000000E+00 -0.13528885586E+04  0.13528885586E+04  0.25500000000E-02 0.  1.
    5000001    1    1    2    0    0 -0.78193121150E+01 -0.10418229179E+03 -0.96381754069E+03  0.98340446577E+03  0.16500000000E+03 0.  0.
   -5000001    1    1    2    0    0  0.78193121150E+01  0.10418229179E+03 -0.35413759458E+03  0.40441751626E+03  0.16500000000E+03 0.  0.
<mgrwt>
<rscale>  0 0.43479204E+03</rscale>
<asrwt>0</asrwt>
<pdfrwt beam="1">  1        2 0.19326976E+00 0.43479204E+03</pdfrwt>
<pdfrwt beam="2">  1       -2 0.49904899E-02 0.43479204E+03</pdfrwt>
<totfact> 0.36575843E+03</totfact>
</mgrwt>
</event>
<event>
 4    1  0.5387486E-005  0.4707625E+03  0.7818608E-02  0.1021705E+00
          2   -1    0    0  501    0  0.00000000000E+00  0.00000000000E+00  0.82212514212E+03  0.82212514213E+03  0.25500000000E-02 0.  1.
         -2   -1    0    0    0  501 -0.00000000000E+00 -0.00000000000E+00 -0.67391598218E+02  0.67391598267E+02  0.25500000000E-02 0. -1.
    5000001    1    1    2    0    0 -0.14205063350E+03  0.42263486686E+02  0.22840876373E+03  0.31837108558E+03  0.16500000000E+03 0.  0.
   -5000001    1    1    2    0    0  0.14205063350E+03 -0.42263486686E+02  0.52632478018E+03  0.57114565481E+03  0.16500000000E+03 0.  0.
<mgrwt>
<rscale>  0 0.47076248E+03</rscale>
<asrwt>0</asrwt>
<pdfrwt beam="1">  1        2 0.11744645E+00 0.47076248E+03</pdfrwt>
<pdfrwt beam="2">  1       -2 0.96273709E-02 0.47076248E+03</pdfrwt>
<totfact> 0.26699497E+03</totfact>
</mgrwt>
</event>
<event>
 4    1  0.5387486E-005  0.6837783E+03  0.7818608E-02  0.9745383E-01
         -2   -1    0    0    0  501 -0.00000000000E+00  0.00000000000E+00  0.41731228521E+03  0.41731228522E+03  0.25500000000E-02 0. -1.
          2   -1    0    0  501    0  0.00000000000E+00 -0.00000000000E+00 -0.28009765971E+03  0.28009765973E+03  0.25500000000E-02 0.  1.
    5000001    1    1    2    0    0  0.46729534906E+02  0.29497455988E+03  0.46506125047E+02  0.34435658855E+03  0.16500000000E+03 0.  0.
   -5000001    1    1    2    0    0 -0.46729534906E+02 -0.29497455988E+03  0.90708500449E+02  0.35305335640E+03  0.16500000000E+03 0.  0.
<mgrwt>
<rscale>  0 0.68377831E+03</rscale>
<asrwt>0</asrwt>
<pdfrwt beam="1">  1        2 0.40013951E-01 0.68377831E+03</pdfrwt>
<pdfrwt beam="2">  1       -2 0.59616041E-01 0.68377831E+03</pdfrwt>
<totfact> 0.34103779E+02</totfact>
</mgrwt>
</event>
<event>
 4    1  0.5387486E-005  0.4936520E+03  0.7818608E-02  0.1015449E+00
         -2   -1    0    0    0  501 -0.00000000000E+00  0.00000000000E+00  0.39601574252E+02  0.39601574334E+02  0.25500000000E-02 0. -1.
          2   -1    0    0  501    0  0.00000000000E+00 -0.00000000000E+00 -0.15384006152E+04  0.15384006152E+04  0.25500000000E-02 0.  1.
    5000001    1    1    2    0    0 -0.16219207363E+03  0.58183910188E+02 -0.54706661073E+03  0.59682368647E+03  0.16500000000E+03 0.  0.
   -5000001    1    1    2    0    0  0.16219207363E+03 -0.58183910188E+02 -0.95173243020E+03  0.98117850305E+03  0.16500000000E+03 0.  0.
<mgrwt>
<rscale>  0 0.49365205E+03</rscale>
<asrwt>0</asrwt>
<pdfrwt beam="1">  1        2 0.21977148E+00 0.49365205E+03</pdfrwt>
<pdfrwt beam="2">  1       -2 0.56573687E-02 0.49365205E+03</pdfrwt>
<totfact> 0.24098309E+03</totfact>
</mgrwt>
</event>
<event>
 4    1  0.5387486E-005  0.4493670E+03  0.7818608E-02  0.1027911E+00
         -2   -1    0    0    0  501 -0.00000000000E+00  0.00000000000E+00  0.74478239103E+02  0.74478239146E+02  0.25500000000E-02 0. -1.
          2   -1    0    0  501    0  0.00000000000E+00 -0.00000000000E+00 -0.67781779433E+03  0.67781779434E+03  0.25500000000E-02 0.  1.
    5000001    1    1    2    0    0 -0.29102783649E+02 -0.14394503216E+03 -0.37050317785E+03  0.43135223322E+03  0.16500000000E+03 0.  0.
   -5000001    1    1    2    0    0  0.29102783649E+02  0.14394503216E+03 -0.23283637738E+03  0.32094380027E+03  0.16500000000E+03 0.  0.
<mgrwt>
<rscale>  0 0.44936700E+03</rscale>
<asrwt>0</asrwt>
<pdfrwt beam="1">  1        2 0.96831110E-01 0.44936700E+03</pdfrwt>
<pdfrwt beam="2">  1       -2 0.10639749E-01 0.44936700E+03</pdfrwt>
<totfact> 0.28841967E+03</totfact>
</mgrwt>
</event>
<event>
 4    1  0.5387486E-005  0.1155186E+04  0.7818608E-02  0.9153012E-01
         -2   -1    0    0    0  501 -0.00000000000E+00  0.00000000000E+00  0.22702026004E+03  0.22702026005E+03  0.25500000000E-02 0. -1.
          2   -1    0    0  501    0  0.00000000000E+00 -0.00000000000E+00 -0.14695334810E+04  0.14695334810E+04  0.25500000000E-02 0.  1.
    5000001    1    1    2    0    0  0.26445843771E+03  0.47986801714E+03 -0.50582767117E+03  0.76373962322E+03  0.16500000000E+03 0.  0.
   -5000001    1    1    2    0    0 -0.26445843771E+03 -0.47986801714E+03 -0.73668554977E+03  0.93281411782E+03  0.16500000000E+03 0.  0.
<mgrwt>
<rscale>  0 0.11551863E+04</rscale>
<asrwt>0</asrwt>
<pdfrwt beam="1">  1        2 0.20993335E+00 0.11551863E+04</pdfrwt>
<pdfrwt beam="2">  1       -2 0.32431466E-01 0.11551863E+04</pdfrwt>
<totfact> 0.13284401E+02</totfact>
</mgrwt>
</event>
<event>
 4    1  0.5387486E-005  0.4148256E+03  0.7818608E-02  0.1038764E+00
          2   -1    0    0  501    0  0.00000000000E+00  0.00000000000E+00  0.38260043624E+04  0.38260043624E+04  0.25500000000E-02 0.  1.
         -2   -1    0    0    0  501 -0.00000000000E+00 -0.00000000000E+00 -0.11244122512E+02  0.11244122801E+02  0.25500000000E-02 0. -1.
    5000001    1    1    2    0    0  0.64193764695E+02  0.59762246049E+02  0.27400430024E+04  0.27464072933E+04  0.16500000000E+03 0.  0.
   -5000001    1    1    2    0    0 -0.64193764695E+02 -0.59762246049E+02  0.10747172375E+04  0.10908411919E+04  0.16500000000E+03 0.  0.
<mgrwt>
<rscale>  0 0.41482556E+03</rscale>
<asrwt>0</asrwt>
<pdfrwt beam="1">  1        2 0.54657241E+00 0.41482556E+03</pdfrwt>
<pdfrwt beam="2">  1       -2 0.16063022E-02 0.41482556E+03</pdfrwt>
<totfact> 0.97341595E+02</totfact>
</mgrwt>
</event>
<event>
 4    1  0.5387486E-005  0.4820142E+03  0.7818608E-02  0.1018583E+00
         -2   -1    0    0    0  501 -0.00000000000E+00  0.00000000000E+00  0.47523264059E+02  0.47523264128E+02  0.25500000000E-02 0. -1.
          2   -1    0    0  501    0  0.00000000000E+00 -0.00000000000E+00 -0.12222313754E+04  0.12222313754E+04  0.25500000000E-02 0.  1.
    5000001    1    1    2    0    0 -0.72350841533E+01 -0.10936487979E+03 -0.94899215832E+03  0.96944527433E+03  0.16500000000E+03 0.  0.
   -5000001    1    1    2    0    0  0.72350841533E+01  0.10936487979E+03 -0.22571595299E+03  0.30030936517E+03  0.16500000000E+03 0.  0.
<mgrwt>
<rscale>  0 0.48201421E+03</rscale>
<asrwt>0</asrwt>
<pdfrwt beam="1">  1        2 0.17460446E+00 0.48201421E+03</pdfrwt>
<pdfrwt beam="2">  1       -2 0.67890384E-02 0.48201421E+03</pdfrwt>
<totfact> 0.26675706E+03</totfact>
</mgrwt>
</event>
<event>
 4    1  0.5387486E-005  0.5274718E+03  0.7818608E-02  0.1006847E+00
          2   -1    0    0  501    0  0.00000000000E+00  0.00000000000E+00  0.41930358863E+04  0.41930358863E+04  0.25500000000E-02 0.  1.
         -2   -1    0    0    0  501 -0.00000000000E+00 -0.00000000000E+00 -0.16588610100E+02  0.16588610296E+02  0.25500000000E-02 0. -1.
    5000001    1    1    2    0    0  0.13867377028E+03 -0.48267852305E+02  0.93801307767E+03  0.96366681690E+03  0.16500000000E+03 0.  0.
   -5000001    1    1    2    0    0 -0.13867377028E+03  0.48267852305E+02  0.32384341985E+04  0.32459576797E+04  0.16500000000E+03 0.  0.
<mgrwt>
<rscale>  0 0.52747185E+03</rscale>
<asrwt>0</asrwt>
<pdfrwt beam="1">  1        2 0.59900604E+00 0.52747185E+03</pdfrwt>
<pdfrwt beam="2">  1       -2 0.23697979E-02 0.52747185E+03</pdfrwt>
<totfact> 0.30520686E+02</totfact>
</mgrwt>
</event>
<event>
 4    1  0.5387486E-005  0.4551619E+03  0.7818608E-02  0.1026194E+00
         -2   -1    0    0    0  501 -0.00000000000E+00  0.00000000000E+00  0.10670211411E+03  0.10670211414E+03  0.25500000000E-02 0. -1.
          2   -1    0    0  501    0  0.00000000000E+00 -0.00000000000E+00 -0.48539887626E+03  0.48539887627E+03  0.25500000000E-02 0.  1.
    5000001    1    1    2    0    0  0.97376197051E+02  0.38345841539E+02 -0.34113994454E+03  0.39313355120E+03  0.16500000000E+03 0.  0.
   -5000001    1    1    2    0    0 -0.97376197051E+02 -0.38345841539E+02 -0.37556817616E+02  0.19896743921E+03  0.16500000000E+03 0.  0.
<mgrwt>
<rscale>  0 0.45516189E+03</rscale>
<asrwt>0</asrwt>
<pdfrwt beam="1">  1        2 0.69342696E-01 0.45516189E+03</pdfrwt>
<pdfrwt beam="2">  1       -2 0.15243159E-01 0.45516189E+03</pdfrwt>
<totfact> 0.23488034E+03</totfact>
</mgrwt>
</event>
<event>
 4    1  0.5387486E-005  0.5097351E+03  0.7818608E-02  0.1011269E+00
         -2   -1    0    0    0  501 -0.00000000000E+00  0.00000000000E+00  0.21909405325E+03  0.21909405327E+03  0.25500000000E-02 0. -1.
          2   -1    0    0  501    0  0.00000000000E+00 -0.00000000000E+00 -0.29648216140E+03  0.29648216142E+03  0.25500000000E-02 0.  1.
    5000001    1    1    2    0    0 -0.13597261310E+03 -0.96052522159E+02  0.62542031243E+02  0.24259254770E+03  0.16500000000E+03 0.  0.
   -5000001    1    1    2    0    0  0.13597261310E+03  0.96052522159E+02 -0.13993013939E+03  0.27298366698E+03  0.16500000000E+03 0.  0.
<mgrwt>
<rscale>  0 0.50973514E+03</rscale>
<asrwt>0</asrwt>
<pdfrwt beam="1">  1        2 0.42354594E-01 0.50973514E+03</pdfrwt>
<pdfrwt beam="2">  1       -2 0.31299151E-01 0.50973514E+03</pdfrwt>
<totfact> 0.11440820E+03</totfact>
</mgrwt>
</event>
<event>
 4    1  0.5387486E-005  0.4315081E+03  0.7818608E-02  0.1033385E+00
          2   -1    0    0  501    0  0.00000000000E+00  0.00000000000E+00  0.74876153351E+03  0.74876153352E+03  0.25500000000E-02 0.  1.
         -2   -1    0    0    0  501 -0.00000000000E+00 -0.00000000000E+00 -0.62169073400E+02  0.62169073453E+02  0.25500000000E-02 0. -1.
    5000001    1    1    2    0    0  0.28909533424E+02  0.13543551191E+03  0.36602494947E+03  0.42470908001E+03  0.16500000000E+03 0.  0.
   -5000001    1    1    2    0    0 -0.28909533424E+02 -0.13543551191E+03  0.32056751064E+03  0.38622152696E+03  0.16500000000E+03 0.  0.
<mgrwt>
<rscale>  0 0.43150810E+03</rscale>
<asrwt>0</asrwt>
<pdfrwt beam="1">  1        2 0.10696594E+00 0.43150810E+03</pdfrwt>
<pdfrwt beam="2">  1       -2 0.88812959E-02 0.43150810E+03</pdfrwt>
<totfact> 0.34136516E+03</totfact>
</mgrwt>
</event>
<event>
 4    1  0.5387486E-005  0.7027892E+03  0.7818608E-02  0.9712474E-01
         -2   -1    0    0    0  501 -0.00000000000E+00  0.00000000000E+00  0.72026986717E+02  0.72026986762E+02  0.25500000000E-02 0. -1.
          2   -1    0    0  501    0  0.00000000000E+00 -0.00000000000E+00 -0.17143317819E+04  0.17143317819E+04  0.25500000000E-02 0.  1.
    5000001    1    1    2    0    0 -0.20377984242E+03  0.23360543103E+03 -0.85284167768E+03  0.92231320535E+03  0.16500000000E+03 0.  0.
   -5000001    1    1    2    0    0  0.20377984242E+03 -0.23360543103E+03 -0.78946311755E+03  0.86404556335E+03  0.16500000000E+03 0.  0.
<mgrwt>
<rscale>  0 0.70278916E+03</rscale>
<asrwt>0</asrwt>
<pdfrwt beam="1">  1        2 0.24490452E+00 0.70278916E+03</pdfrwt>
<pdfrwt beam="2">  1       -2 0.10289571E-01 0.70278916E+03</pdfrwt>
<totfact> 0.75056668E+02</totfact>
</mgrwt>
</event>
<event>
 4    1  0.5387486E-005  0.5356576E+03  0.7818608E-02  0.1004869E+00
         -2   -1    0    0    0  501 -0.00000000000E+00  0.00000000000E+00  0.66643857994E+02  0.66643858043E+02  0.25500000000E-02 0. -1.
          2   -1    0    0  501    0  0.00000000000E+00 -0.00000000000E+00 -0.10763523997E+04  0.10763523997E+04  0.25500000000E-02 0.  1.
    5000001    1    1    2    0    0  0.16545908465E+03 -0.15908615883E+02 -0.22764269913E+03  0.32661290731E+03  0.16500000000E+03 0.  0.
   -5000001    1    1    2    0    0 -0.16545908465E+03  0.15908615883E+02 -0.78206584256E+03  0.81638335043E+03  0.16500000000E+03 0.  0.
<mgrwt>
<rscale>  0 0.53565764E+03</rscale>
<asrwt>0</asrwt>
<pdfrwt beam="1">  1        2 0.15376462E+00 0.53565764E+03</pdfrwt>
<pdfrwt beam="2">  1       -2 0.95205518E-02 0.53565764E+03</pdfrwt>
<totfact> 0.18851932E+03</totfact>
</mgrwt>
</event>
<event>
 4    1  0.5387486E-005  0.4073972E+03  0.7818608E-02  0.1041248E+00
         -2   -1    0    0    0  501 -0.00000000000E+00  0.00000000000E+00  0.35287293414E+02  0.35287293506E+02  0.25500000000E-02 0. -1.
          2   -1    0    0  501    0  0.00000000000E+00 -0.00000000000E+00 -0.11758658442E+04  0.11758658442E+04  0.25500000000E-02 0.  1.
    5000001    1    1    2    0    0  0.11686396990E+03  0.15799507154E+02 -0.51377974061E+03  0.55235987702E+03  0.16500000000E+03 0.  0.
   -5000001    1    1    2    0    0 -0.11686396990E+03 -0.15799507154E+02 -0.62679881021E+03  0.65879326072E+03  0.16500000000E+03 0.  0.
<mgrwt>
<rscale>  0 0.40739722E+03</rscale>
<asrwt>0</asrwt>
<pdfrwt beam="1">  1        2 0.16798081E+00 0.40739722E+03</pdfrwt>
<pdfrwt beam="2">  1       -2 0.50410427E-02 0.40739722E+03</pdfrwt>
<totfact> 0.44907387E+03</totfact>
</mgrwt>
</event>
<event>
 4    1  0.5387486E-005  0.5130482E+03  0.7818608E-02  0.1010428E+00
         -2   -1    0    0    0  501 -0.00000000000E+00  0.00000000000E+00  0.10611604139E+03  0.10611604142E+03  0.25500000000E-02 0.  1.
          2   -1    0    0  501    0  0.00000000000E+00 -0.00000000000E+00 -0.62011949158E+03  0.62011949158E+03  0.25500000000E-02 0. -1.
    5000001    1    1    2    0    0  0.88780823337E+02  0.16768437359E+03 -0.32889538304E+03  0.41400151778E+03  0.16500000000E+03 0.  0.
   -5000001    1    1    2    0    0 -0.88780823337E+02 -0.16768437359E+03 -0.18510806715E+03  0.31223401522E+03  0.16500000000E+03 0.  0.
<mgrwt>
<rscale>  0 0.51304825E+03</rscale>
<asrwt>0</asrwt>
<pdfrwt beam="1">  1        2 0.88588497E-01 0.51304825E+03</pdfrwt>
<pdfrwt beam="2">  1       -2 0.15159435E-01 0.51304825E+03</pdfrwt>
<totfact> 0.17906314E+03</totfact>
</mgrwt>
</event>
<event>
 4    1  0.5387486E-005  0.4426452E+03  0.7818608E-02  0.1029938E+00
          2   -1    0    0  501    0  0.00000000000E+00  0.00000000000E+00  0.33554544065E+04  0.33554544065E+04  0.25500000000E-02 0.  1.
         -2   -1    0    0    0  501 -0.00000000000E+00 -0.00000000000E+00 -0.14598228778E+02  0.14598229001E+02  0.25500000000E-02 0. -1.
    5000001    1    1    2    0    0 -0.12600154607E+03  0.75114798609E+02  0.15524642595E+04  0.15680844683E+04  0.16500000000E+03 0.  0.
   -5000001    1    1    2    0    0  0.12600154607E+03 -0.75114798609E+02  0.17883919182E+04  0.18019681672E+04  0.16500000000E+03 0.  0.
<mgrwt>
<rscale>  0 0.44264519E+03</rscale>
<asrwt>0</asrwt>
<pdfrwt beam="1">  1        2 0.47935086E+00 0.44264519E+03</pdfrwt>
<pdfrwt beam="2">  1       -2 0.20854603E-02 0.44264519E+03</pdfrwt>
<totfact> 0.12604638E+03</totfact>
</mgrwt>
</event>
<event>
 4    1  0.5387486E-005  0.5854309E+03  0.7818608E-02  0.9936102E-01
         -2   -1    0    0    0  501 -0.00000000000E+00  0.00000000000E+00  0.17126743700E+03  0.17126743702E+03  0.25500000000E-02 0.  1.
          2   -1    0    0  501    0  0.00000000000E+00 -0.00000000000E+00 -0.50028385603E+03  0.50028385603E+03  0.25500000000E-02 0. -1.
    5000001    1    1    2    0    0 -0.14282129684E+03  0.33175620306E+02 -0.38503553872E+03  0.44381968263E+03  0.16500000000E+03 0.  0.
   -5000001    1    1    2    0    0  0.14282129684E+03 -0.33175620306E+02  0.56019119695E+02  0.22773161042E+03  0.16500000000E+03 0.  0.
<mgrwt>
<rscale>  0 0.58543090E+03</rscale>
<asrwt>0</asrwt>
<pdfrwt beam="1">  1        2 0.71469122E-01 0.58543090E+03</pdfrwt>
<pdfrwt beam="2">  1       -2 0.24466777E-01 0.58543090E+03</pdfrwt>
<totfact> 0.10018998E+03</totfact>
</mgrwt>
</event>
<event>
 4    1  0.5387486E-005  0.9126070E+03  0.7818608E-02  0.9409958E-01
          2   -1    0    0  501    0  0.00000000000E+00  0.00000000000E+00  0.15708433677E+04  0.15708433677E+04  0.25500000000E-02 0.  1.
         -2   -1    0    0    0  501 -0.00000000000E+00 -0.00000000000E+00 -0.13254846116E+03  0.13254846118E+03  0.25500000000E-02 0. -1.
    5000001    1    1    2    0    0  0.37582881009E+03 -0.15872536180E+03  0.49402694983E+03  0.66161065751E+03  0.16500000000E+03 0.  0.
   -5000001    1    1    2    0    0 -0.37582881009E+03  0.15872536180E+03  0.94426795673E+03  0.10417811714E+04  0.16500000000E+03 0.  0.
<mgrwt>
<rscale>  0 0.91260697E+03</rscale>
<asrwt>0</asrwt>
<pdfrwt beam="1">  1        2 0.22440619E+00 0.91260697E+03</pdfrwt>
<pdfrwt beam="2">  1       -2 0.18935495E-01 0.91260697E+03</pdfrwt>
<totfact> 0.31556255E+02</totfact>
</mgrwt>
</event>
<event>
 4    1  0.5387486E-005  0.7447635E+03  0.7818608E-02  0.9643602E-01
         -2   -1    0    0    0  501 -0.00000000000E+00  0.00000000000E+00  0.46966685843E+03  0.46966685844E+03  0.25500000000E-02 0. -1.
          2   -1    0    0  501    0  0.00000000000E+00 -0.00000000000E+00 -0.29524790233E+03  0.29524790234E+03  0.25500000000E-02 0.  1.
    5000001    1    1    2    0    0 -0.29591171049E+03  0.10872071974E+03 -0.25576283654E+02  0.35673951504E+03  0.16500000000E+03 0.  0.
   -5000001    1    1    2    0    0  0.29591171049E+03 -0.10872071974E+03  0.19999523975E+03  0.40817524574E+03  0.16500000000E+03 0.  0.
<mgrwt>
<rscale>  0 0.74476347E+03</rscale>
<asrwt>0</asrwt>
<pdfrwt beam="1">  1        2 0.42178272E-01 0.74476347E+03</pdfrwt>
<pdfrwt beam="2">  1       -2 0.67095265E-01 0.74476347E+03</pdfrwt>
<totfact> 0.24959461E+02</totfact>
</mgrwt>
</event>
<event>
 4    1  0.5387486E-005  0.9010666E+03  0.7818608E-02  0.9424249E-01
         -2   -1    0    0    0  501 -0.00000000000E+00  0.00000000000E+00  0.10060031718E+03  0.10060031721E+03  0.25500000000E-02 0. -1.
          2   -1    0    0  501    0  0.00000000000E+00 -0.00000000000E+00 -0.20176898157E+04  0.20176898157E+04  0.25500000000E-02 0.  1.
    5000001    1    1    2    0    0 -0.14847252543E+03 -0.39183376892E+03 -0.92722941788E+03  0.10308041456E+04  0.16500000000E+03 0.  0.
   -5000001    1    1    2    0    0  0.14847252543E+03  0.39183376892E+03 -0.98986008062E+03  0.10874859873E+04  0.16500000000E+03 0.  0.
<mgrwt>
<rscale>  0 0.90106656E+03</rscale>
<asrwt>0</asrwt>
<pdfrwt beam="1">  1        2 0.28824138E+00 0.90106656E+03</pdfrwt>
<pdfrwt beam="2">  1       -2 0.14371475E-01 0.90106656E+03</pdfrwt>
<totfact> 0.29872874E+02</totfact>
</mgrwt>
</event>
<event>
 4    1  0.5387486E-005  0.5592492E+03  0.7818608E-02  0.9993755E-01
          2   -1    0    0  501    0  0.00000000000E+00  0.00000000000E+00  0.52501593016E+03  0.52501593017E+03  0.25500000000E-02 0. -1.
         -2   -1    0    0    0  501 -0.00000000000E+00 -0.00000000000E+00 -0.14892863998E+03  0.14892864000E+03  0.25500000000E-02 0.  1.
    5000001    1    1    2    0    0 -0.18455223801E+03 -0.64016950504E+02  0.51665086782E+02  0.26086774369E+03  0.16500000000E+03 0.  0.
   -5000001    1    1    2    0    0  0.18455223801E+03  0.64016950504E+02  0.32442220340E+03  0.41307682647E+03  0.16500000000E+03 0.  0.
<mgrwt>
<rscale>  0 0.55924917E+03</rscale>
<asrwt>0</asrwt>
<pdfrwt beam="1">  1        2 0.75002275E-01 0.55924917E+03</pdfrwt>
<pdfrwt beam="2">  1       -2 0.21275520E-01 0.55924917E+03</pdfrwt>
<totfact> 0.12147444E+03</totfact>
</mgrwt>
</event>
<event>
 4    1  0.5387486E-005  0.7554406E+03  0.7818608E-02  0.9626853E-01
         -2   -1    0    0    0  501 -0.00000000000E+00  0.00000000000E+00  0.21162927824E+03  0.21162927825E+03  0.25500000000E-02 0. -1.
          2   -1    0    0  501    0  0.00000000000E+00 -0.00000000000E+00 -0.67416294367E+03  0.67416294367E+03  0.25500000000E-02 0.  1.
    5000001    1    1    2    0    0 -0.15048488911E+03 -0.12269323079E+03 -0.55821353845E+03  0.61361770284E+03  0.16500000000E+03 0.  0.
   -5000001    1    1    2    0    0  0.15048488911E+03  0.12269323079E+03  0.95679873019E+02  0.27217451908E+03  0.16500000000E+03 0.  0.
<mgrwt>
<rscale>  0 0.75544058E+03</rscale>
<asrwt>0</asrwt>
<pdfrwt beam="1">  1        2 0.96308991E-01 0.75544058E+03</pdfrwt>
<pdfrwt beam="2">  1       -2 0.30232754E-01 0.75544058E+03</pdfrwt>
<totfact> 0.47817071E+02</totfact>
</mgrwt>
</event>
<event>
 4    1  0.5387486E-005  0.4113377E+03  0.7818608E-02  0.1039923E+00
         -2   -1    0    0    0  501 -0.00000000000E+00  0.00000000000E+00  0.98040208015E+02  0.98040208049E+02  0.25500000000E-02 0. -1.
          2   -1    0    0  501    0  0.00000000000E+00 -0.00000000000E+00 -0.43145230232E+03  0.43145230233E+03  0.25500000000E-02 0.  1.
    5000001    1    1    2    0    0 -0.10293646672E+03 -0.66478045959E+02 -0.15678283812E+03  0.25849778550E+03  0.16500000000E+03 0.  0.
   -5000001    1    1    2    0    0  0.10293646672E+03  0.66478045959E+02 -0.17662925618E+03  0.27099472489E+03  0.16500000000E+03 0.  0.
<mgrwt>
<rscale>  0 0.41133769E+03</rscale>
<asrwt>0</asrwt>
<pdfrwt beam="1">  1        2 0.61636042E-01 0.41133769E+03</pdfrwt>
<pdfrwt beam="2">  1       -2 0.14005744E-01 0.41133769E+03</pdfrwt>
<totfact> 0.30796694E+03</totfact>
</mgrwt>
</event>
<event>
 4    1  0.5387486E-005  0.5462710E+03  0.7818608E-02  0.1002361E+00
         -2   -1    0    0    0  501 -0.00000000000E+00  0.00000000000E+00  0.44700180232E+02  0.44700180305E+02  0.25500000000E-02 0. -1.
          2   -1    0    0  501    0  0.00000000000E+00 -0.00000000000E+00 -0.16689639983E+04  0.16689639983E+04  0.25500000000E-02 0.  1.
    5000001    1    1    2    0    0  0.69502137455E+02 -0.18107862009E+03 -0.11220147400E+04  0.11505486041E+04  0.16500000000E+03 0.  0.
   -5000001    1    1    2    0    0 -0.69502137455E+02  0.18107862009E+03 -0.50224907810E+03  0.56311557447E+03  0.16500000000E+03 0.  0.
<mgrwt>
<rscale>  0 0.54627096E+03</rscale>
<asrwt>0</asrwt>
<pdfrwt beam="1">  1        2 0.23842339E+00 0.54627096E+03</pdfrwt>
<pdfrwt beam="2">  1       -2 0.63857411E-02 0.54627096E+03</pdfrwt>
<totfact> 0.17080817E+03</totfact>
</mgrwt>
</event>
<event>
 4    1  0.5387486E-005  0.3960958E+03  0.7818608E-02  0.1045140E+00
          2   -1    0    0  501    0  0.00000000000E+00  0.00000000000E+00  0.97360706493E+03  0.97360706493E+03  0.25500000000E-02 0.  1.
         -2   -1    0    0    0  501 -0.00000000000E+00 -0.00000000000E+00 -0.40286240156E+02  0.40286240237E+02  0.25500000000E-02 0. -1.
    5000001    1    1    2    0    0 -0.10074308347E+03  0.27163047352E+01  0.57650244642E+03  0.60805971574E+03  0.16500000000E+03 0.  0.
   -5000001    1    1    2    0    0  0.10074308347E+03 -0.27163047352E+01  0.35681837835E+03  0.40583358943E+03  0.16500000000E+03 0.  0.
<mgrwt>
<rscale>  0 0.39609579E+03</rscale>
<asrwt>0</asrwt>
<pdfrwt beam="1">  1        2 0.13908672E+00 0.39609579E+03</pdfrwt>
<pdfrwt beam="2">  1       -2 0.57551771E-02 0.39609579E+03</pdfrwt>
<totfact> 0.47950393E+03</totfact>
</mgrwt>
</event>
<event>
 4    1  0.5387486E-005  0.4662722E+03  0.7818608E-02  0.1022978E+00
         -2   -1    0    0    0  501 -0.00000000000E+00  0.00000000000E+00  0.19584046020E+03  0.19584046022E+03  0.25500000000E-02 0. -1.
          2   -1    0    0  501    0  0.00000000000E+00 -0.00000000000E+00 -0.27753422799E+03  0.27753422800E+03  0.25500000000E-02 0.  1.
    5000001    1    1    2    0    0  0.13637930754E+03  0.92334020451E+02 -0.39227570800E+02  0.23640788728E+03  0.16500000000E+03 0.  0.
   -5000001    1    1    2    0    0 -0.13637930754E+03 -0.92334020451E+02 -0.42466196989E+02  0.23696680093E+03  0.16500000000E+03 0.  0.
<mgrwt>
<rscale>  0 0.46627216E+03</rscale>
<asrwt>0</asrwt>
<pdfrwt beam="1">  1        2 0.39647747E-01 0.46627216E+03</pdfrwt>
<pdfrwt beam="2">  1       -2 0.27977209E-01 0.46627216E+03</pdfrwt>
<totfact> 0.15108685E+03</totfact>
</mgrwt>
</event>
<event>
 4    1  0.5387486E-005  0.1433103E+04  0.7818608E-02  0.8930199E-01
          2   -1    0    0  501    0  0.00000000000E+00  0.00000000000E+00  0.20876839625E+04  0.20876839625E+04  0.25500000000E-02 0.  1.
         -2   -1    0    0    0  501 -0.00000000000E+00 -0.00000000000E+00 -0.24594058638E+03  0.24594058639E+03  0.25500000000E-02 0. -1.
    5000001    1    1    2    0    0 -0.19921718349E+03 -0.64896185852E+03  0.11803006541E+04  0.13715588263E+04  0.16500000000E+03 0.  0.
   -5000001    1    1    2    0    0  0.19921718349E+03  0.64896185852E+03  0.66144272201E+03  0.96206572255E+03  0.16500000000E+03 0.  0.
<mgrwt>
<rscale>  0 0.14331032E+04</rscale>
<asrwt>0</asrwt>
<pdfrwt beam="1">  1        2 0.29824057E+00 0.14331032E+04</pdfrwt>
<pdfrwt beam="2">  1       -2 0.35134369E-01 0.14331032E+04</pdfrwt>
<totfact> 0.53453927E+01</totfact>
</mgrwt>
</event>
<event>
 4    1  0.5387486E-005  0.4507196E+03  0.7818608E-02  0.1027508E+00
         -2   -1    0    0    0  501 -0.00000000000E+00  0.00000000000E+00  0.13827310868E+03  0.13827310870E+03  0.25500000000E-02 0. -1.
          2   -1    0    0  501    0  0.00000000000E+00 -0.00000000000E+00 -0.36729508228E+03  0.36729508229E+03  0.25500000000E-02 0.  1.
    5000001    1    1    2    0    0  0.56999113322E+02  0.41542324135E+02 -0.26743732465E+03  0.32205960043E+03  0.16500000000E+03 0.  0.
   -5000001    1    1    2    0    0 -0.56999113322E+02 -0.41542324135E+02  0.38415351041E+02  0.18350859056E+03  0.16500000000E+03 0.  0.
<mgrwt>
<rscale>  0 0.45071957E+03</rscale>
<asrwt>0</asrwt>
<pdfrwt beam="1">  1        2 0.52470726E-01 0.45071957E+03</pdfrwt>
<pdfrwt beam="2">  1       -2 0.19753301E-01 0.45071957E+03</pdfrwt>
<totfact> 0.20579359E+03</totfact>
</mgrwt>
</event>
<event>
 4    1  0.5387486E-005  0.3972865E+03  0.7818608E-02  0.1044723E+00
          2   -1    0    0  501    0  0.00000000000E+00  0.00000000000E+00  0.11997233015E+04  0.11997233015E+04  0.25500000000E-02 0.  1.
         -2   -1    0    0    0  501 -0.00000000000E+00 -0.00000000000E+00 -0.32890202582E+02  0.32890202681E+02  0.25500000000E-02 0. -1.
    5000001    1    1    2    0    0  0.56516584311E+02  0.44157960201E+02  0.84466219612E+03  0.86361060398E+03  0.16500000000E+03 0.  0.
   -5000001    1    1    2    0    0 -0.56516584311E+02 -0.44157960201E+02  0.32217090282E+03  0.36900290022E+03  0.16500000000E+03 0.  0.
<mgrwt>
<rscale>  0 0.39728651E+03</rscale>
<asrwt>0</asrwt>
<pdfrwt beam="1">  1        2 0.17138903E+00 0.39728651E+03</pdfrwt>
<pdfrwt beam="2">  1       -2 0.46986009E-02 0.39728651E+03</pdfrwt>
<totfact> 0.48513377E+03</totfact>
</mgrwt>
</event>
<event>
 4    1  0.5387486E-005  0.1095819E+04  0.7818608E-02  0.9209277E-01
          2   -1    0    0  501    0  0.00000000000E+00  0.00000000000E+00  0.25661578163E+04  0.25661578163E+04  0.25500000000E-02 0.  1.
         -2   -1    0    0    0  501 -0.00000000000E+00 -0.00000000000E+00 -0.11698610400E+03  0.11698610403E+03  0.25500000000E-02 0. -1.
    5000001    1    1    2    0    0  0.48323892088E+03 -0.17864577000E+03  0.10118928659E+04  0.11474259618E+04  0.16500000000E+03 0.  0.
   -5000001    1    1    2    0    0 -0.48323892088E+03  0.17864577000E+03  0.14372788464E+04  0.15357179585E+04  0.16500000000E+03 0.  0.
<mgrwt>
<rscale>  0 0.10958190E+04</rscale>
<asrwt>0</asrwt>
<pdfrwt beam="1">  1        2 0.36659395E+00 0.10958190E+04</pdfrwt>
<pdfrwt beam="2">  1       -2 0.16712302E-01 0.10958190E+04</pdfrwt>
<totfact> 0.11883934E+02</totfact>
</mgrwt>
</event>
<event>
 4    1  0.5387486E-005  0.5031892E+03  0.7818608E-02  0.1012950E+00
         -2   -1    0    0    0  501 -0.00000000000E+00  0.00000000000E+00  0.14055814815E+03  0.14055814817E+03  0.25500000000E-02 0. -1.
          2   -1    0    0  501    0  0.00000000000E+00 -0.00000000000E+00 -0.45034624634E+03  0.45034624634E+03  0.25500000000E-02 0.  1.
    5000001    1    1    2    0    0  0.37667308989E+02  0.16851238562E+03 -0.24780324000E+03  0.34416085778E+03  0.16500000000E+03 0.  0.
   -5000001    1    1    2    0    0 -0.37667308989E+02 -0.16851238562E+03 -0.61984858186E+02  0.24674353673E+03  0.16500000000E+03 0.  0.
<mgrwt>
<rscale>  0 0.50318917E+03</rscale>
<asrwt>0</asrwt>
<pdfrwt beam="1">  1        2 0.64335178E-01 0.50318917E+03</pdfrwt>
<pdfrwt beam="2">  1       -2 0.20079736E-01 0.50318917E+03</pdfrwt>
<totfact> 0.15979555E+03</totfact>
</mgrwt>
</event>
<event>
 4    1  0.5387486E-005  0.3873900E+03  0.7818608E-02  0.1048236E+00
          2   -1    0    0  501    0  0.00000000000E+00  0.00000000000E+00  0.13389007443E+04  0.13389007443E+04  0.25500000000E-02 0.  1.
         -2   -1    0    0    0  501 -0.00000000000E+00 -0.00000000000E+00 -0.28021308314E+02  0.28021308430E+02  0.25500000000E-02 0. -1.
    5000001    1    1    2    0    0  0.23243885370E+02 -0.62057042096E+02  0.92650427530E+03  0.94341217229E+03  0.16500000000E+03 0.  0.
   -5000001    1    1    2    0    0 -0.23243885370E+02  0.62057042096E+02  0.38437516072E+03  0.42350988047E+03  0.16500000000E+03 0.  0.
<mgrwt>
<rscale>  0 0.38738999E+03</rscale>
<asrwt>0</asrwt>
<pdfrwt beam="1">  1        2 0.19127159E+00 0.38738999E+03</pdfrwt>
<pdfrwt beam="2">  1       -2 0.40030429E-02 0.38738999E+03</pdfrwt>
<totfact> 0.52089047E+03</totfact>
</mgrwt>
</event>
<event>
 4    1  0.5387486E-005  0.4595715E+03  0.7818608E-02  0.1024906E+00
          2   -1    0    0  501    0  0.00000000000E+00  0.00000000000E+00  0.10986843407E+04  0.10986843407E+04  0.25500000000E-02 0.  1.
         -2   -1    0    0    0  501 -0.00000000000E+00 -0.00000000000E+00 -0.48058840516E+02  0.48058840584E+02  0.25500000000E-02 0. -1.
    5000001    1    1    2    0    0  0.12993659662E+03 -0.60816245854E+02  0.34897186797E+03  0.41181124261E+03  0.16500000000E+03 0.  0.
   -5000001    1    1    2    0    0 -0.12993659662E+03  0.60816245854E+02  0.70165363224E+03  0.73493193871E+03  0.16500000000E+03 0.  0.
<mgrwt>
<rscale>  0 0.45957152E+03</rscale>
<asrwt>0</asrwt>
<pdfrwt beam="1">  1        2 0.15695490E+00 0.45957152E+03</pdfrwt>
<pdfrwt beam="2">  1       -2 0.68655488E-02 0.45957152E+03</pdfrwt>
<totfact> 0.30765802E+03</totfact>
</mgrwt>
</event>
<event>
 4    1  0.5387486E-005  0.5162858E+03  0.7818608E-02  0.1009613E+00
          2   -1    0    0  501    0  0.00000000000E+00  0.00000000000E+00  0.58735184096E+02  0.58735184151E+02  0.25500000000E-02 0.  1.
         -2   -1    0    0    0  501 -0.00000000000E+00 -0.00000000000E+00 -0.11345456525E+04  0.11345456525E+04  0.25500000000E-02 0. -1.
    5000001    1    1    2    0    0  0.15988015697E+02 -0.16404050456E+03 -0.28211595468E+03  0.36603185062E+03  0.16500000000E+03 0.  0.
   -5000001    1    1    2    0    0 -0.15988015697E+02  0.16404050456E+03 -0.79369451370E+03  0.82724898601E+03  0.16500000000E+03 0.  0.
<mgrwt>
<rscale>  0 0.51628577E+03</rscale>
<asrwt>0</asrwt>
<pdfrwt beam="1">  1        2 0.83907413E-02 0.51628577E+03</pdfrwt>
<pdfrwt beam="2">  1       -2 0.16207794E+00 0.51628577E+03</pdfrwt>
<totfact> 0.20639436E+02</totfact>
</mgrwt>
</event>
<event>
 4    1  0.5387486E-005  0.5496175E+03  0.7818608E-02  0.1001583E+00
         -2   -1    0    0    0  501 -0.00000000000E+00  0.00000000000E+00  0.47424237831E+02  0.47424237899E+02  0.25500000000E-02 0. -1.
          2   -1    0    0  501    0  0.00000000000E+00 -0.00000000000E+00 -0.15924313946E+04  0.15924313946E+04  0.25500000000E-02 0.  1.
    5000001    1    1    2    0    0  0.13180264244E+03  0.14288373128E+03 -0.10783388001E+04  0.11080736731E+04  0.16500000000E+03 0.  0.
   -5000001    1    1    2    0    0 -0.13180264244E+03 -0.14288373128E+03 -0.46666835662E+03  0.53178195936E+03  0.16500000000E+03 0.  0.
<mgrwt>
<rscale>  0 0.54961749E+03</rscale>
<asrwt>0</asrwt>
<pdfrwt beam="1">  1        2 0.22749017E+00 0.54961749E+03</pdfrwt>
<pdfrwt beam="2">  1       -2 0.67748921E-02 0.54961749E+03</pdfrwt>
<totfact> 0.17027773E+03</totfact>
</mgrwt>
</event>
<event>
 4    1  0.5387486E-005  0.4682009E+03  0.7818608E-02  0.1022429E+00
          2   -1    0    0  501    0  0.00000000000E+00  0.00000000000E+00  0.11668205915E+03  0.11668205918E+03  0.25500000000E-02 0.  1.
         -2   -1    0    0    0  501 -0.00000000000E+00 -0.00000000000E+00 -0.46967827454E+03  0.46967827455E+03  0.25500000000E-02 0. -1.
    5000001    1    1    2    0    0 -0.81112442922E+02  0.77314531563E+02 -0.32999003343E+03  0.38558421564E+03  0.16500000000E+03 0.  0.
   -5000001    1    1    2    0    0  0.81112442922E+02 -0.77314531563E+02 -0.23006181959E+02  0.20077611809E+03  0.16500000000E+03 0.  0.
<mgrwt>
<rscale>  0 0.46820093E+03</rscale>
<asrwt>0</asrwt>
<pdfrwt beam="1">  1        2 0.16668866E-01 0.46820093E+03</pdfrwt>
<pdfrwt beam="2">  1       -2 0.67096895E-01 0.46820093E+03</pdfrwt>
<totfact> 0.72328485E+02</totfact>
</mgrwt>
</event>
<event>
 4    1  0.5387486E-005  0.1180012E+04  0.7818608E-02  0.9130534E-01
         -2   -1    0    0    0  501 -0.00000000000E+00  0.00000000000E+00  0.22911993231E+03  0.22911993232E+03  0.25500000000E-02 0. -1.
          2   -1    0    0  501    0  0.00000000000E+00 -0.00000000000E+00 -0.15193222664E+04  0.15193222664E+04  0.25500000000E-02 0.  1.
    5000001    1    1    2    0    0 -0.53928706113E+03  0.18751613355E+02 -0.38974751137E+03  0.68579171759E+03  0.16500000000E+03 0.  0.
   -5000001    1    1    2    0    0  0.53928706113E+03 -0.18751613355E+02 -0.90045482275E+03  0.10626504812E+04  0.16500000000E+03 0.  0.
<mgrwt>
<rscale>  0 0.11800119E+04</rscale>
<asrwt>0</asrwt>
<pdfrwt beam="1">  1        2 0.21704603E+00 0.11800119E+04</pdfrwt>
<pdfrwt beam="2">  1       -2 0.32731420E-01 0.11800119E+04</pdfrwt>
<totfact> 0.12263761E+02</totfact>
</mgrwt>
</event>
<event>
 4    1  0.5387486E-005  0.1266717E+04  0.7818608E-02  0.9056384E-01
          2   -1    0    0  501    0  0.00000000000E+00  0.00000000000E+00  0.14829284173E+04  0.14829284173E+04  0.25500000000E-02 0.  1.
         -2   -1    0    0    0  501 -0.00000000000E+00 -0.00000000000E+00 -0.27050719011E+03  0.27050719012E+03  0.25500000000E-02 0. -1.
    5000001    1    1    2    0    0 -0.15986945224E+03  0.58465270059E+03  0.71816084752E+03  0.95412631500E+03  0.16500000000E+03 0.  0.
   -5000001    1    1    2    0    0  0.15986945224E+03 -0.58465270059E+03  0.49426037971E+03  0.79930929247E+03  0.16500000000E+03 0.  0.
<mgrwt>
<rscale>  0 0.12667167E+04</rscale>
<asrwt>0</asrwt>
<pdfrwt beam="1">  1        2 0.21184691E+00 0.12667167E+04</pdfrwt>
<pdfrwt beam="2">  1       -2 0.38643886E-01 0.12667167E+04</pdfrwt>
<totfact> 0.92752614E+01</totfact>
</mgrwt>
</event>
<event>
 4    1  0.5387486E-005  0.3790010E+03  0.7818608E-02  0.1051304E+00
          2   -1    0    0  501    0  0.00000000000E+00  0.00000000000E+00  0.75764720394E+03  0.75764720394E+03  0.25500000000E-02 0. -1.
         -2   -1    0    0    0  501 -0.00000000000E+00 -0.00000000000E+00 -0.47397300200E+02  0.47397300268E+02  0.25500000000E-02 0.  1.
    5000001    1    1    2    0    0 -0.89257481303E+01  0.87123837705E+02  0.42280417537E+03  0.46223219575E+03  0.16500000000E+03 0.  0.
   -5000001    1    1    2    0    0  0.89257481303E+01 -0.87123837705E+02  0.28744572837E+03  0.34281230846E+03  0.16500000000E+03 0.  0.
<mgrwt>
<rscale>  0 0.37900096E+03</rscale>
<asrwt>0</asrwt>
<pdfrwt beam="1">  1        2 0.10823531E+00 0.37900096E+03</pdfrwt>
<pdfrwt beam="2">  1       -2 0.67710429E-02 0.37900096E+03</pdfrwt>
<totfact> 0.51482544E+03</totfact>
</mgrwt>
</event>
<event>
 4    1  0.5387486E-005  0.6679472E+03  0.7818608E-02  0.9773673E-01
          2   -1    0    0  501    0  0.00000000000E+00  0.00000000000E+00  0.15812462285E+04  0.15812462285E+04  0.25500000000E-02 0.  1.
         -2   -1    0    0    0  501 -0.00000000000E+00 -0.00000000000E+00 -0.70538267604E+02  0.70538267650E+02  0.25500000000E-02 0. -1.
    5000001    1    1    2    0    0 -0.90818306300E+02  0.23687403767E+03  0.11046945524E+04  0.11453961448E+04  0.16500000000E+03 0.  0.
   -5000001    1    1    2    0    0  0.90818306300E+02 -0.23687403767E+03  0.40601340851E+03  0.50638835133E+03  0.16500000000E+03 0.  0.
<mgrwt>
<rscale>  0 0.66794721E+03</rscale>
<asrwt>0</asrwt>
<pdfrwt beam="1">  1        2 0.22589225E+00 0.66794721E+03</pdfrwt>
<pdfrwt beam="2">  1       -2 0.10076898E-01 0.66794721E+03</pdfrwt>
<totfact> 0.91044839E+02</totfact>
</mgrwt>
</event>
<event>
 4    1  0.5387486E-005  0.4456069E+03  0.7818608E-02  0.1029040E+00
         -2   -1    0    0    0  501 -0.00000000000E+00  0.00000000000E+00  0.94014624342E+02  0.94014624376E+02  0.25500000000E-02 0. -1.
          2   -1    0    0  501    0  0.00000000000E+00 -0.00000000000E+00 -0.52801764604E+03  0.52801764605E+03  0.25500000000E-02 0.  1.
    5000001    1    1    2    0    0  0.36505409972E+02 -0.13871574503E+03 -0.27690716545E+03  0.35281338006E+03  0.16500000000E+03 0.  0.
   -5000001    1    1    2    0    0 -0.36505409972E+02  0.13871574503E+03 -0.15709585625E+03  0.26921889036E+03  0.16500000000E+03 0.  0.
<mgrwt>
<rscale>  0 0.44560691E+03</rscale>
<asrwt>0</asrwt>
<pdfrwt beam="1">  1        2 0.75431091E-01 0.44560691E+03</pdfrwt>
<pdfrwt beam="2">  1       -2 0.13430661E-01 0.44560691E+03</pdfrwt>
<totfact> 0.26361945E+03</totfact>
</mgrwt>
</event>
<event>
 4    1  0.5387486E-005  0.9889747E+03  0.7818608E-02  0.9320720E-01
          2   -1    0    0  501    0  0.00000000000E+00  0.00000000000E+00  0.67212296276E+03  0.67212296277E+03  0.25500000000E-02 0.  1.
         -2   -1    0    0    0  501 -0.00000000000E+00 -0.00000000000E+00 -0.36379910552E+03  0.36379910553E+03  0.25500000000E-02 0. -1.
    5000001    1    1    2    0    0  0.38584175700E+03  0.23962238402E+03  0.26402151048E+03  0.55065879305E+03  0.16500000000E+03 0.  0.
   -5000001    1    1    2    0    0 -0.38584175700E+03 -0.23962238402E+03  0.44302346765E+02  0.48526327524E+03  0.16500000000E+03 0.  0.
<mgrwt>
<rscale>  0 0.98897469E+03</rscale>
<asrwt>0</asrwt>
<pdfrwt beam="1">  1        2 0.96017565E-01 0.98897469E+03</pdfrwt>
<pdfrwt beam="2">  1       -2 0.51971301E-01 0.98897469E+03</pdfrwt>
<totfact> 0.16522697E+02</totfact>
</mgrwt>
</event>
<event>
 4    1  0.5387486E-005  0.5594557E+03  0.7818608E-02  0.9993287E-01
          2   -1    0    0  501    0  0.00000000000E+00  0.00000000000E+00  0.24368132563E+04  0.24368132563E+04  0.25500000000E-02 0.  1.
         -2   -1    0    0    0  501 -0.00000000000E+00 -0.00000000000E+00 -0.32110655731E+02  0.32110655832E+02  0.25500000000E-02 0. -1.
    5000001    1    1    2    0    0  0.92117063871E+02 -0.20223888174E+03  0.10238230177E+04  0.10605775268E+04  0.16500000000E+03 0.  0.
   -5000001    1    1    2    0    0 -0.92117063871E+02  0.20223888174E+03  0.13808795829E+04  0.14083463854E+04  0.16500000000E+03 0.  0.
<mgrwt>
<rscale>  0 0.55945571E+03</rscale>
<asrwt>0</asrwt>
<pdfrwt beam="1">  1        2 0.34811637E+00 0.55945571E+03</pdfrwt>
<pdfrwt beam="2">  1       -2 0.45872341E-02 0.55945571E+03</pdfrwt>
<totfact> 0.11723092E+03</totfact>
</mgrwt>
</event>
<event>
 4    1  0.5387486E-005  0.3691124E+03  0.7818608E-02  0.1055033E+00
         -2   -1    0    0    0  501 -0.00000000000E+00  0.00000000000E+00  0.15069321489E+03  0.15069321491E+03  0.25500000000E-02 0. -1.
          2   -1    0    0  501    0  0.00000000000E+00 -0.00000000000E+00 -0.22602868402E+03  0.22602868404E+03  0.25500000000E-02 0.  1.
    5000001    1    1    2    0    0 -0.65441024346E+02 -0.11490706617E+02  0.12554699741E+02  0.17831765053E+03  0.16500000000E+03 0.  0.
   -5000001    1    1    2    0    0  0.65441024346E+02  0.11490706617E+02 -0.87890168872E+02  0.19840424842E+03  0.16500000000E+03 0.  0.
<mgrwt>
<rscale>  0 0.36911239E+03</rscale>
<asrwt>0</asrwt>
<pdfrwt beam="1">  1        2 0.32289812E-01 0.36911239E+03</pdfrwt>
<pdfrwt beam="2">  1       -2 0.21527602E-01 0.36911239E+03</pdfrwt>
<totfact> 0.30071560E+03</totfact>
</mgrwt>
</event>
<event>
 4    1  0.5387486E-005  0.6279387E+03  0.7818608E-02  0.9849080E-01
         -2   -1    0    0    0  501 -0.00000000000E+00  0.00000000000E+00  0.61983746506E+02  0.61983746558E+02  0.25500000000E-02 0. -1.
          2   -1    0    0  501    0  0.00000000000E+00 -0.00000000000E+00 -0.15903643971E+04  0.15903643971E+04  0.25500000000E-02 0.  1.
    5000001    1    1    2    0    0 -0.30651868674E+01  0.25780110952E+03 -0.94802858275E+03  0.99621985583E+03  0.16500000000E+03 0.  0.
   -5000001    1    1    2    0    0  0.30651868674E+01 -0.25780110952E+03 -0.58035206787E+03  0.65612828786E+03  0.16500000000E+03 0.  0.
<mgrwt>
<rscale>  0 0.62793867E+03</rscale>
<asrwt>0</asrwt>
<pdfrwt beam="1">  1        2 0.22719489E+00 0.62793867E+03</pdfrwt>
<pdfrwt beam="2">  1       -2 0.88548219E-02 0.62793867E+03</pdfrwt>
<totfact> 0.11118829E+03</totfact>
</mgrwt>
</event>
<event>
 4    1  0.5387486E-005  0.3988834E+03  0.7818608E-02  0.1044167E+00
          2   -1    0    0  501    0  0.00000000000E+00  0.00000000000E+00  0.19785774102E+04  0.19785774102E+04  0.25500000000E-02 0.  1.
         -2   -1    0    0    0  501 -0.00000000000E+00 -0.00000000000E+00 -0.20103835689E+02  0.20103835851E+02  0.25500000000E-02 0. -1.
    5000001    1    1    2    0    0 -0.72928961739E+02 -0.84082174259E+02  0.10433168016E+04  0.10621315333E+04  0.16500000000E+03 0.  0.
   -5000001    1    1    2    0    0  0.72928961739E+02  0.84082174259E+02  0.91515677293E+03  0.93654971279E+03  0.16500000000E+03 0.  0.
<mgrwt>
<rscale>  0 0.39888342E+03</rscale>
<asrwt>0</asrwt>
<pdfrwt beam="1">  1        2 0.28265399E+00 0.39888342E+03</pdfrwt>
<pdfrwt beam="2">  1       -2 0.28719758E-02 0.39888342E+03</pdfrwt>
<totfact> 0.40852377E+03</totfact>
</mgrwt>
</event>
<event>
 4    1  0.5387486E-005  0.4211834E+03  0.7818608E-02  0.1036682E+00
         -2   -1    0    0    0  501 -0.00000000000E+00  0.00000000000E+00  0.32443482226E+03  0.32443482227E+03  0.25500000000E-02 0. -1.
          2   -1    0    0  501    0  0.00000000000E+00 -0.00000000000E+00 -0.13669576059E+03  0.13669576061E+03  0.25500000000E-02 0.  1.
    5000001    1    1    2    0    0  0.12957564620E+03 -0.18263984145E+02  0.94598729597E+02  0.23086216850E+03  0.16500000000E+03 0.  0.
   -5000001    1    1    2    0    0 -0.12957564620E+03  0.18263984145E+02  0.93140332074E+02  0.23026841438E+03  0.16500000000E+03 0.  0.
<mgrwt>
<rscale>  0 0.42118340E+03</rscale>
<asrwt>0</asrwt>
<pdfrwt beam="1">  1        2 0.19527966E-01 0.42118340E+03</pdfrwt>
<pdfrwt beam="2">  1       -2 0.46347831E-01 0.42118340E+03</pdfrwt>
<totfact> 0.12863314E+03</totfact>
</mgrwt>
</event>
<event>
 4    1  0.5387486E-005  0.4009621E+03  0.7818608E-02  0.1043447E+00
         -2   -1    0    0    0  501 -0.00000000000E+00  0.00000000000E+00  0.43957134416E+02  0.43957134490E+02  0.25500000000E-02 0. -1.
          2   -1    0    0  501    0  0.00000000000E+00 -0.00000000000E+00 -0.91436032898E+03  0.91436032899E+03  0.25500000000E-02 0.  1.
    5000001    1    1    2    0    0 -0.76079699953E+02 -0.80666941432E+02 -0.49717632583E+03  0.53544801349E+03  0.16500000000E+03 0.  0.
   -5000001    1    1    2    0    0  0.76079699953E+02  0.80666941432E+02 -0.37322686874E+03  0.42286944999E+03  0.16500000000E+03 0.  0.
<mgrwt>
<rscale>  0 0.40096214E+03</rscale>
<asrwt>0</asrwt>
<pdfrwt beam="1">  1        2 0.13062289E+00 0.40096214E+03</pdfrwt>
<pdfrwt beam="2">  1       -2 0.62795912E-02 0.40096214E+03</pdfrwt>
<totfact> 0.45583501E+03</totfact>
</mgrwt>
</event>
<event>
 4    1  0.5387486E-005  0.4077233E+03  0.7818608E-02  0.1041138E+00
          2   -1    0    0  501    0  0.00000000000E+00  0.00000000000E+00  0.38790432934E+04  0.38790432934E+04  0.25500000000E-02 0.  1.
         -2   -1    0    0    0  501 -0.00000000000E+00 -0.00000000000E+00 -0.10713870753E+02  0.10713871056E+02  0.25500000000E-02 0. -1.
    5000001    1    1    2    0    0 -0.91391799188E+02 -0.60787042270E+02  0.14779238281E+04  0.14911510209E+04  0.16500000000E+03 0.  0.
   -5000001    1    1    2    0    0  0.91391799188E+02  0.60787042270E+02  0.23904055945E+04  0.23986061435E+04  0.16500000000E+03 0.  0.
<mgrwt>
<rscale>  0 0.40772328E+03</rscale>
<asrwt>0</asrwt>
<pdfrwt beam="1">  1        2 0.55414888E+00 0.40772328E+03</pdfrwt>
<pdfrwt beam="2">  1       -2 0.15305534E-02 0.40772328E+03</pdfrwt>
<totfact> 0.96848856E+02</totfact>
</mgrwt>
</event>
<event>
 4    1  0.5387486E-005  0.4042526E+03  0.7818608E-02  0.1042317E+00
          2   -1    0    0  501    0  0.00000000000E+00  0.00000000000E+00  0.20662170447E+04  0.20662170447E+04  0.25500000000E-02 0.  1.
         -2   -1    0    0    0  501 -0.00000000000E+00 -0.00000000000E+00 -0.19772869069E+02  0.19772869233E+02  0.25500000000E-02 0. -1.
    5000001    1    1    2    0    0  0.55453407865E+02 -0.94734231873E+02  0.12283575399E+04  0.12442414962E+04  0.16500000000E+03 0.  0.
   -5000001    1    1    2    0    0 -0.55453407865E+02  0.94734231873E+02  0.81808663573E+03  0.84174841769E+03  0.16500000000E+03 0.  0.
<mgrwt>
<rscale>  0 0.40425259E+03</rscale>
<asrwt>0</asrwt>
<pdfrwt beam="1">  1        2 0.29517377E+00 0.40425259E+03</pdfrwt>
<pdfrwt beam="2">  1       -2 0.28246965E-02 0.40425259E+03</pdfrwt>
<totfact> 0.37899724E+03</totfact>
</mgrwt>
</event>
<event>
 4    1  0.5387486E-005  0.6571420E+03  0.7818608E-02  0.9793469E-01
          2   -1    0    0  501    0  0.00000000000E+00  0.00000000000E+00  0.28192047125E+03  0.28192047126E+03  0.25500000000E-02 0.  1.
         -2   -1    0    0    0  501 -0.00000000000E+00 -0.00000000000E+00 -0.38294102056E+03  0.38294102057E+03  0.25500000000E-02 0. -1.
    5000001    1    1    2    0    0 -0.22643889518E+03  0.36521916966E+02  0.11916633425E+03  0.30664970062E+03  0.16500000000E+03 0.  0.
   -5000001    1    1    2    0    0  0.22643889518E+03 -0.36521916966E+02 -0.22018688356E+03  0.35821179121E+03  0.16500000000E+03 0.  0.
<mgrwt>
<rscale>  0 0.65714203E+03</rscale>
<asrwt>0</asrwt>
<pdfrwt beam="1">  1        2 0.40274353E-01 0.65714203E+03</pdfrwt>
<pdfrwt beam="2">  1       -2 0.54705860E-01 0.65714203E+03</pdfrwt>
<totfact> 0.40532109E+02</totfact>
</mgrwt>
</event>
<event>
 4    1  0.5387486E-005  0.5053711E+03  0.7818608E-02  0.1012386E+00
          2   -1    0    0  501    0  0.00000000000E+00  0.00000000000E+00  0.21095935822E+04  0.21095935822E+04  0.25500000000E-02 0.  1.
         -2   -1    0    0    0  501 -0.00000000000E+00 -0.00000000000E+00 -0.30266491108E+02  0.30266491215E+02  0.25500000000E-02 0. -1.
    5000001    1    1    2    0    0  0.80302402638E+02 -0.15532248196E+03  0.13690490889E+04  0.13899978263E+04  0.16500000000E+03 0.  0.
   -5000001    1    1    2    0    0 -0.80302402638E+02  0.15532248196E+03  0.71027800222E+03  0.74986224715E+03  0.16500000000E+03 0.  0.
<mgrwt>
<rscale>  0 0.50537113E+03</rscale>
<asrwt>0</asrwt>
<pdfrwt beam="1">  1        2 0.30137058E+00 0.50537113E+03</pdfrwt>
<pdfrwt beam="2">  1       -2 0.43237834E-02 0.50537113E+03</pdfrwt>
<totfact> 0.18826392E+03</totfact>
</mgrwt>
</event>
<event>
 4    1  0.5387486E-005  0.6518240E+03  0.7818608E-02  0.9803363E-01
          2   -1    0    0  501    0  0.00000000000E+00  0.00000000000E+00  0.13611041178E+04  0.13611041178E+04  0.25500000000E-02 0.  1.
         -2   -1    0    0    0  501 -0.00000000000E+00 -0.00000000000E+00 -0.78038590123E+02  0.78038590165E+02  0.25500000000E-02 0. -1.
    5000001    1    1    2    0    0  0.99422628367E+02 -0.19580142590E+03  0.10288273169E+04  0.10648632332E+04  0.16500000000E+03 0.  0.
   -5000001    1    1    2    0    0 -0.99422628367E+02  0.19580142590E+03  0.25423821079E+03  0.37427947478E+03  0.16500000000E+03 0.  0.
<mgrwt>
<rscale>  0 0.65182404E+03</rscale>
<asrwt>0</asrwt>
<pdfrwt beam="1">  1        2 0.19444345E+00 0.65182404E+03</pdfrwt>
<pdfrwt beam="2">  1       -2 0.11148370E-01 0.65182404E+03</pdfrwt>
<totfact> 0.10086796E+03</totfact>
</mgrwt>
</event>
<event>
 4    1  0.5387486E-005  0.3942683E+03  0.7818608E-02  0.1045783E+00
          2   -1    0    0  501    0  0.00000000000E+00  0.00000000000E+00  0.53464446092E+03  0.53464446093E+03  0.25500000000E-02 0.  1.
         -2   -1    0    0    0  501 -0.00000000000E+00 -0.00000000000E+00 -0.72687309954E+02  0.72687309999E+02  0.25500000000E-02 0. -1.
    5000001    1    1    2    0    0  0.10403085510E+03 -0.44814417319E+01  0.18756311960E+03  0.27064261669E+03  0.16500000000E+03 0.  0.
   -5000001    1    1    2    0    0 -0.10403085510E+03  0.44814417319E+01  0.27439403137E+03  0.33668915424E+03  0.16500000000E+03 0.  0.
<mgrwt>
<rscale>  0 0.39426827E+03</rscale>
<asrwt>0</asrwt>
<pdfrwt beam="1">  1        2 0.76377780E-01 0.39426827E+03</pdfrwt>
<pdfrwt beam="2">  1       -2 0.10383901E-01 0.39426827E+03</pdfrwt>
<totfact> 0.39466102E+03</totfact>
</mgrwt>
</event>
<event>
 4    1  0.5387486E-005  0.7431050E+03  0.7818608E-02  0.9646230E-01
          2   -1    0    0  501    0  0.00000000000E+00  0.00000000000E+00  0.28739333959E+04  0.28739333959E+04  0.25500000000E-02 0.  1.
         -2   -1    0    0    0  501 -0.00000000000E+00 -0.00000000000E+00 -0.48035644981E+02  0.48035645049E+02  0.25500000000E-02 0. -1.
    5000001    1    1    2    0    0 -0.26022483460E+03  0.20740565949E+03  0.13751981233E+04  0.14244749736E+04  0.16500000000E+03 0.  0.
   -5000001    1    1    2    0    0  0.26022483460E+03 -0.20740565949E+03  0.14506996277E+04  0.14974940674E+04  0.16500000000E+03 0.  0.
<mgrwt>
<rscale>  0 0.74310496E+03</rscale>
<asrwt>0</asrwt>
<pdfrwt beam="1">  1        2 0.41056205E+00 0.74310496E+03</pdfrwt>
<pdfrwt beam="2">  1       -2 0.68622328E-02 0.74310496E+03</pdfrwt>
<totfact> 0.36362934E+02</totfact>
</mgrwt>
</event>
<event>
 4    1  0.5387486E-005  0.5004622E+03  0.7818608E-02  0.1013658E+00
          2   -1    0    0  501    0  0.00000000000E+00  0.00000000000E+00  0.28630920910E+02  0.28630921024E+02  0.25500000000E-02 0.  1.
         -2   -1    0    0    0  501 -0.00000000000E+00 -0.00000000000E+00 -0.21869919238E+04  0.21869919238E+04  0.25500000000E-02 0. -1.
    5000001    1    1    2    0    0  0.16997463855E+03 -0.78958868194E+02 -0.11512102106E+04  0.11779795540E+04  0.16500000000E+03 0.  0.
   -5000001    1    1    2    0    0 -0.16997463855E+03  0.78958868194E+02 -0.10071507923E+04  0.10376432909E+04  0.16500000000E+03 0.  0.
<mgrwt>
<rscale>  0 0.50046216E+03</rscale>
<asrwt>0</asrwt>
<pdfrwt beam="1">  1        2 0.40901330E-02 0.50046216E+03</pdfrwt>
<pdfrwt beam="2">  1       -2 0.31242731E+00 0.50046216E+03</pdfrwt>
<totfact> 0.62004214E+01</totfact>
</mgrwt>
</event>
<event>
 4    1  0.5387486E-005  0.1025731E+04  0.7818608E-02  0.9280765E-01
          2   -1    0    0  501    0  0.00000000000E+00  0.00000000000E+00  0.40100893362E+04  0.40100893362E+04  0.25500000000E-02 0.  1.
         -2   -1    0    0    0  501 -0.00000000000E+00 -0.00000000000E+00 -0.65592351042E+02  0.65592351091E+02  0.25500000000E-02 0. -1.
    5000001    1    1    2    0    0 -0.32992659861E+03 -0.51254759250E+02  0.33732879742E+04  0.33937848146E+04  0.16500000000E+03 0.  0.
   -5000001    1    1    2    0    0  0.32992659861E+03  0.51254759250E+02  0.57120901099E+03  0.68189687274E+03  0.16500000000E+03 0.  0.
<mgrwt>
<rscale>  0 0.10257313E+04</rscale>
<asrwt>0</asrwt>
<pdfrwt beam="1">  1        2 0.57287011E+00 0.10257313E+04</pdfrwt>
<pdfrwt beam="2">  1       -2 0.93703325E-02 0.10257313E+04</pdfrwt>
<totfact> 0.44752592E+01</totfact>
</mgrwt>
</event>
<event>
 4    1  0.5387486E-005  0.3891575E+03  0.7818608E-02  0.1047600E+00
         -2   -1    0    0    0  501 -0.00000000000E+00  0.00000000000E+00  0.32826445145E+02  0.32826445244E+02  0.25500000000E-02 0. -1.
          2   -1    0    0  501    0  0.00000000000E+00 -0.00000000000E+00 -0.11533653682E+04  0.11533653682E+04  0.25500000000E-02 0.  1.
    5000001    1    1    2    0    0  0.91143972696E+01  0.10164786052E+03 -0.51500485785E+03  0.55033659100E+03  0.16500000000E+03 0.  0.
   -5000001    1    1    2    0    0 -0.91143972696E+01 -0.10164786052E+03 -0.60553406522E+03  0.63585522246E+03  0.16500000000E+03 0.  0.
<mgrwt>
<rscale>  0 0.38915747E+03</rscale>
<asrwt>0</asrwt>
<pdfrwt beam="1">  1        2 0.16476646E+00 0.38915747E+03</pdfrwt>
<pdfrwt beam="2">  1       -2 0.46894929E-02 0.38915747E+03</pdfrwt>
<totfact> 0.51618950E+03</totfact>
</mgrwt>
</event>
<event>
 4    1  0.5387486E-005  0.5220477E+03  0.7818608E-02  0.1008179E+00
         -2   -1    0    0    0  501 -0.00000000000E+00  0.00000000000E+00  0.56933049584E+02  0.56933049641E+02  0.25500000000E-02 0. -1.
          2   -1    0    0  501    0  0.00000000000E+00 -0.00000000000E+00 -0.11967293124E+04  0.11967293124E+04  0.25500000000E-02 0.  1.
    5000001    1    1    2    0    0  0.34720037581E+02  0.19593587916E+03 -0.48291124216E+03  0.54774502970E+03  0.16500000000E+03 0.  0.
   -5000001    1    1    2    0    0 -0.34720037581E+02 -0.19593587916E+03 -0.65688502066E+03  0.70591733236E+03  0.16500000000E+03 0.  0.
<mgrwt>
<rscale>  0 0.52204770E+03</rscale>
<asrwt>0</asrwt>
<pdfrwt beam="1">  1        2 0.17096131E+00 0.52204770E+03</pdfrwt>
<pdfrwt beam="2">  1       -2 0.81332936E-02 0.52204770E+03</pdfrwt>
<totfact> 0.20708904E+03</totfact>
</mgrwt>
</event>
<event>
 4    1  0.5387486E-005  0.3917226E+03  0.7818608E-02  0.1046684E+00
         -2   -1    0    0    0  501 -0.00000000000E+00  0.00000000000E+00  0.34071262740E+02  0.34071262835E+02  0.25500000000E-02 0. -1.
          2   -1    0    0  501    0  0.00000000000E+00 -0.00000000000E+00 -0.11259236178E+04  0.11259236178E+04  0.25500000000E-02 0.  1.
    5000001    1    1    2    0    0  0.43812658365E+02  0.79422733578E+02 -0.38620654510E+03  0.42966034856E+03  0.16500000000E+03 0.  0.
   -5000001    1    1    2    0    0 -0.43812658365E+02 -0.79422733578E+02 -0.70564581000E+03  0.73033453213E+03  0.16500000000E+03 0.  0.
<mgrwt>
<rscale>  0 0.39172255E+03</rscale>
<asrwt>0</asrwt>
<pdfrwt beam="1">  1        2 0.16084621E+00 0.39172255E+03</pdfrwt>
<pdfrwt beam="2">  1       -2 0.48673240E-02 0.39172255E+03</pdfrwt>
<totfact> 0.50528932E+03</totfact>
</mgrwt>
</event>
<event>
 4    1  0.5387486E-005  0.4673256E+03  0.7818608E-02  0.1022678E+00
          2   -1    0    0  501    0  0.00000000000E+00  0.00000000000E+00  0.61861324351E+02  0.61861324404E+02  0.25500000000E-02 0.  1.
         -2   -1    0    0    0  501 -0.00000000000E+00 -0.00000000000E+00 -0.88259180316E+03  0.88259180316E+03  0.25500000000E-02 0. -1.
    5000001    1    1    2    0    0  0.66995419510E+02 -0.12458991826E+03 -0.58377220995E+03  0.62291735173E+03  0.16500000000E+03 0.  0.
   -5000001    1    1    2    0    0 -0.66995419510E+02  0.12458991826E+03 -0.23695826885E+03  0.32153577584E+03  0.16500000000E+03 0.  0.
<mgrwt>
<rscale>  0 0.46732557E+03</rscale>
<asrwt>0</asrwt>
<pdfrwt beam="1">  1        2 0.88373326E-02 0.46732557E+03</pdfrwt>
<pdfrwt beam="2">  1       -2 0.12608454E+00 0.46732557E+03</pdfrwt>
<totfact> 0.36986560E+02</totfact>
</mgrwt>
</event>
<event>
 4    1  0.5387486E-005  0.1120740E+04  0.7818608E-02  0.9185210E-01
          2   -1    0    0  501    0  0.00000000000E+00  0.00000000000E+00  0.57711702301E+03  0.57711702302E+03  0.25500000000E-02 0.  1.
         -2   -1    0    0    0  501 -0.00000000000E+00 -0.00000000000E+00 -0.54410918260E+03  0.54410918261E+03  0.25500000000E-02 0. -1.
    5000001    1    1    2    0    0  0.48959046501E+02 -0.25817769467E+03 -0.45032134536E+03  0.54687020795E+03  0.16500000000E+03 0.  0.
   -5000001    1    1    2    0    0 -0.48959046501E+02  0.25817769467E+03  0.48332918577E+03  0.57435599768E+03  0.16500000000E+03 0.  0.
<mgrwt>
<rscale>  0 0.11207402E+04</rscale>
<asrwt>0</asrwt>
<pdfrwt beam="1">  1        2 0.82445289E-01 0.11207402E+04</pdfrwt>
<pdfrwt beam="2">  1       -2 0.77729884E-01 0.11207402E+04</pdfrwt>
<totfact> 0.83181230E+01</totfact>
</mgrwt>
</event>
<event>
 4    1  0.5387486E-005  0.3497002E+03  0.7818608E-02  0.1062738E+00
          2   -1    0    0  501    0  0.00000000000E+00  0.00000000000E+00  0.21490173585E+04  0.21490173585E+04  0.25500000000E-02 0.  1.
         -2   -1    0    0    0  501 -0.00000000000E+00 -0.00000000000E+00 -0.14226297269E+02  0.14226297497E+02  0.25500000000E-02 0. -1.
    5000001    1    1    2    0    0  0.57719687652E+02  0.32451468884E+01  0.10818589965E+04  0.10958950596E+04  0.16500000000E+03 0.  0.
   -5000001    1    1    2    0    0 -0.57719687652E+02 -0.32451468884E+01  0.10529320648E+04  0.10673485964E+04  0.16500000000E+03 0.  0.
<mgrwt>
<rscale>  0 0.34970021E+03</rscale>
<asrwt>0</asrwt>
<pdfrwt beam="1">  1        2 0.30700257E+00 0.34970021E+03</pdfrwt>
<pdfrwt beam="2">  1       -2 0.20323276E-02 0.34970021E+03</pdfrwt>
<totfact> 0.56419661E+03</totfact>
</mgrwt>
</event>
<event>
 4    1  0.5387486E-005  0.4513425E+03  0.7818608E-02  0.1027322E+00
         -2   -1    0    0    0  501 -0.00000000000E+00  0.00000000000E+00  0.17497732069E+03  0.17497732071E+03  0.25500000000E-02 0. -1.
          2   -1    0    0  501    0  0.00000000000E+00 -0.00000000000E+00 -0.29105212291E+03  0.29105212292E+03  0.25500000000E-02 0.  1.
    5000001    1    1    2    0    0  0.64090227480E+02 -0.13416510053E+03 -0.16804383488E+02  0.22274473902E+03  0.16500000000E+03 0.  0.
   -5000001    1    1    2    0    0 -0.64090227480E+02  0.13416510053E+03 -0.99270418728E+02  0.24328470460E+03  0.16500000000E+03 0.  0.
<mgrwt>
<rscale>  0 0.45134253E+03</rscale>
<asrwt>0</asrwt>
<pdfrwt beam="1">  1        2 0.41578875E-01 0.45134253E+03</pdfrwt>
<pdfrwt beam="2">  1       -2 0.24996760E-01 0.45134253E+03</pdfrwt>
<totfact> 0.17561616E+03</totfact>
</mgrwt>
</event>
<event>
 4    1  0.5387486E-005  0.4959941E+03  0.7818608E-02  0.1014830E+00
          2   -1    0    0  501    0  0.00000000000E+00  0.00000000000E+00  0.30690367031E+04  0.30690367031E+04  0.25500000000E-02 0.  1.
         -2   -1    0    0    0  501 -0.00000000000E+00 -0.00000000000E+00 -0.20039687281E+02  0.20039687444E+02  0.25500000000E-02 0. -1.
    5000001    1    1    2    0    0  0.11796680011E+03  0.13315779867E+03  0.12050795969E+04  0.12292636007E+04  0.16500000000E+03 0.  0.
   -5000001    1    1    2    0    0 -0.11796680011E+03 -0.13315779867E+03  0.18439174190E+04  0.18598127899E+04  0.16500000000E+03 0.  0.
<mgrwt>
<rscale>  0 0.49599410E+03</rscale>
<asrwt>0</asrwt>
<pdfrwt beam="1">  1        2 0.43843436E+00 0.49599410E+03</pdfrwt>
<pdfrwt beam="2">  1       -2 0.28628089E-02 0.49599410E+03</pdfrwt>
<totfact> 0.11259119E+03</totfact>
</mgrwt>
</event>
<event>
 4    1  0.5387486E-005  0.8463365E+03  0.7818608E-02  0.9495267E-01
          2   -1    0    0  501    0  0.00000000000E+00  0.00000000000E+00  0.15176235636E+04  0.15176235636E+04  0.25500000000E-02 0.  1.
         -2   -1    0    0    0  501 -0.00000000000E+00 -0.00000000000E+00 -0.11799458744E+03  0.11799458747E+03  0.25500000000E-02 0. -1.
    5000001    1    1    2    0    0  0.33597856157E+03  0.80528799952E+02  0.35152040826E+03  0.51976733149E+03  0.16500000000E+03 0.  0.
   -5000001    1    1    2    0    0 -0.33597856157E+03 -0.80528799952E+02  0.10481085679E+04  0.11158508196E+04  0.16500000000E+03 0.  0.
<mgrwt>
<rscale>  0 0.84633650E+03</rscale>
<asrwt>0</asrwt>
<pdfrwt beam="1">  1        2 0.21680336E+00 0.84633650E+03</pdfrwt>
<pdfrwt beam="2">  1       -2 0.16856370E-01 0.84633650E+03</pdfrwt>
<totfact> 0.41293926E+02</totfact>
</mgrwt>
</event>
<event>
 4    1  0.5387486E-005  0.5841658E+03  0.7818608E-02  0.9938813E-01
          2   -1    0    0  501    0  0.00000000000E+00  0.00000000000E+00  0.14270987750E+04  0.14270987750E+04  0.25500000000E-02 0.  1.
         -2   -1    0    0    0  501 -0.00000000000E+00 -0.00000000000E+00 -0.59780314360E+02  0.59780314415E+02  0.25500000000E-02 0. -1.
    5000001    1    1    2    0    0 -0.19006743862E+03 -0.13874702998E+03  0.55113117718E+03  0.62156813304E+03  0.16500000000E+03 0.  0.
   -5000001    1    1    2    0    0  0.19006743862E+03  0.13874702998E+03  0.81618728350E+03  0.86531095642E+03  0.16500000000E+03 0.  0.
<mgrwt>
<rscale>  0 0.58416578E+03</rscale>
<asrwt>0</asrwt>
<pdfrwt beam="1">  1        2 0.20387123E+00 0.58416578E+03</pdfrwt>
<pdfrwt beam="2">  1       -2 0.85400459E-02 0.58416578E+03</pdfrwt>
<totfact> 0.14355828E+03</totfact>
</mgrwt>
</event>
<event>
 4    1  0.5387486E-005  0.1030809E+04  0.7818608E-02  0.9275385E-01
          2   -1    0    0  501    0  0.00000000000E+00  0.00000000000E+00  0.18257717888E+04  0.18257717888E+04  0.25500000000E-02 0.  1.
         -2   -1    0    0    0  501 -0.00000000000E+00 -0.00000000000E+00 -0.14549563630E+03  0.14549563632E+03  0.25500000000E-02 0. -1.
    5000001    1    1    2    0    0 -0.45287183572E+03  0.13889705177E+03  0.10666650648E+04  0.11787216172E+04  0.16500000000E+03 0.  0.
   -5000001    1    1    2    0    0  0.45287183572E+03 -0.13889705177E+03  0.61361108774E+03  0.79254580788E+03  0.16500000000E+03 0.  0.
<mgrwt>
<rscale>  0 0.10308091E+04</rscale>
<asrwt>0</asrwt>
<pdfrwt beam="1">  1        2 0.26082454E+00 0.10308091E+04</pdfrwt>
<pdfrwt beam="2">  1       -2 0.20785091E-01 0.10308091E+04</pdfrwt>
<totfact> 0.19639713E+02</totfact>
</mgrwt>
</event>
<event>
 4    1  0.5387486E-005  0.5535533E+03  0.7818608E-02  0.1000675E+00
          2   -1    0    0  501    0  0.00000000000E+00  0.00000000000E+00  0.43980160840E+03  0.43980160841E+03  0.25500000000E-02 0.  1.
         -2   -1    0    0    0  501 -0.00000000000E+00 -0.00000000000E+00 -0.17418150303E+03  0.17418150305E+03  0.25500000000E-02 0. -1.
    5000001    1    1    2    0    0 -0.12595576989E+03 -0.11980165600E+03  0.28635265500E+03  0.37341683917E+03  0.16500000000E+03 0.  0.
   -5000001    1    1    2    0    0  0.12595576989E+03  0.11980165600E+03 -0.20732549621E+02  0.24056627229E+03  0.16500000000E+03 0.  0.
<mgrwt>
<rscale>  0 0.55355327E+03</rscale>
<asrwt>0</asrwt>
<pdfrwt beam="1">  1        2 0.62828801E-01 0.55355327E+03</pdfrwt>
<pdfrwt beam="2">  1       -2 0.24883072E-01 0.55355327E+03</pdfrwt>
<totfact> 0.11242046E+03</totfact>
</mgrwt>
</event>
<event>
 4    1  0.5387486E-005  0.4946222E+03  0.7818608E-02  0.1015192E+00
         -2   -1    0    0    0  501 -0.00000000000E+00  0.00000000000E+00  0.42239549846E+02  0.42239549923E+02  0.25500000000E-02 0. -1.
          2   -1    0    0  501    0  0.00000000000E+00 -0.00000000000E+00 -0.14479980531E+04  0.14479980531E+04  0.25500000000E-02 0.  1.
    5000001    1    1    2    0    0 -0.64847123934E+02 -0.73689081933E+02 -0.23319298044E+03  0.30205826657E+03  0.16500000000E+03 0.  0.
   -5000001    1    1    2    0    0  0.64847123934E+02  0.73689081933E+02 -0.11725655228E+04  0.11881793365E+04  0.16500000000E+03 0.  0.
<mgrwt>
<rscale>  0 0.49462222E+03</rscale>
<asrwt>0</asrwt>
<pdfrwt beam="1">  1        2 0.20685683E+00 0.49462222E+03</pdfrwt>
<pdfrwt beam="2">  1       -2 0.60342223E-02 0.49462222E+03</pdfrwt>
<totfact> 0.24278837E+03</totfact>
</mgrwt>
</event>
<event>
 4    1  0.5387486E-005  0.4729360E+03  0.7818608E-02  0.1021095E+00
          2   -1    0    0  501    0  0.00000000000E+00  0.00000000000E+00  0.83843484268E+03  0.83843484268E+03  0.25500000000E-02 0.  1.
         -2   -1    0    0    0  501 -0.00000000000E+00 -0.00000000000E+00 -0.66692247178E+02  0.66692247227E+02  0.25500000000E-02 0. -1.
    5000001    1    1    2    0    0  0.44556192721E+02 -0.92072180173E+02  0.12746959961E+03  0.23224133891E+03  0.16500000000E+03 0.  0.
   -5000001    1    1    2    0    0 -0.44556192721E+02  0.92072180173E+02  0.64427299589E+03  0.67288575100E+03  0.16500000000E+03 0.  0.
<mgrwt>
<rscale>  0 0.47293595E+03</rscale>
<asrwt>0</asrwt>
<pdfrwt beam="1">  1        2 0.11977640E+00 0.47293595E+03</pdfrwt>
<pdfrwt beam="2">  1       -2 0.95274641E-02 0.47293595E+03</pdfrwt>
<totfact> 0.26475205E+03</totfact>
</mgrwt>
</event>
<event>
 4    1  0.5387486E-005  0.1512183E+04  0.7818608E-02  0.8876391E-01
          2   -1    0    0  501    0  0.00000000000E+00  0.00000000000E+00  0.10066083678E+04  0.10066083678E+04  0.25500000000E-02 0.  1.
         -2   -1    0    0    0  501 -0.00000000000E+00 -0.00000000000E+00 -0.56792159417E+03  0.56792159417E+03  0.25500000000E-02 0. -1.
    5000001    1    1    2    0    0  0.99026124618E+02 -0.70520744383E+03  0.42050806006E+03  0.84331236251E+03  0.16500000000E+03 0.  0.
   -5000001    1    1    2    0    0 -0.99026124618E+02  0.70520744383E+03  0.18178713621E+02  0.73121759950E+03  0.16500000000E+03 0.  0.
<mgrwt>
<rscale>  0 0.15121834E+04</rscale>
<asrwt>0</asrwt>
<pdfrwt beam="1">  1        2 0.14380119E+00 0.15121834E+04</pdfrwt>
<pdfrwt beam="2">  1       -2 0.81131657E-01 0.15121834E+04</pdfrwt>
<totfact> 0.36043852E+01</totfact>
</mgrwt>
</event>
<event>
 4    1  0.5387486E-005  0.6133242E+03  0.7818608E-02  0.9878142E-01
          2   -1    0    0  501    0  0.00000000000E+00  0.00000000000E+00  0.11991042623E+04  0.11991042624E+04  0.25500000000E-02 0.  1.
         -2   -1    0    0    0  501 -0.00000000000E+00 -0.00000000000E+00 -0.78426569667E+02  0.78426569709E+02  0.25500000000E-02 0. -1.
    5000001    1    1    2    0    0  0.15844181556E+03  0.27361656067E+02  0.13875558039E+03  0.26894345174E+03  0.16500000000E+03 0.  0.
   -5000001    1    1    2    0    0 -0.15844181556E+03 -0.27361656067E+02  0.98192211229E+03  0.10085873803E+04  0.16500000000E+03 0.  0.
<mgrwt>
<rscale>  0 0.61332417E+03</rscale>
<asrwt>0</asrwt>
<pdfrwt beam="1">  1        2 0.17130060E+00 0.61332417E+03</pdfrwt>
<pdfrwt beam="2">  1       -2 0.11203796E-01 0.61332417E+03</pdfrwt>
<totfact> 0.12291384E+03</totfact>
</mgrwt>
</event>
<event>
 4    1  0.5387486E-005  0.5033170E+03  0.7818608E-02  0.1012917E+00
          2   -1    0    0  501    0  0.00000000000E+00  0.00000000000E+00  0.79693440357E+03  0.79693440357E+03  0.25500000000E-02 0.  1.
         -2   -1    0    0    0  501 -0.00000000000E+00 -0.00000000000E+00 -0.79469525418E+02  0.79469525459E+02  0.25500000000E-02 0. -1.
    5000001    1    1    2    0    0 -0.17920007525E+02  0.10240459251E+03  0.63569168826E+03  0.66493364312E+03  0.16500000000E+03 0.  0.
   -5000001    1    1    2    0    0  0.17920007525E+02 -0.10240459251E+03  0.81773189889E+02  0.21147028591E+03  0.16500000000E+03 0.  0.
<mgrwt>
<rscale>  0 0.50331699E+03</rscale>
<asrwt>0</asrwt>
<pdfrwt beam="1">  1        2 0.11384777E+00 0.50331699E+03</pdfrwt>
<pdfrwt beam="2">  1       -2 0.11352789E-01 0.50331699E+03</pdfrwt>
<totfact> 0.21276364E+03</totfact>
</mgrwt>
</event>
<event>
 4    1  0.5387486E-005  0.5481565E+03  0.7818608E-02  0.1001922E+00
          2   -1    0    0  501    0  0.00000000000E+00  0.00000000000E+00  0.50707296238E+03  0.50707296239E+03  0.25500000000E-02 0.  1.
         -2   -1    0    0    0  501 -0.00000000000E+00 -0.00000000000E+00 -0.14814217687E+03  0.14814217689E+03  0.25500000000E-02 0. -1.
    5000001    1    1    2    0    0  0.38990016600E+02  0.13626312275E+03 -0.19853677442E+02  0.21841938679E+03  0.16500000000E+03 0.  0.
   -5000001    1    1    2    0    0 -0.38990016600E+02 -0.13626312275E+03  0.37878446296E+03  0.43679575249E+03  0.16500000000E+03 0.  0.
<mgrwt>
<rscale>  0 0.54815652E+03</rscale>
<asrwt>0</asrwt>
<pdfrwt beam="1">  1        2 0.72438996E-01 0.54815652E+03</pdfrwt>
<pdfrwt beam="2">  1       -2 0.21163168E-01 0.54815652E+03</pdfrwt>
<totfact> 0.12757357E+03</totfact>
</mgrwt>
</event>
<event>
 4    1  0.5387486E-005  0.8027856E+03  0.7818608E-02  0.9555994E-01
          2   -1    0    0  501    0  0.00000000000E+00  0.00000000000E+00  0.42160695042E+03  0.42160695043E+03  0.25500000000E-02 0.  1.
         -2   -1    0    0    0  501 -0.00000000000E+00 -0.00000000000E+00 -0.38214783543E+03  0.38214783543E+03  0.25500000000E-02 0. -1.
    5000001    1    1    2    0    0 -0.19573585713E+03  0.30786154439E+03  0.48046687394E+02  0.40326757922E+03  0.16500000000E+03 0.  0.
   -5000001    1    1    2    0    0  0.19573585713E+03 -0.30786154439E+03 -0.85875723978E+01  0.40048720664E+03  0.16500000000E+03 0.  0.
<mgrwt>
<rscale>  0 0.80278561E+03</rscale>
<asrwt>0</asrwt>
<pdfrwt beam="1">  1        2 0.60229564E-01 0.80278561E+03</pdfrwt>
<pdfrwt beam="2">  1       -2 0.54592548E-01 0.80278561E+03</pdfrwt>
<totfact> 0.25907183E+02</totfact>
</mgrwt>
</event>
<event>
 4    1  0.5387486E-005  0.4348153E+03  0.7818608E-02  0.1032350E+00
          2   -1    0    0  501    0  0.00000000000E+00  0.00000000000E+00  0.38426789298E+03  0.38426789298E+03  0.25500000000E-02 0.  1.
         -2   -1    0    0    0  501 -0.00000000000E+00 -0.00000000000E+00 -0.12300294593E+03  0.12300294595E+03  0.25500000000E-02 0. -1.
    5000001    1    1    2    0    0 -0.10679226716E+03  0.92662570001E+02  0.12237135588E+03  0.24938061060E+03  0.16500000000E+03 0.  0.
   -5000001    1    1    2    0    0  0.10679226716E+03 -0.92662570001E+02  0.13889359117E+03  0.25789022834E+03  0.16500000000E+03 0.  0.
<mgrwt>
<rscale>  0 0.43481528E+03</rscale>
<asrwt>0</asrwt>
<pdfrwt beam="1">  1        2 0.54895413E-01 0.43481528E+03</pdfrwt>
<pdfrwt beam="2">  1       -2 0.17571850E-01 0.43481528E+03</pdfrwt>
<totfact> 0.23924621E+03</totfact>
</mgrwt>
</event>
<event>
 4    1  0.5387486E-005  0.3594179E+03  0.7818608E-02  0.1058815E+00
         -2   -1    0    0    0  501 -0.00000000000E+00  0.00000000000E+00  0.19966134553E+03  0.19966134555E+03  0.25500000000E-02 0. -1.
          2   -1    0    0  501    0  0.00000000000E+00 -0.00000000000E+00 -0.16175045850E+03  0.16175045852E+03  0.25500000000E-02 0.  1.
    5000001    1    1    2    0    0 -0.31498610159E+02  0.71868080057E+01 -0.44851290419E+02  0.17401278948E+03  0.16500000000E+03 0.  0.
   -5000001    1    1    2    0    0  0.31498610159E+02 -0.71868080057E+01  0.82762177450E+02  0.18739901459E+03  0.16500000000E+03 0.  0.
<mgrwt>
<rscale>  0 0.35941794E+03</rscale>
<asrwt>0</asrwt>
<pdfrwt beam="1">  1        2 0.23107208E-01 0.35941794E+03</pdfrwt>
<pdfrwt beam="2">  1       -2 0.28523049E-01 0.35941794E+03</pdfrwt>
<totfact> 0.26517249E+03</totfact>
</mgrwt>
</event>
<event>
 4    1  0.5387486E-005  0.6195022E+03  0.7818608E-02  0.9865751E-01
         -2   -1    0    0    0  501 -0.00000000000E+00  0.00000000000E+00  0.33658958298E+02  0.33658958395E+02  0.25500000000E-02 0. -1.
          2   -1    0    0  501    0  0.00000000000E+00 -0.00000000000E+00 -0.28505260792E+04  0.28505260792E+04  0.25500000000E-02 0.  1.
    5000001    1    1    2    0    0 -0.20850140829E+03  0.15835451434E+03 -0.14694472812E+04  0.15016821573E+04  0.16500000000E+03 0.  0.
   -5000001    1    1    2    0    0  0.20850140829E+03 -0.15835451434E+03 -0.13474198397E+04  0.13825028803E+04  0.16500000000E+03 0.  0.
<mgrwt>
<rscale>  0 0.61950218E+03</rscale>
<asrwt>0</asrwt>
<pdfrwt beam="1">  1        2 0.40721786E+00 0.61950218E+03</pdfrwt>
<pdfrwt beam="2">  1       -2 0.48084245E-02 0.61950218E+03</pdfrwt>
<totfact> 0.66078172E+02</totfact>
</mgrwt>
</event>
<event>
 4    1  0.5387486E-005  0.3609136E+03  0.7818608E-02  0.1058223E+00
          2   -1    0    0  501    0  0.00000000000E+00  0.00000000000E+00  0.64094791967E+02  0.64094792018E+02  0.25500000000E-02 0.  1.
         -2   -1    0    0    0  501 -0.00000000000E+00 -0.00000000000E+00 -0.50807037622E+03  0.50807037622E+03  0.25500000000E-02 0. -1.
    5000001    1    1    2    0    0 -0.46931985372E+02 -0.50806447234E+02 -0.18461450755E+03  0.25708252125E+03  0.16500000000E+03 0.  0.
   -5000001    1    1    2    0    0  0.46931985372E+02  0.50806447234E+02 -0.25936107670E+03  0.31508264699E+03  0.16500000000E+03 0.  0.
<mgrwt>
<rscale>  0 0.36091365E+03</rscale>
<asrwt>0</asrwt>
<pdfrwt beam="1">  1        2 0.91563991E-02 0.36091365E+03</pdfrwt>
<pdfrwt beam="2">  1       -2 0.72581480E-01 0.36091365E+03</pdfrwt>
<totfact> 0.12711235E+03</totfact>
</mgrwt>
</event>
<event>
 4    1  0.5387486E-005  0.3650096E+03  0.7818608E-02  0.1056618E+00
         -2   -1    0    0    0  501 -0.00000000000E+00  0.00000000000E+00  0.55658773601E+02  0.55658773659E+02  0.25500000000E-02 0. -1.
          2   -1    0    0  501    0  0.00000000000E+00 -0.00000000000E+00 -0.59843232942E+03  0.59843232942E+03  0.25500000000E-02 0.  1.
    5000001    1    1    2    0    0  0.18860090331E+02 -0.69249208069E+02 -0.21668420158E+03  0.28165262122E+03  0.16500000000E+03 0.  0.
   -5000001    1    1    2    0    0 -0.18860090331E+02  0.69249208069E+02 -0.32608935424E+03  0.37243848186E+03  0.16500000000E+03 0.  0.
<mgrwt>
<rscale>  0 0.36500964E+03</rscale>
<asrwt>0</asrwt>
<pdfrwt beam="1">  1        2 0.85490329E-01 0.36500964E+03</pdfrwt>
<pdfrwt beam="2">  1       -2 0.79512537E-02 0.36500964E+03</pdfrwt>
<totfact> 0.52963357E+03</totfact>
</mgrwt>
</event>
<event>
 4    1  0.5387486E-005  0.4294887E+03  0.7818608E-02  0.1034022E+00
         -2   -1    0    0    0  501 -0.00000000000E+00  0.00000000000E+00  0.43458788738E+02  0.43458788813E+02  0.25500000000E-02 0. -1.
          2   -1    0    0  501    0  0.00000000000E+00 -0.00000000000E+00 -0.10611235656E+04  0.10611235656E+04  0.25500000000E-02 0.  1.
    5000001    1    1    2    0    0  0.44753579888E+02  0.95111445904E+02 -0.73656966176E+03  0.76210821848E+03  0.16500000000E+03 0.  0.
   -5000001    1    1    2    0    0 -0.44753579888E+02 -0.95111445904E+02 -0.28109511515E+03  0.34247413598E+03  0.16500000000E+03 0.  0.
<mgrwt>
<rscale>  0 0.42948874E+03</rscale>
<asrwt>0</asrwt>
<pdfrwt beam="1">  1        2 0.15158906E+00 0.42948874E+03</pdfrwt>
<pdfrwt beam="2">  1       -2 0.62083991E-02 0.42948874E+03</pdfrwt>
<totfact> 0.37842370E+03</totfact>
</mgrwt>
</event>
<event>
 4    1  0.5387486E-005  0.4807166E+03  0.7818608E-02  0.1018938E+00
          2   -1    0    0  501    0  0.00000000000E+00  0.00000000000E+00  0.34782540611E+04  0.34782540611E+04  0.25500000000E-02 0.  1.
         -2   -1    0    0    0  501 -0.00000000000E+00 -0.00000000000E+00 -0.16609512736E+02  0.16609512932E+02  0.25500000000E-02 0. -1.
    5000001    1    1    2    0    0 -0.16337953102E+03 -0.61932573450E+02  0.16994758115E+04  0.17163832756E+04  0.16500000000E+03 0.  0.
   -5000001    1    1    2    0    0  0.16337953102E+03  0.61932573450E+02  0.17621687369E+04  0.17784802985E+04  0.16500000000E+03 0.  0.
<mgrwt>
<rscale>  0 0.48071657E+03</rscale>
<asrwt>0</asrwt>
<pdfrwt beam="1">  1        2 0.49689320E+00 0.48071657E+03</pdfrwt>
<pdfrwt beam="2">  1       -2 0.23727887E-02 0.48071657E+03</pdfrwt>
<totfact> 0.87800688E+02</totfact>
</mgrwt>
</event>
<event>
 4    1  0.5387486E-005  0.6214717E+03  0.7818608E-02  0.9861834E-01
         -2   -1    0    0    0  501 -0.00000000000E+00  0.00000000000E+00  0.11702963240E+03  0.11702963243E+03  0.25500000000E-02 0. -1.
          2   -1    0    0  501    0  0.00000000000E+00 -0.00000000000E+00 -0.82506266140E+03  0.82506266141E+03  0.25500000000E-02 0.  1.
    5000001    1    1    2    0    0  0.78888511970E+02  0.23331280804E+03 -0.49519537341E+03  0.57714965266E+03  0.16500000000E+03 0.  0.
   -5000001    1    1    2    0    0 -0.78888511970E+02 -0.23331280804E+03 -0.21283765559E+03  0.36494264118E+03  0.16500000000E+03 0.  0.
<mgrwt>
<rscale>  0 0.62147174E+03</rscale>
<asrwt>0</asrwt>
<pdfrwt beam="1">  1        2 0.11786609E+00 0.62147174E+03</pdfrwt>
<pdfrwt beam="2">  1       -2 0.16718519E-01 0.62147174E+03</pdfrwt>
<totfact> 0.10664430E+03</totfact>
</mgrwt>
</event>
<event>
 4    1  0.5387486E-005  0.6724640E+03  0.7818608E-02  0.9765517E-01
         -2   -1    0    0    0  501 -0.00000000000E+00  0.00000000000E+00  0.21818053313E+03  0.21818053314E+03  0.25500000000E-02 0. -1.
          2   -1    0    0  501    0  0.00000000000E+00 -0.00000000000E+00 -0.51815785823E+03  0.51815785824E+03  0.25500000000E-02 0.  1.
    5000001    1    1    2    0    0 -0.14984634053E+02 -0.28711828183E+03 -0.21159569656E+03  0.39326732107E+03  0.16500000000E+03 0.  0.
   -5000001    1    1    2    0    0  0.14984634053E+02  0.28711828183E+03 -0.88381628540E+02  0.34307107031E+03  0.16500000000E+03 0.  0.
<mgrwt>
<rscale>  0 0.67246400E+03</rscale>
<asrwt>0</asrwt>
<pdfrwt beam="1">  1        2 0.74022551E-01 0.67246400E+03</pdfrwt>
<pdfrwt beam="2">  1       -2 0.31168648E-01 0.67246400E+03</pdfrwt>
<totfact> 0.61786094E+02</totfact>
</mgrwt>
</event>
<event>
 4    1  0.5387486E-005  0.4786662E+03  0.7818608E-02  0.1019502E+00
          2   -1    0    0  501    0  0.00000000000E+00  0.00000000000E+00  0.99164427361E+03  0.99164427361E+03  0.25500000000E-02 0.  1.
         -2   -1    0    0    0  501 -0.00000000000E+00 -0.00000000000E+00 -0.57762995078E+02  0.57762995134E+02  0.25500000000E-02 0. -1.
    5000001    1    1    2    0    0 -0.36729989657E+02  0.16252197878E+03  0.57191900505E+03  0.61812525759E+03  0.16500000000E+03 0.  0.
   -5000001    1    1    2    0    0  0.36729989657E+02 -0.16252197878E+03  0.36196227348E+03  0.43128201116E+03  0.16500000000E+03 0.  0.
<mgrwt>
<rscale>  0 0.47866624E+03</rscale>
<asrwt>0</asrwt>
<pdfrwt beam="1">  1        2 0.14166347E+00 0.47866624E+03</pdfrwt>
<pdfrwt beam="2">  1       -2 0.82518562E-02 0.47866624E+03</pdfrwt>
<totfact> 0.26624018E+03</totfact>
</mgrwt>
</event>
<event>
 4    1  0.5387486E-005  0.4804429E+03  0.7818608E-02  0.1019014E+00
         -2   -1    0    0    0  501 -0.00000000000E+00  0.00000000000E+00  0.23634469748E+03  0.23634469749E+03  0.25500000000E-02 0. -1.
          2   -1    0    0  501    0  0.00000000000E+00 -0.00000000000E+00 -0.24416180437E+03  0.24416180439E+03  0.25500000000E-02 0.  1.
    5000001    1    1    2    0    0 -0.13584048282E+03 -0.91680289310E+02  0.56294393496E+02  0.23927384094E+03  0.16500000000E+03 0.  0.
   -5000001    1    1    2    0    0  0.13584048282E+03  0.91680289310E+02 -0.64111500390E+02  0.24123266094E+03  0.16500000000E+03 0.  0.
<mgrwt>
<rscale>  0 0.48044291E+03</rscale>
<asrwt>0</asrwt>
<pdfrwt beam="1">  1        2 0.34880258E-01 0.48044291E+03</pdfrwt>
<pdfrwt beam="2">  1       -2 0.33763528E-01 0.48044291E+03</pdfrwt>
<totfact> 0.12300401E+03</totfact>
</mgrwt>
</event>
<event>
 4    1  0.5387486E-005  0.5183543E+03  0.7818608E-02  0.1009096E+00
          2   -1    0    0  501    0  0.00000000000E+00  0.00000000000E+00  0.22550111447E+04  0.22550111447E+04  0.25500000000E-02 0.  1.
         -2   -1    0    0    0  501 -0.00000000000E+00 -0.00000000000E+00 -0.29788228463E+02  0.29788228572E+02  0.25500000000E-02 0. -1.
    5000001    1    1    2    0    0 -0.10958407028E+03 -0.15959911033E+03  0.89367033742E+03  0.92916748569E+03  0.16500000000E+03 0.  0.
   -5000001    1    1    2    0    0  0.10958407028E+03  0.15959911033E+03  0.13315525788E+04  0.13556318876E+04  0.16500000000E+03 0.  0.
<mgrwt>
<rscale>  0 0.51835427E+03</rscale>
<asrwt>0</asrwt>
<pdfrwt beam="1">  1        2 0.32214446E+00 0.51835427E+03</pdfrwt>
<pdfrwt beam="2">  1       -2 0.42554611E-02 0.51835427E+03</pdfrwt>
<totfact> 0.16303115E+03</totfact>
</mgrwt>
</event>
<event>
 4    1  0.5387486E-005  0.6015103E+03  0.7818608E-02  0.9902278E-01
         -2   -1    0    0    0  501 -0.00000000000E+00  0.00000000000E+00  0.93409570861E+02  0.93409570896E+02  0.25500000000E-02 0. -1.
          2   -1    0    0  501    0  0.00000000000E+00 -0.00000000000E+00 -0.96835533679E+03  0.96835533679E+03  0.25500000000E-02 0.  1.
    5000001    1    1    2    0    0  0.19581177612E+03  0.91916821976E+02 -0.66378398944E+03  0.71737377877E+03  0.16500000000E+03 0.  0.
   -5000001    1    1    2    0    0 -0.19581177612E+03 -0.91916821976E+02 -0.21116177648E+03  0.34439112891E+03  0.16500000000E+03 0.  0.
<mgrwt>
<rscale>  0 0.60151029E+03</rscale>
<asrwt>0</asrwt>
<pdfrwt beam="1">  1        2 0.13833647E+00 0.60151029E+03</pdfrwt>
<pdfrwt beam="2">  1       -2 0.13344225E-01 0.60151029E+03</pdfrwt>
<totfact> 0.12590374E+03</totfact>
</mgrwt>
</event>
<event>
 4    1  0.5387486E-005  0.4458670E+03  0.7818608E-02  0.1028962E+00
         -2   -1    0    0    0  501 -0.00000000000E+00  0.00000000000E+00  0.25858401174E+02  0.25858401300E+02  0.25500000000E-02 0. -1.
          2   -1    0    0  501    0  0.00000000000E+00 -0.00000000000E+00 -0.19219806623E+04  0.19219806623E+04  0.25500000000E-02 0.  1.
    5000001    1    1    2    0    0 -0.94958555503E+02  0.84554089845E+01 -0.14535000710E+04  0.14659386336E+04  0.16500000000E+03 0.  0.
   -5000001    1    1    2    0    0  0.94958555503E+02 -0.84554089845E+01 -0.44262219012E+03  0.48190042996E+03  0.16500000000E+03 0.  0.
<mgrwt>
<rscale>  0 0.44586701E+03</rscale>
<asrwt>0</asrwt>
<pdfrwt beam="1">  1        2 0.27456858E+00 0.44586701E+03</pdfrwt>
<pdfrwt beam="2">  1       -2 0.36940585E-02 0.44586701E+03</pdfrwt>
<totfact> 0.29759518E+03</totfact>
</mgrwt>
</event>
<event>
 4    1  0.5387486E-005  0.3560825E+03  0.7818608E-02  0.1060146E+00
          2   -1    0    0  501    0  0.00000000000E+00  0.00000000000E+00  0.24863875777E+02  0.24863875908E+02  0.25500000000E-02 0.  1.
         -2   -1    0    0    0  501 -0.00000000000E+00 -0.00000000000E+00 -0.12748889752E+04  0.12748889753E+04  0.25500000000E-02 0. -1.
    5000001    1    1    2    0    0  0.65365458643E+02 -0.86866721455E+01 -0.66591694498E+03  0.68921584360E+03  0.16500000000E+03 0.  0.
   -5000001    1    1    2    0    0 -0.65365458643E+02  0.86866721455E+01 -0.58410815449E+03  0.61053700756E+03  0.16500000000E+03 0.  0.
<mgrwt>
<rscale>  0 0.35608247E+03</rscale>
<asrwt>0</asrwt>
<pdfrwt beam="1">  1        2 0.35519831E-02 0.35608247E+03</pdfrwt>
<pdfrwt beam="2">  1       -2 0.18212695E+00 0.35608247E+03</pdfrwt>
<totfact> 0.47059528E+02</totfact>
</mgrwt>
</event>
<event>
 4    1  0.5387486E-005  0.4043974E+03  0.7818608E-02  0.1042268E+00
         -2   -1    0    0    0  501 -0.00000000000E+00  0.00000000000E+00  0.13456648166E+03  0.13456648168E+03  0.25500000000E-02 0. -1.
          2   -1    0    0  501    0  0.00000000000E+00 -0.00000000000E+00 -0.30382238581E+03  0.30382238582E+03  0.25500000000E-02 0.  1.
    5000001    1    1    2    0    0 -0.78562373336E+02  0.68321356995E+02 -0.27066228967E+02  0.19697064521E+03  0.16500000000E+03 0.  0.
   -5000001    1    1    2    0    0  0.78562373336E+02 -0.68321356995E+02 -0.14218967518E+03  0.24141822229E+03  0.16500000000E+03 0.  0.
<mgrwt>
<rscale>  0 0.40439738E+03</rscale>
<asrwt>0</asrwt>
<pdfrwt beam="1">  1        2 0.43403198E-01 0.40439738E+03</pdfrwt>
<pdfrwt beam="2">  1       -2 0.19223783E-01 0.40439738E+03</pdfrwt>
<totfact> 0.26498460E+03</totfact>
</mgrwt>
</event>
<event>
 4    1  0.5387486E-005  0.9814168E+03  0.7818608E-02  0.9329165E-01
         -2   -1    0    0    0  501 -0.00000000000E+00  0.00000000000E+00  0.26000431759E+03  0.26000431761E+03  0.25500000000E-02 0.  1.
          2   -1    0    0  501    0  0.00000000000E+00 -0.00000000000E+00 -0.92611825831E+03  0.92611825831E+03  0.25500000000E-02 0. -1.
    5000001    1    1    2    0    0  0.33255664690E+03  0.20980744429E+03 -0.39601300797E+02  0.42825967601E+03  0.16500000000E+03 0.  0.
   -5000001    1    1    2    0    0 -0.33255664690E+03 -0.20980744429E+03 -0.62651263992E+03  0.75786289991E+03  0.16500000000E+03 0.  0.
<mgrwt>
<rscale>  0 0.98141682E+03</rscale>
<asrwt>0</asrwt>
<pdfrwt beam="1">  1        2 0.13230261E+00 0.98141682E+03</pdfrwt>
<pdfrwt beam="2">  1       -2 0.37143474E-01 0.98141682E+03</pdfrwt>
<totfact> 0.21308125E+02</totfact>
</mgrwt>
</event>
<event>
 4    1  0.5387486E-005  0.8180182E+03  0.7818608E-02  0.9534297E-01
          2   -1    0    0  501    0  0.00000000000E+00  0.00000000000E+00  0.23408690056E+04  0.23408690056E+04  0.25500000000E-02 0.  1.
         -2   -1    0    0    0  501 -0.00000000000E+00 -0.00000000000E+00 -0.71464248484E+02  0.71464248529E+02  0.25500000000E-02 0. -1.
    5000001    1    1    2    0    0  0.31188829379E+03  0.20338654883E+03  0.10234564420E+04  0.11015119086E+04  0.16500000000E+03 0.  0.
   -5000001    1    1    2    0    0 -0.31188829379E+03 -0.20338654883E+03  0.12459483151E+04  0.13108213456E+04  0.16500000000E+03 0.  0.
<mgrwt>
<rscale>  0 0.81801820E+03</rscale>
<asrwt>0</asrwt>
<pdfrwt beam="1">  1        2 0.33440990E+00 0.81801820E+03</pdfrwt>
<pdfrwt beam="2">  1       -2 0.10209177E-01 0.81801820E+03</pdfrwt>
<totfact> 0.36269804E+02</totfact>
</mgrwt>
</event>
<event>
 4    1  0.5387486E-005  0.4465488E+03  0.7818608E-02  0.1028756E+00
          2   -1    0    0  501    0  0.00000000000E+00  0.00000000000E+00  0.55473591057E+03  0.55473591057E+03  0.25500000000E-02 0.  1.
         -2   -1    0    0    0  501 -0.00000000000E+00 -0.00000000000E+00 -0.89865224035E+02  0.89865224071E+02  0.25500000000E-02 0. -1.
    5000001    1    1    2    0    0  0.40996037893E+02  0.14337861732E+03  0.26088267315E+03  0.34281609090E+03  0.16500000000E+03 0.  0.
   -5000001    1    1    2    0    0 -0.40996037893E+02 -0.14337861732E+03  0.20398801338E+03  0.30178504374E+03  0.16500000000E+03 0.  0.
<mgrwt>
<rscale>  0 0.44654884E+03</rscale>
<asrwt>0</asrwt>
<pdfrwt beam="1">  1        2 0.79247984E-01 0.44654884E+03</pdfrwt>
<pdfrwt beam="2">  1       -2 0.12837890E-01 0.44654884E+03</pdfrwt>
<totfact> 0.26844675E+03</totfact>
</mgrwt>
</event>
<event>
 4    1  0.5387486E-005  0.4415488E+03  0.7818608E-02  0.1030273E+00
         -2   -1    0    0    0  501 -0.00000000000E+00  0.00000000000E+00  0.18420892269E+03  0.18420892271E+03  0.25500000000E-02 0. -1.
          2   -1    0    0  501    0  0.00000000000E+00 -0.00000000000E+00 -0.26459813987E+03  0.26459813989E+03  0.25500000000E-02 0.  1.
    5000001    1    1    2    0    0 -0.13739239294E+03  0.60794599894E+01 -0.92049980647E+02  0.23369173800E+03  0.16500000000E+03 0.  0.
   -5000001    1    1    2    0    0  0.13739239294E+03 -0.60794599894E+01  0.11660763464E+02  0.21511532460E+03  0.16500000000E+03 0.  0.
<mgrwt>
<rscale>  0 0.44154881E+03</rscale>
<asrwt>0</asrwt>
<pdfrwt beam="1">  1        2 0.37799734E-01 0.44154881E+03</pdfrwt>
<pdfrwt beam="2">  1       -2 0.26315560E-01 0.44154881E+03</pdfrwt>
<totfact> 0.17777322E+03</totfact>
</mgrwt>
</event>
<event>
 4    1  0.5387486E-005  0.8010715E+03  0.7818608E-02  0.9558467E-01
          2   -1    0    0  501    0  0.00000000000E+00  0.00000000000E+00  0.78628111959E+03  0.78628111959E+03  0.25500000000E-02 0.  1.
         -2   -1    0    0    0  501 -0.00000000000E+00 -0.00000000000E+00 -0.20403502842E+03  0.20403502843E+03  0.25500000000E-02 0. -1.
    5000001    1    1    2    0    0 -0.35167293780E+03 -0.69445469143E+02  0.20630439013E+03  0.44528982669E+03  0.16500000000E+03 0.  0.
   -5000001    1    1    2    0    0  0.35167293780E+03  0.69445469143E+02  0.37594170104E+03  0.54502632133E+03  0.16500000000E+03 0.  0.
<mgrwt>
<rscale>  0 0.80107151E+03</rscale>
<asrwt>0</asrwt>
<pdfrwt beam="1">  1        2 0.11232588E+00 0.80107151E+03</pdfrwt>
<pdfrwt beam="2">  1       -2 0.29147861E-01 0.80107151E+03</pdfrwt>
<totfact> 0.42154813E+02</totfact>
</mgrwt>
</event>
<event>
 4    1  0.5387486E-005  0.5602173E+03  0.7818608E-02  0.9991563E-01
         -2   -1    0    0    0  501 -0.00000000000E+00  0.00000000000E+00  0.63036820301E+02  0.63036820352E+02  0.25500000000E-02 0. -1.
          2   -1    0    0  501    0  0.00000000000E+00 -0.00000000000E+00 -0.12446831475E+04  0.12446831475E+04  0.25500000000E-02 0.  1.
    5000001    1    1    2    0    0  0.98071742281E+02  0.20399229878E+03 -0.58563314987E+03  0.64917032497E+03  0.16500000000E+03 0.  0.
   -5000001    1    1    2    0    0 -0.98071742281E+02 -0.20399229878E+03 -0.59601317738E+03  0.65854964293E+03  0.16500000000E+03 0.  0.
<mgrwt>
<rscale>  0 0.56021734E+03</rscale>
<asrwt>0</asrwt>
<pdfrwt beam="1">  1        2 0.17781186E+00 0.56021734E+03</pdfrwt>
<pdfrwt beam="2">  1       -2 0.90052608E-02 0.56021734E+03</pdfrwt>
<totfact> 0.16542570E+03</totfact>
</mgrwt>
</event>
<event>
 4    1  0.5387486E-005  0.6103959E+03  0.7818608E-02  0.9884070E-01
         -2   -1    0    0    0  501 -0.00000000000E+00  0.00000000000E+00  0.92131271652E+02  0.92131271687E+02  0.25500000000E-02 0. -1.
          2   -1    0    0  501    0  0.00000000000E+00 -0.00000000000E+00 -0.10110115571E+04  0.10110115571E+04  0.25500000000E-02 0.  1.
    5000001    1    1    2    0    0  0.22313642516E+03 -0.12462803402E+03 -0.41521696629E+03  0.51473501940E+03  0.16500000000E+03 0.  0.
   -5000001    1    1    2    0    0 -0.22313642516E+03  0.12462803402E+03 -0.50366331920E+03  0.58840780943E+03  0.16500000000E+03 0.  0.
<mgrwt>
<rscale>  0 0.61039587E+03</rscale>
<asrwt>0</asrwt>
<pdfrwt beam="1">  1        2 0.14443022E+00 0.61039587E+03</pdfrwt>
<pdfrwt beam="2">  1       -2 0.13161611E-01 0.61039587E+03</pdfrwt>
<totfact> 0.12127078E+03</totfact>
</mgrwt>
</event>
<event>
 4    1  0.5387486E-005  0.3738875E+03  0.7818608E-02  0.1053216E+00
          2   -1    0    0  501    0  0.00000000000E+00  0.00000000000E+00  0.31819633709E+03  0.31819633710E+03  0.25500000000E-02 0.  1.
         -2   -1    0    0    0  501 -0.00000000000E+00 -0.00000000000E+00 -0.10983142858E+03  0.10983142861E+03  0.25500000000E-02 0. -1.
    5000001    1    1    2    0    0 -0.33978445433E+02  0.70526815911E+02  0.58470628953E+02  0.19176126034E+03  0.16500000000E+03 0.  0.
   -5000001    1    1    2    0    0  0.33978445433E+02 -0.70526815911E+02  0.14989427955E+03  0.23626650537E+03  0.16500000000E+03 0.  0.
<mgrwt>
<rscale>  0 0.37388746E+03</rscale>
<asrwt>0</asrwt>
<pdfrwt beam="1">  1        2 0.45456620E-01 0.37388746E+03</pdfrwt>
<pdfrwt beam="2">  1       -2 0.15690204E-01 0.37388746E+03</pdfrwt>
<totfact> 0.35496539E+03</totfact>
</mgrwt>
</event>
<event>
 4    1  0.5387486E-005  0.6511798E+03  0.7818608E-02  0.9804568E-01
         -2   -1    0    0    0  501 -0.00000000000E+00  0.00000000000E+00  0.79835178702E+02  0.79835178743E+02  0.25500000000E-02 0. -1.
          2   -1    0    0  501    0  0.00000000000E+00 -0.00000000000E+00 -0.13278456774E+04  0.13278456775E+04  0.25500000000E-02 0.  1.
    5000001    1    1    2    0    0  0.18529628822E+02 -0.19837970020E+03 -0.10513846254E+04  0.10827430365E+04  0.16500000000E+03 0.  0.
   -5000001    1    1    2    0    0 -0.18529628822E+02  0.19837970020E+03 -0.19662587337E+03  0.32493781971E+03  0.16500000000E+03 0.  0.
<mgrwt>
<rscale>  0 0.65117984E+03</rscale>
<asrwt>0</asrwt>
<pdfrwt beam="1">  1        2 0.18969223E+00 0.65117984E+03</pdfrwt>
<pdfrwt beam="2">  1       -2 0.11405026E-01 0.65117984E+03</pdfrwt>
<totfact> 0.10127250E+03</totfact>
</mgrwt>
</event>
<event>
 4    1  0.5387486E-005  0.8893551E+03  0.7818608E-02  0.9438987E-01
         -2   -1    0    0    0  501 -0.00000000000E+00  0.00000000000E+00  0.16498748111E+03  0.16498748113E+03  0.25500000000E-02 0. -1.
          2   -1    0    0  501    0  0.00000000000E+00 -0.00000000000E+00 -0.11985037853E+04  0.11985037853E+04  0.25500000000E-02 0.  1.
    5000001    1    1    2    0    0  0.60797273246E+02  0.40726456512E+03 -0.56407150366E+03  0.71760880407E+03  0.16500000000E+03 0.  0.
   -5000001    1    1    2    0    0 -0.60797273246E+02 -0.40726456512E+03 -0.46944480056E+03  0.64588246239E+03  0.16500000000E+03 0.  0.
<mgrwt>
<rscale>  0 0.88935509E+03</rscale>
<asrwt>0</asrwt>
<pdfrwt beam="1">  1        2 0.17121482E+00 0.88935509E+03</pdfrwt>
<pdfrwt beam="2">  1       -2 0.23569641E-01 0.88935509E+03</pdfrwt>
<totfact> 0.34151176E+02</totfact>
</mgrwt>
</event>
<event>
 4    1  0.5387486E-005  0.4475842E+03  0.7818608E-02  0.1028445E+00
          2   -1    0    0  501    0  0.00000000000E+00  0.00000000000E+00  0.17058857060E+04  0.17058857060E+04  0.25500000000E-02 0.  1.
         -2   -1    0    0    0  501 -0.00000000000E+00 -0.00000000000E+00 -0.29358886041E+02  0.29358886152E+02  0.25500000000E-02 0. -1.
    5000001    1    1    2    0    0 -0.15584803585E+02  0.14581665829E+03  0.69568366542E+03  0.72986721139E+03  0.16500000000E+03 0.  0.
   -5000001    1    1    2    0    0  0.15584803585E+02 -0.14581665829E+03  0.98084315453E+03  0.10053773807E+04  0.16500000000E+03 0.  0.
<mgrwt>
<rscale>  0 0.44758420E+03</rscale>
<asrwt>0</asrwt>
<pdfrwt beam="1">  1        2 0.24369809E+00 0.44758420E+03</pdfrwt>
<pdfrwt beam="2">  1       -2 0.41941242E-02 0.44758420E+03</pdfrwt>
<totfact> 0.31441526E+03</totfact>
</mgrwt>
</event>
<event>
 4    1  0.5387486E-005  0.4548673E+03  0.7818608E-02  0.1026280E+00
         -2   -1    0    0    0  501 -0.00000000000E+00  0.00000000000E+00  0.28536864848E+02  0.28536864962E+02  0.25500000000E-02 0. -1.
          2   -1    0    0  501    0  0.00000000000E+00 -0.00000000000E+00 -0.18126052431E+04  0.18126052431E+04  0.25500000000E-02 0.  1.
    5000001    1    1    2    0    0 -0.15461440165E+03  0.69266553780E+01 -0.79732625116E+03  0.82879897595E+03  0.16500000000E+03 0.  0.
   -5000001    1    1    2    0    0  0.15461440165E+03 -0.69266553780E+01 -0.98674212712E+03  0.10123431321E+04  0.16500000000E+03 0.  0.
<mgrwt>
<rscale>  0 0.45486733E+03</rscale>
<asrwt>0</asrwt>
<pdfrwt beam="1">  1        2 0.25894353E+00 0.45486733E+03</pdfrwt>
<pdfrwt beam="2">  1       -2 0.40766961E-02 0.45486733E+03</pdfrwt>
<totfact> 0.29027371E+03</totfact>
</mgrwt>
</event>
<event>
 4    1  0.5387486E-005  0.6070182E+03  0.7818608E-02  0.9890952E-01
         -2   -1    0    0    0  501 -0.00000000000E+00  0.00000000000E+00  0.85250086508E+02  0.85250086546E+02  0.25500000000E-02 0. -1.
          2   -1    0    0  501    0  0.00000000000E+00 -0.00000000000E+00 -0.10805594019E+04  0.10805594019E+04  0.25500000000E-02 0.  1.
    5000001    1    1    2    0    0  0.19206989866E+02 -0.23884897929E+03 -0.66370225204E+03  0.72466780164E+03  0.16500000000E+03 0.  0.
   -5000001    1    1    2    0    0 -0.19206989866E+02  0.23884897929E+03 -0.33160706332E+03  0.44114168678E+03  0.16500000000E+03 0.  0.
<mgrwt>
<rscale>  0 0.60701823E+03</rscale>
<asrwt>0</asrwt>
<pdfrwt beam="1">  1        2 0.15436562E+00 0.60701823E+03</pdfrwt>
<pdfrwt beam="2">  1       -2 0.12178584E-01 0.60701823E+03</pdfrwt>
<totfact> 0.12534688E+03</totfact>
</mgrwt>
</event>
<event>
 4    1  0.5387486E-005  0.3567123E+03  0.7818608E-02  0.1059893E+00
         -2   -1    0    0    0  501 -0.00000000000E+00  0.00000000000E+00  0.17351426818E+02  0.17351427006E+02  0.25500000000E-02 0. -1.
          2   -1    0    0  501    0  0.00000000000E+00 -0.00000000000E+00 -0.18333317787E+04  0.18333317787E+04  0.25500000000E-02 0.  1.
    5000001    1    1    2    0    0  0.46270422844E+02  0.49348242278E+02 -0.89181397217E+03  0.90946872514E+03  0.16500000000E+03 0.  0.
   -5000001    1    1    2    0    0 -0.46270422844E+02 -0.49348242278E+02 -0.92416637974E+03  0.94121448059E+03  0.16500000000E+03 0.  0.
<mgrwt>
<rscale>  0 0.35671233E+03</rscale>
<asrwt>0</asrwt>
<pdfrwt beam="1">  1        2 0.26190442E+00 0.35671233E+03</pdfrwt>
<pdfrwt beam="2">  1       -2 0.24787764E-02 0.35671233E+03</pdfrwt>
<totfact> 0.60086162E+03</totfact>
</mgrwt>
</event>
<event>
 4    1  0.5387486E-005  0.4753622E+03  0.7818608E-02  0.1020418E+00
         -2   -1    0    0    0  501 -0.00000000000E+00  0.00000000000E+00  0.73675803509E+02  0.73675803553E+02  0.25500000000E-02 0. -1.
          2   -1    0    0  501    0  0.00000000000E+00 -0.00000000000E+00 -0.76676877971E+03  0.76676877972E+03  0.25500000000E-02 0.  1.
    5000001    1    1    2    0    0  0.67395413909E+01 -0.16722510493E+03 -0.40924599594E+03  0.47192895899E+03  0.16500000000E+03 0.  0.
   -5000001    1    1    2    0    0 -0.67395413909E+01  0.16722510493E+03 -0.28384698026E+03  0.36851562428E+03  0.16500000000E+03 0.  0.
<mgrwt>
<rscale>  0 0.47536220E+03</rscale>
<asrwt>0</asrwt>
<pdfrwt beam="1">  1        2 0.10953839E+00 0.47536220E+03</pdfrwt>
<pdfrwt beam="2">  1       -2 0.10525115E-01 0.47536220E+03</pdfrwt>
<totfact> 0.25253340E+03</totfact>
</mgrwt>
</event>
<event>
 4    1  0.5387486E-005  0.4132245E+03  0.7818608E-02  0.1039294E+00
         -2   -1    0    0    0  501 -0.00000000000E+00  0.00000000000E+00  0.16705981302E+02  0.16705981497E+02  0.25500000000E-02 0. -1.
          2   -1    0    0  501    0  0.00000000000E+00 -0.00000000000E+00 -0.25552892870E+04  0.25552892870E+04  0.25500000000E-02 0.  1.
    5000001    1    1    2    0    0  0.70968111085E+02  0.84696095078E+02 -0.91425448290E+03  0.93557263792E+03  0.16500000000E+03 0.  0.
   -5000001    1    1    2    0    0 -0.70968111085E+02 -0.84696095078E+02 -0.16243288228E+04  0.16364226306E+04  0.16500000000E+03 0.  0.
<mgrwt>
<rscale>  0 0.41322447E+03</rscale>
<asrwt>0</asrwt>
<pdfrwt beam="1">  1        2 0.36504108E+00 0.41322447E+03</pdfrwt>
<pdfrwt beam="2">  1       -2 0.23865704E-02 0.41322447E+03</pdfrwt>
<totfact> 0.27762295E+03</totfact>
</mgrwt>
</event>
<event>
 4    1  0.5387486E-005  0.1193914E+04  0.7818608E-02  0.9118201E-01
         -2   -1    0    0    0  501 -0.00000000000E+00  0.00000000000E+00  0.47997926631E+03  0.47997926631E+03  0.25500000000E-02 0. -1.
          2   -1    0    0  501    0  0.00000000000E+00 -0.00000000000E+00 -0.74244331656E+03  0.74244331656E+03  0.25500000000E-02 0.  1.
    5000001    1    1    2    0    0  0.41322256534E+03  0.10478028818E+03 -0.52432755585E+03  0.69561209242E+03  0.16500000000E+03 0.  0.
   -5000001    1    1    2    0    0 -0.41322256534E+03 -0.10478028818E+03  0.26186350560E+03  0.52681049046E+03  0.16500000000E+03 0.  0.
<mgrwt>
<rscale>  0 0.11939136E+04</rscale>
<asrwt>0</asrwt>
<pdfrwt beam="1">  1        2 0.10606333E+00 0.11939136E+04</pdfrwt>
<pdfrwt beam="2">  1       -2 0.68568467E-01 0.11939136E+04</pdfrwt>
<totfact> 0.80360181E+01</totfact>
</mgrwt>
</event>
<event>
 4    1  0.5387486E-005  0.1369296E+04  0.7818608E-02  0.8976349E-01
          2   -1    0    0  501    0  0.00000000000E+00  0.00000000000E+00  0.46870431130E+03  0.46870431131E+03  0.25500000000E-02 0.  1.
         -2   -1    0    0    0  501 -0.00000000000E+00 -0.00000000000E+00 -0.10000816349E+04  0.10000816349E+04  0.25500000000E-02 0. -1.
    5000001    1    1    2    0    0  0.26444711150E+03 -0.40040671412E+03 -0.75871452948E+03  0.91275985272E+03  0.16500000000E+03 0.  0.
   -5000001    1    1    2    0    0 -0.26444711150E+03  0.40040671412E+03  0.22733720586E+03  0.55602609351E+03  0.16500000000E+03 0.  0.
<mgrwt>
<rscale>  0 0.13692955E+04</rscale>
<asrwt>0</asrwt>
<pdfrwt beam="1">  1        2 0.66957759E-01 0.13692955E+04</pdfrwt>
<pdfrwt beam="2">  1       -2 0.14286880E+00 0.13692955E+04</pdfrwt>
<totfact> 0.24043820E+01</totfact>
</mgrwt>
</event>
<event>
 4    1  0.5387486E-005  0.3922614E+03  0.7818608E-02  0.1046493E+00
         -2   -1    0    0    0  501 -0.00000000000E+00  0.00000000000E+00  0.19205653542E+04  0.19205653542E+04  0.25500000000E-02 0. -1.
          2   -1    0    0  501    0  0.00000000000E+00 -0.00000000000E+00 -0.20029129263E+02  0.20029129425E+02  0.25500000000E-02 0.  1.
    5000001    1    1    2    0    0 -0.81433650748E+02 -0.64095273980E+02  0.83935726251E+03  0.86167584262E+03  0.16500000000E+03 0.  0.
   -5000001    1    1    2    0    0  0.81433650748E+02  0.64095273980E+02  0.10611789624E+04  0.10789186410E+04  0.16500000000E+03 0.  0.
<mgrwt>
<rscale>  0 0.39226140E+03</rscale>
<asrwt>0</asrwt>
<pdfrwt beam="1">  1        2 0.28613024E-02 0.39226140E+03</pdfrwt>
<pdfrwt beam="2">  1       -2 0.27436665E+00 0.39226140E+03</pdfrwt>
<totfact> 0.17164102E+02</totfact>
</mgrwt>
</event>
<event>
 4    1  0.5387486E-005  0.8617678E+03  0.7818608E-02  0.9474677E-01
         -2   -1    0    0    0  501 -0.00000000000E+00  0.00000000000E+00  0.10423458290E+03  0.10423458293E+03  0.25500000000E-02 0. -1.
          2   -1    0    0  501    0  0.00000000000E+00 -0.00000000000E+00 -0.17811835912E+04  0.17811835912E+04  0.25500000000E-02 0.  1.
    5000001    1    1    2    0    0 -0.99622316868E+02  0.16300569529E+03 -0.16024709871E+04  0.16222310955E+04  0.16500000000E+03 0.  0.
   -5000001    1    1    2    0    0  0.99622316868E+02 -0.16300569529E+03 -0.74478021208E+02  0.26318707863E+03  0.16500000000E+03 0.  0.
<mgrwt>
<rscale>  0 0.86176778E+03</rscale>
<asrwt>0</asrwt>
<pdfrwt beam="1">  1        2 0.25445478E+00 0.86176778E+03</pdfrwt>
<pdfrwt beam="2">  1       -2 0.14890656E-01 0.86176778E+03</pdfrwt>
<totfact> 0.37224812E+02</totfact>
</mgrwt>
</event>
<event>
 4    1  0.5387486E-005  0.6779493E+03  0.7818608E-02  0.9755703E-01
         -2   -1    0    0    0  501 -0.00000000000E+00  0.00000000000E+00  0.85267952246E+02  0.85267952284E+02  0.25500000000E-02 0. -1.
          2   -1    0    0  501    0  0.00000000000E+00 -0.00000000000E+00 -0.13475616060E+04  0.13475616060E+04  0.25500000000E-02 0.  1.
    5000001    1    1    2    0    0 -0.17168170618E+03 -0.11284270361E+03 -0.18047200983E+03  0.31937944569E+03  0.16500000000E+03 0.  0.
   -5000001    1    1    2    0    0  0.17168170618E+03  0.11284270361E+03 -0.10818216439E+04  0.11134501126E+04  0.16500000000E+03 0.  0.
<mgrwt>
<rscale>  0 0.67794932E+03</rscale>
<asrwt>0</asrwt>
<pdfrwt beam="1">  1        2 0.19250879E+00 0.67794932E+03</pdfrwt>
<pdfrwt beam="2">  1       -2 0.12181137E-01 0.67794932E+03</pdfrwt>
<totfact> 0.88573983E+02</totfact>
</mgrwt>
</event>
<event>
 4    1  0.5387486E-005  0.4182228E+03  0.7818608E-02  0.1037646E+00
         -2   -1    0    0    0  501 -0.00000000000E+00  0.00000000000E+00  0.22231135484E+02  0.22231135630E+02  0.25500000000E-02 0. -1.
          2   -1    0    0  501    0  0.00000000000E+00 -0.00000000000E+00 -0.19669517660E+04  0.19669517660E+04  0.25500000000E-02 0.  1.
    5000001    1    1    2    0    0 -0.94052484220E+02  0.74852656865E+02 -0.75681224307E+03  0.78386131508E+03  0.16500000000E+03 0.  0.
   -5000001    1    1    2    0    0  0.94052484220E+02 -0.74852656865E+02 -0.11879083874E+04  0.12053215865E+04  0.16500000000E+03 0.  0.
<mgrwt>
<rscale>  0 0.41822277E+03</rscale>
<asrwt>0</asrwt>
<pdfrwt beam="1">  1        2 0.28099300E+00 0.41822277E+03</pdfrwt>
<pdfrwt beam="2">  1       -2 0.31758777E-02 0.41822277E+03</pdfrwt>
<totfact> 0.35565310E+03</totfact>
</mgrwt>
</event>
<event>
 4    1  0.5387486E-005  0.6946791E+03  0.7818608E-02  0.9726375E-01
          2   -1    0    0  501    0  0.00000000000E+00  0.00000000000E+00  0.30846306035E+03  0.30846306036E+03  0.25500000000E-02 0.  1.
         -2   -1    0    0    0  501 -0.00000000000E+00 -0.00000000000E+00 -0.39111580899E+03  0.39111580899E+03  0.25500000000E-02 0. -1.
    5000001    1    1    2    0    0  0.77588200156E+02  0.20204599975E+03 -0.25866624807E+03  0.37546736570E+03  0.16500000000E+03 0.  0.
   -5000001    1    1    2    0    0 -0.77588200156E+02 -0.20204599975E+03  0.17601349943E+03  0.32411150365E+03  0.16500000000E+03 0.  0.
<mgrwt>
<rscale>  0 0.69467915E+03</rscale>
<asrwt>0</asrwt>
<pdfrwt beam="1">  1        2 0.44066152E-01 0.69467915E+03</pdfrwt>
<pdfrwt beam="2">  1       -2 0.55873687E-01 0.69467915E+03</pdfrwt>
<totfact> 0.35084675E+02</totfact>
</mgrwt>
</event>
<event>
 4    1  0.5387486E-005  0.4520291E+03  0.7818608E-02  0.1027119E+00
          2   -1    0    0  501    0  0.00000000000E+00  0.00000000000E+00  0.83723371830E+03  0.83723371831E+03  0.25500000000E-02 0.  1.
         -2   -1    0    0    0  501 -0.00000000000E+00 -0.00000000000E+00 -0.61013523417E+02  0.61013523470E+02  0.25500000000E-02 0. -1.
    5000001    1    1    2    0    0 -0.36617771939E+02 -0.10574598493E+03  0.17655146102E+03  0.26630526269E+03  0.16500000000E+03 0.  0.
   -5000001    1    1    2    0    0  0.36617771939E+02  0.10574598493E+03  0.59966873387E+03  0.63194197908E+03  0.16500000000E+03 0.  0.
<mgrwt>
<rscale>  0 0.45202911E+03</rscale>
<asrwt>0</asrwt>
<pdfrwt beam="1">  1        2 0.11960481E+00 0.45202911E+03</pdfrwt>
<pdfrwt beam="2">  1       -2 0.87162181E-02 0.45202911E+03</pdfrwt>
<totfact> 0.30572441E+03</totfact>
</mgrwt>
</event>
<event>
 4    1  0.5387486E-005  0.9562814E+03  0.7818608E-02  0.9357839E-01
         -2   -1    0    0    0  501 -0.00000000000E+00  0.00000000000E+00  0.21099412132E+03  0.21099412134E+03  0.25500000000E-02 0. -1.
          2   -1    0    0  501    0  0.00000000000E+00 -0.00000000000E+00 -0.10835302318E+04  0.10835302318E+04  0.25500000000E-02 0.  1.
    5000001    1    1    2    0    0  0.42329833242E+03  0.14615444943E+03 -0.47575611601E+03  0.67387794387E+03  0.16500000000E+03 0.  0.
   -5000001    1    1    2    0    0 -0.42329833242E+03 -0.14615444943E+03 -0.39677999443E+03  0.62064640924E+03  0.16500000000E+03 0.  0.
<mgrwt>
<rscale>  0 0.95628136E+03</rscale>
<asrwt>0</asrwt>
<pdfrwt beam="1">  1        2 0.15479003E+00 0.95628136E+03</pdfrwt>
<pdfrwt beam="2">  1       -2 0.30142018E-01 0.95628136E+03</pdfrwt>
<totfact> 0.25333327E+02</totfact>
</mgrwt>
</event>
<event>
 4    1  0.5387486E-005  0.3502681E+03  0.7818608E-02  0.1062505E+00
         -2   -1    0    0    0  501 -0.00000000000E+00  0.00000000000E+00  0.16939594393E+02  0.16939594585E+02  0.25500000000E-02 0. -1.
          2   -1    0    0  501    0  0.00000000000E+00 -0.00000000000E+00 -0.18106655794E+04  0.18106655794E+04  0.25500000000E-02 0.  1.
    5000001    1    1    2    0    0  0.58171541023E+02  0.72083012161E+01 -0.87951618699E+03  0.89677734749E+03  0.16500000000E+03 0.  0.
   -5000001    1    1    2    0    0 -0.58171541023E+02 -0.72083012161E+01 -0.91420979799E+03  0.93082782647E+03  0.16500000000E+03 0.  0.
<mgrwt>
<rscale>  0 0.35026813E+03</rscale>
<asrwt>0</asrwt>
<pdfrwt beam="1">  1        2 0.25866639E+00 0.35026813E+03</pdfrwt>
<pdfrwt beam="2">  1       -2 0.24199432E-02 0.35026813E+03</pdfrwt>
<totfact> 0.63898010E+03</totfact>
</mgrwt>
</event>
<event>
 4    1  0.5387486E-005  0.4454751E+03  0.7818608E-02  0.1029080E+00
          2   -1    0    0  501    0  0.00000000000E+00  0.00000000000E+00  0.25244134728E+03  0.25244134729E+03  0.25500000000E-02 0.  1.
         -2   -1    0    0    0  501 -0.00000000000E+00 -0.00000000000E+00 -0.19652888180E+03  0.19652888182E+03  0.25500000000E-02 0. -1.
    5000001    1    1    2    0    0  0.11295816058E+03  0.62598117340E+02 -0.48194143943E+02  0.21500173452E+03  0.16500000000E+03 0.  0.
   -5000001    1    1    2    0    0 -0.11295816058E+03 -0.62598117340E+02  0.10410660942E+03  0.23396849459E+03  0.16500000000E+03 0.  0.
<mgrwt>
<rscale>  0 0.44547510E+03</rscale>
<asrwt>0</asrwt>
<pdfrwt beam="1">  1        2 0.36063050E-01 0.44547510E+03</pdfrwt>
<pdfrwt beam="2">  1       -2 0.28075554E-01 0.44547510E+03</pdfrwt>
<totfact> 0.16655983E+03</totfact>
</mgrwt>
</event>
<event>
 4    1  0.5387486E-005  0.4221910E+03  0.7818608E-02  0.1036356E+00
         -2   -1    0    0    0  501 -0.00000000000E+00  0.00000000000E+00  0.20724445894E+03  0.20724445895E+03  0.25500000000E-02 0. -1.
          2   -1    0    0  501    0  0.00000000000E+00 -0.00000000000E+00 -0.21501814698E+03  0.21501814699E+03  0.25500000000E-02 0.  1.
    5000001    1    1    2    0    0 -0.95005907485E+02 -0.89530275303E+02  0.13277850519E+02  0.21081530772E+03  0.16500000000E+03 0.  0.
   -5000001    1    1    2    0    0  0.95005907485E+02  0.89530275303E+02 -0.21051538557E+02  0.21144729823E+03  0.16500000000E+03 0.  0.
<mgrwt>
<rscale>  0 0.42219104E+03</rscale>
<asrwt>0</asrwt>
<pdfrwt beam="1">  1        2 0.30716878E-01 0.42219104E+03</pdfrwt>
<pdfrwt beam="2">  1       -2 0.29606351E-01 0.42219104E+03</pdfrwt>
<totfact> 0.18045029E+03</totfact>
</mgrwt>
</event>
<event>
 4    1  0.5387486E-005  0.3475878E+03  0.7818608E-02  0.1063609E+00
          2   -1    0    0  501    0  0.00000000000E+00  0.00000000000E+00  0.68966062742E+03  0.68966062742E+03  0.25500000000E-02 0.  1.
         -2   -1    0    0    0  501 -0.00000000000E+00 -0.00000000000E+00 -0.43795907035E+02  0.43795907109E+02  0.25500000000E-02 0. -1.
    5000001    1    1    2    0    0  0.46477482987E+02  0.25523109997E+02  0.29560412193E+03  0.34266365794E+03  0.16500000000E+03 0.  0.
   -5000001    1    1    2    0    0 -0.46477482987E+02 -0.25523109997E+02  0.35026059845E+03  0.39079287659E+03  0.16500000000E+03 0.  0.
<mgrwt>
<rscale>  0 0.34758776E+03</rscale>
<asrwt>0</asrwt>
<pdfrwt beam="1">  1        2 0.98522944E-01 0.34758776E+03</pdfrwt>
<pdfrwt beam="2">  1       -2 0.62565583E-02 0.34758776E+03</pdfrwt>
<totfact> 0.65109224E+03</totfact>
</mgrwt>
</event>
<event>
 4    1  0.5387486E-005  0.8571265E+03  0.7818608E-02  0.9480822E-01
          2   -1    0    0  501    0  0.00000000000E+00  0.00000000000E+00  0.36284003983E+03  0.36284003984E+03  0.25500000000E-02 0.  1.
         -2   -1    0    0    0  501 -0.00000000000E+00 -0.00000000000E+00 -0.50619126552E+03  0.50619126553E+03  0.25500000000E-02 0. -1.
    5000001    1    1    2    0    0 -0.10878432372E+03  0.37315337056E+03 -0.14593212664E+03  0.44676465016E+03  0.16500000000E+03 0.  0.
   -5000001    1    1    2    0    0  0.10878432372E+03 -0.37315337056E+03  0.25809009517E+01  0.42226665521E+03  0.16500000000E+03 0.  0.
<mgrwt>
<rscale>  0 0.85712650E+03</rscale>
<asrwt>0</asrwt>
<pdfrwt beam="1">  1        2 0.51834292E-01 0.85712650E+03</pdfrwt>
<pdfrwt beam="2">  1       -2 0.72313038E-01 0.85712650E+03</pdfrwt>
<totfact> 0.16789680E+02</totfact>
</mgrwt>
</event>
<event>
 4    1  0.5387486E-005  0.4590190E+03  0.7818608E-02  0.1025066E+00
          2   -1    0    0  501    0  0.00000000000E+00  0.00000000000E+00  0.35517787518E+03  0.35517787519E+03  0.25500000000E-02 0.  1.
         -2   -1    0    0    0  501 -0.00000000000E+00 -0.00000000000E+00 -0.14830488956E+03  0.14830488958E+03  0.25500000000E-02 0. -1.
    5000001    1    1    2    0    0 -0.14889332731E+02  0.67348227516E+02 -0.54345205022E+02  0.18691141562E+03  0.16500000000E+03 0.  0.
   -5000001    1    1    2    0    0  0.14889332731E+02 -0.67348227516E+02  0.26121819064E+03  0.31657134915E+03  0.16500000000E+03 0.  0.
<mgrwt>
<rscale>  0 0.45901902E+03</rscale>
<asrwt>0</asrwt>
<pdfrwt beam="1">  1        2 0.50739696E-01 0.45901902E+03</pdfrwt>
<pdfrwt beam="2">  1       -2 0.21186413E-01 0.45901902E+03</pdfrwt>
<totfact> 0.18909303E+03</totfact>
</mgrwt>
</event>
<event>
 4    1  0.5387486E-005  0.7551480E+03  0.7818608E-02  0.9627308E-01
         -2   -1    0    0    0  501 -0.00000000000E+00  0.00000000000E+00  0.10917160630E+03  0.10917160633E+03  0.25500000000E-02 0. -1.
          2   -1    0    0  501    0  0.00000000000E+00 -0.00000000000E+00 -0.13058534579E+04  0.13058534579E+04  0.25500000000E-02 0.  1.
    5000001    1    1    2    0    0 -0.27061440165E+03  0.20404593613E+03 -0.55770752631E+03  0.67314900530E+03  0.16500000000E+03 0.  0.
   -5000001    1    1    2    0    0  0.27061440165E+03 -0.20404593613E+03 -0.63897432530E+03  0.74187605894E+03  0.16500000000E+03 0.  0.
<mgrwt>
<rscale>  0 0.75514798E+03</rscale>
<asrwt>0</asrwt>
<pdfrwt beam="1">  1        2 0.18655048E+00 0.75514798E+03</pdfrwt>
<pdfrwt beam="2">  1       -2 0.15595945E-01 0.75514798E+03</pdfrwt>
<totfact> 0.61495025E+02</totfact>
</mgrwt>
</event>
<event>
 4    1  0.5387486E-005  0.3546771E+03  0.7818608E-02  0.1060712E+00
         -2   -1    0    0    0  501 -0.00000000000E+00  0.00000000000E+00  0.14142643311E+02  0.14142643541E+02  0.25500000000E-02 0. -1.
          2   -1    0    0  501    0  0.00000000000E+00 -0.00000000000E+00 -0.22236971816E+04  0.22236971816E+04  0.25500000000E-02 0.  1.
    5000001    1    1    2    0    0 -0.61561234620E+02 -0.10467493722E+02 -0.12184540271E+04  0.12311598475E+04  0.16500000000E+03 0.  0.
   -5000001    1    1    2    0    0  0.61561234620E+02  0.10467493722E+02 -0.99110051120E+03  0.10066799776E+04  0.16500000000E+03 0.  0.
<mgrwt>
<rscale>  0 0.35467707E+03</rscale>
<asrwt>0</asrwt>
<pdfrwt beam="1">  1        2 0.31767080E+00 0.35467707E+03</pdfrwt>
<pdfrwt beam="2">  1       -2 0.20203790E-02 0.35467707E+03</pdfrwt>
<totfact> 0.52278960E+03</totfact>
</mgrwt>
</event>
<event>
 4    1  0.5387486E-005  0.5389935E+03  0.7818608E-02  0.1004074E+00
         -2   -1    0    0    0  501 -0.00000000000E+00  0.00000000000E+00  0.13846950676E+03  0.13846950679E+03  0.25500000000E-02 0. -1.
          2   -1    0    0  501    0  0.00000000000E+00 -0.00000000000E+00 -0.52450897264E+03  0.52450897265E+03  0.25500000000E-02 0.  1.
    5000001    1    1    2    0    0  0.13746053236E+03  0.11226052376E+03 -0.33806780101E+03  0.41594790687E+03  0.16500000000E+03 0.  0.
   -5000001    1    1    2    0    0 -0.13746053236E+03 -0.11226052376E+03 -0.47971664866E+02  0.24703057256E+03  0.16500000000E+03 0.  0.
<mgrwt>
<rscale>  0 0.53899350E+03</rscale>
<asrwt>0</asrwt>
<pdfrwt beam="1">  1        2 0.74929852E-01 0.53899350E+03</pdfrwt>
<pdfrwt beam="2">  1       -2 0.19781358E-01 0.53899350E+03</pdfrwt>
<totfact> 0.13808734E+03</totfact>
</mgrwt>
</event>
<event>
 4    1  0.5387486E-005  0.6077651E+03  0.7818608E-02  0.9889426E-01
          2   -1    0    0  501    0  0.00000000000E+00  0.00000000000E+00  0.10754293109E+04  0.10754293109E+04  0.25500000000E-02 0.  1.
         -2   -1    0    0    0  501 -0.00000000000E+00 -0.00000000000E+00 -0.85867670022E+02  0.85867670060E+02  0.25500000000E-02 0. -1.
    5000001    1    1    2    0    0 -0.23757521051E+02  0.24707651569E+03  0.60795859208E+03  0.67708926597E+03  0.16500000000E+03 0.  0.
   -5000001    1    1    2    0    0  0.23757521051E+02 -0.24707651569E+03  0.38160304884E+03  0.48420771503E+03  0.16500000000E+03 0.  0.
<mgrwt>
<rscale>  0 0.60776512E+03</rscale>
<asrwt>0</asrwt>
<pdfrwt beam="1">  1        2 0.15363275E+00 0.60776512E+03</pdfrwt>
<pdfrwt beam="2">  1       -2 0.12266811E-01 0.60776512E+03</pdfrwt>
<totfact> 0.12472377E+03</totfact>
</mgrwt>
</event>
<event>
 4    1  0.5387486E-005  0.5426730E+03  0.7818608E-02  0.1003204E+00
          2   -1    0    0  501    0  0.00000000000E+00  0.00000000000E+00  0.46091918026E+03  0.46091918027E+03  0.25500000000E-02 0.  1.
         -2   -1    0    0    0  501 -0.00000000000E+00 -0.00000000000E+00 -0.15973191912E+03  0.15973191914E+03  0.25500000000E-02 0. -1.
    5000001    1    1    2    0    0 -0.94128575190E+01 -0.21070448320E+03  0.10056411972E+03  0.28604741443E+03  0.16500000000E+03 0.  0.
   -5000001    1    1    2    0    0  0.94128575190E+01  0.21070448320E+03  0.20062314142E+03  0.33460368498E+03  0.16500000000E+03 0.  0.
<mgrwt>
<rscale>  0 0.54267303E+03</rscale>
<asrwt>0</asrwt>
<pdfrwt beam="1">  1        2 0.65845598E-01 0.54267303E+03</pdfrwt>
<pdfrwt beam="2">  1       -2 0.22818845E-01 0.54267303E+03</pdfrwt>
<totfact> 0.12445160E+03</totfact>
</mgrwt>
</event>
<event>
 4    1  0.5387486E-005  0.4157431E+03  0.7818608E-02  0.1038461E+00
         -2   -1    0    0    0  501 -0.00000000000E+00  0.00000000000E+00  0.25698167044E+02  0.25698167170E+02  0.25500000000E-02 0. -1.
          2   -1    0    0  501    0  0.00000000000E+00 -0.00000000000E+00 -0.16814653198E+04  0.16814653198E+04  0.25500000000E-02 0.  1.
    5000001    1    1    2    0    0  0.60009971062E+02 -0.10939717590E+03 -0.91170008260E+03  0.93487484688E+03  0.16500000000E+03 0.  0.
   -5000001    1    1    2    0    0 -0.60009971062E+02  0.10939717590E+03 -0.74406707021E+03  0.77228864014E+03  0.16500000000E+03 0.  0.
<mgrwt>
<rscale>  0 0.41574308E+03</rscale>
<asrwt>0</asrwt>
<pdfrwt beam="1">  1        2 0.24020926E+00 0.41574308E+03</pdfrwt>
<pdfrwt beam="2">  1       -2 0.36711678E-02 0.41574308E+03</pdfrwt>
<totfact> 0.39627270E+03</totfact>
</mgrwt>
</event>
<event>
 4    1  0.5387486E-005  0.3590905E+03  0.7818608E-02  0.1058945E+00
          2   -1    0    0  501    0  0.00000000000E+00  0.00000000000E+00  0.10346088819E+04  0.10346088819E+04  0.25500000000E-02 0.  1.
         -2   -1    0    0    0  501 -0.00000000000E+00 -0.00000000000E+00 -0.31158142917E+02  0.31158143021E+02  0.25500000000E-02 0. -1.
    5000001    1    1    2    0    0  0.22555724554E+02 -0.38830532468E+02  0.66414968626E+03  0.68581074410E+03  0.16500000000E+03 0.  0.
   -5000001    1    1    2    0    0 -0.22555724554E+02  0.38830532468E+02  0.33930105274E+03  0.37995628085E+03  0.16500000000E+03 0.  0.
<mgrwt>
<rscale>  0 0.35909047E+03</rscale>
<asrwt>0</asrwt>
<pdfrwt beam="1">  1        2 0.14780125E+00 0.35909047E+03</pdfrwt>
<pdfrwt beam="2">  1       -2 0.44511640E-02 0.35909047E+03</pdfrwt>
<totfact> 0.65291743E+03</totfact>
</mgrwt>
</event>
<event>
 4    1  0.5387486E-005  0.4274040E+03  0.7818608E-02  0.1034683E+00
          2   -1    0    0  501    0  0.00000000000E+00  0.00000000000E+00  0.35497191703E+03  0.35497191704E+03  0.25500000000E-02 0.  1.
         -2   -1    0    0    0  501 -0.00000000000E+00 -0.00000000000E+00 -0.12865393977E+03  0.12865393980E+03  0.25500000000E-02 0. -1.
    5000001    1    1    2    0    0  0.10115139267E+03  0.41553209852E+02  0.20428340118E+03  0.28445558789E+03  0.16500000000E+03 0.  0.
   -5000001    1    1    2    0    0 -0.10115139267E+03 -0.41553209852E+02  0.22034576078E+02  0.19917026894E+03  0.16500000000E+03 0.  0.
<mgrwt>
<rscale>  0 0.42740396E+03</rscale>
<asrwt>0</asrwt>
<pdfrwt beam="1">  1        2 0.50710275E-01 0.42740396E+03</pdfrwt>
<pdfrwt beam="2">  1       -2 0.18379134E-01 0.42740396E+03</pdfrwt>
<totfact> 0.24167995E+03</totfact>
</mgrwt>
</event>
<event>
 4    1  0.5387486E-005  0.4858605E+03  0.7818608E-02  0.1017537E+00
         -2   -1    0    0    0  501 -0.00000000000E+00  0.00000000000E+00  0.21744898820E+02  0.21744898970E+02  0.25500000000E-02 0. -1.
          2   -1    0    0  501    0  0.00000000000E+00 -0.00000000000E+00 -0.27139748826E+04  0.27139748826E+04  0.25500000000E-02 0.  1.
    5000001    1    1    2    0    0 -0.10683605206E+03 -0.12539905358E+03 -0.17301268223E+04  0.17457670767E+04  0.16500000000E+03 0.  0.
   -5000001    1    1    2    0    0  0.10683605206E+03  0.12539905358E+03 -0.96210316148E+03  0.98995270492E+03  0.16500000000E+03 0.  0.
<mgrwt>
<rscale>  0 0.48586051E+03</rscale>
<asrwt>0</asrwt>
<pdfrwt beam="1">  1        2 0.38771048E+00 0.48586051E+03</pdfrwt>
<pdfrwt beam="2">  1       -2 0.31064158E-02 0.48586051E+03</pdfrwt>
<totfact> 0.15396011E+03</totfact>
</mgrwt>
</event>
<event>
 4    1  0.5387486E-005  0.4562990E+03  0.7818608E-02  0.1025860E+00
         -2   -1    0    0    0  501 -0.00000000000E+00  0.00000000000E+00  0.18882318057E+02  0.18882318229E+02  0.25500000000E-02 0. -1.
          2   -1    0    0  501    0  0.00000000000E+00 -0.00000000000E+00 -0.27566628945E+04  0.27566628945E+04  0.25500000000E-02 0.  1.
    5000001    1    1    2    0    0  0.60445557489E+02 -0.14457923881E+03 -0.12688734051E+04  0.12891165734E+04  0.16500000000E+03 0.  0.
   -5000001    1    1    2    0    0 -0.60445557489E+02  0.14457923881E+03 -0.14689071714E+04  0.14864286393E+04  0.16500000000E+03 0.  0.
<mgrwt>
<rscale>  0 0.45629896E+03</rscale>
<asrwt>0</asrwt>
<pdfrwt beam="1">  1        2 0.39380873E+00 0.45629896E+03</pdfrwt>
<pdfrwt beam="2">  1       -2 0.26974758E-02 0.45629896E+03</pdfrwt>
<totfact> 0.18141696E+03</totfact>
</mgrwt>
</event>
<event>
 4    1  0.5387486E-005  0.4305767E+03  0.7818608E-02  0.1033678E+00
          2   -1    0    0  501    0  0.00000000000E+00  0.00000000000E+00  0.17887795605E+03  0.17887795607E+03  0.25500000000E-02 0.  1.
         -2   -1    0    0    0  501 -0.00000000000E+00 -0.00000000000E+00 -0.25911004048E+03  0.25911004050E+03  0.25500000000E-02 0. -1.
    5000001    1    1    2    0    0  0.13163538995E+03  0.24189715583E+02 -0.75515273469E+02  0.22547854611E+03  0.16500000000E+03 0.  0.
   -5000001    1    1    2    0    0 -0.13163538995E+03 -0.24189715583E+02 -0.47168109689E+01  0.21250945046E+03  0.16500000000E+03 0.  0.
<mgrwt>
<rscale>  0 0.43057670E+03</rscale>
<asrwt>0</asrwt>
<pdfrwt beam="1">  1        2 0.25553994E-01 0.43057670E+03</pdfrwt>
<pdfrwt beam="2">  1       -2 0.37015720E-01 0.43057670E+03</pdfrwt>
<totfact> 0.14624090E+03</totfact>
</mgrwt>
</event>
<event>
 4    1  0.5387486E-005  0.4896926E+03  0.7818608E-02  0.1016505E+00
          2   -1    0    0  501    0  0.00000000000E+00  0.00000000000E+00  0.15598398590E+04  0.15598398590E+04  0.25500000000E-02 0.  1.
         -2   -1    0    0    0  501 -0.00000000000E+00 -0.00000000000E+00 -0.38433240976E+02  0.38433241061E+02  0.25500000000E-02 0. -1.
    5000001    1    1    2    0    0 -0.13559463992E+03  0.68828999555E+02  0.10805147111E+04  0.11035671155E+04  0.16500000000E+03 0.  0.
   -5000001    1    1    2    0    0  0.13559463992E+03 -0.68828999555E+02  0.44089190695E+03  0.49470598457E+03  0.16500000000E+03 0.  0.
<mgrwt>
<rscale>  0 0.48969256E+03</rscale>
<asrwt>0</asrwt>
<pdfrwt beam="1">  1        2 0.22283431E+00 0.48969256E+03</pdfrwt>
<pdfrwt beam="2">  1       -2 0.54904619E-02 0.48969256E+03</pdfrwt>
<totfact> 0.24615093E+03</totfact>
</mgrwt>
</event>
<event>
 4    1  0.5387486E-005  0.5580673E+03  0.7818608E-02  0.9996437E-01
         -2   -1    0    0    0  501 -0.00000000000E+00  0.00000000000E+00  0.64258477508E+03  0.64258477508E+03  0.25500000000E-02 0. -1.
          2   -1    0    0  501    0  0.00000000000E+00 -0.00000000000E+00 -0.12116656382E+03  0.12116656385E+03  0.25500000000E-02 0.  1.
    5000001    1    1    2    0    0  0.21244309822E+03  0.30091832695E+02  0.35350144291E+03  0.44522562653E+03  0.16500000000E+03 0.  0.
   -5000001    1    1    2    0    0 -0.21244309822E+03 -0.30091832695E+02  0.16791676834E+03  0.31852571241E+03  0.16500000000E+03 0.  0.
<mgrwt>
<rscale>  0 0.55806734E+03</rscale>
<asrwt>0</asrwt>
<pdfrwt beam="1">  1        2 0.17309509E-01 0.55806734E+03</pdfrwt>
<pdfrwt beam="2">  1       -2 0.91797827E-01 0.55806734E+03</pdfrwt>
<totfact> 0.34424056E+02</totfact>
</mgrwt>
</event>
<event>
 4    1  0.5387486E-005  0.5144332E+03  0.7818608E-02  0.1010079E+00
         -2   -1    0    0    0  501 -0.00000000000E+00  0.00000000000E+00  0.16561765525E+02  0.16561765721E+02  0.25500000000E-02 0.  1.
          2   -1    0    0  501    0  0.00000000000E+00 -0.00000000000E+00 -0.39947658285E+04  0.39947658285E+04  0.25500000000E-02 0. -1.
    5000001    1    1    2    0    0  0.93303459718E+02 -0.15165368961E+03 -0.13260337065E+04  0.13480707577E+04  0.16500000000E+03 0.  0.
   -5000001    1    1    2    0    0 -0.93303459718E+02  0.15165368961E+03 -0.26521703565E+04  0.26632568364E+04  0.16500000000E+03 0.  0.
<mgrwt>
<rscale>  0 0.51443318E+03</rscale>
<asrwt>0</asrwt>
<pdfrwt beam="1">  1        2 0.57068022E+00 0.51443318E+03</pdfrwt>
<pdfrwt beam="2">  1       -2 0.23659691E-02 0.51443318E+03</pdfrwt>
<totfact> 0.41848519E+02</totfact>
</mgrwt>
</event>
<event>
 4    1  0.5387486E-005  0.4341514E+03  0.7818608E-02  0.1032557E+00
         -2   -1    0    0    0  501 -0.00000000000E+00  0.00000000000E+00  0.24988836061E+03  0.24988836063E+03  0.25500000000E-02 0. -1.
          2   -1    0    0  501    0  0.00000000000E+00 -0.00000000000E+00 -0.18857168300E+03  0.18857168302E+03  0.25500000000E-02 0.  1.
    5000001    1    1    2    0    0 -0.56244579311E+02 -0.11441738237E+03 -0.30290219039E+02  0.21070663839E+03  0.16500000000E+03 0.  0.
   -5000001    1    1    2    0    0  0.56244579311E+02  0.11441738237E+03  0.91606896655E+02  0.22775340526E+03  0.16500000000E+03 0.  0.
<mgrwt>
<rscale>  0 0.43415144E+03</rscale>
<asrwt>0</asrwt>
<pdfrwt beam="1">  1        2 0.26938812E-01 0.43415144E+03</pdfrwt>
<pdfrwt beam="2">  1       -2 0.35698337E-01 0.43415144E+03</pdfrwt>
<totfact> 0.14759685E+03</totfact>
</mgrwt>
</event>
<event>
 4    1  0.5387486E-005  0.5519203E+03  0.7818608E-02  0.1001050E+00
          2   -1    0    0  501    0  0.00000000000E+00  0.00000000000E+00  0.36878830535E+03  0.36878830536E+03  0.25500000000E-02 0.  1.
         -2   -1    0    0    0  501 -0.00000000000E+00 -0.00000000000E+00 -0.20649790508E+03  0.20649790509E+03  0.25500000000E-02 0. -1.
    5000001    1    1    2    0    0 -0.21940888184E+03  0.27902526730E+02  0.84474814107E+02  0.28858240183E+03  0.16500000000E+03 0.  0.
   -5000001    1    1    2    0    0  0.21940888184E+03 -0.27902526730E+02  0.77815586168E+02  0.28670380862E+03  0.16500000000E+03 0.  0.
<mgrwt>
<rscale>  0 0.55192033E+03</rscale>
<asrwt>0</asrwt>
<pdfrwt beam="1">  1        2 0.52684043E-01 0.55192033E+03</pdfrwt>
<pdfrwt beam="2">  1       -2 0.29499701E-01 0.55192033E+03</pdfrwt>
<totfact> 0.10037029E+03</totfact>
</mgrwt>
</event>
<event>
 4    1  0.5387486E-005  0.4220854E+03  0.7818608E-02  0.1036390E+00
          2   -1    0    0  501    0  0.00000000000E+00  0.00000000000E+00  0.11309198144E+03  0.11309198147E+03  0.25500000000E-02 0.  1.
         -2   -1    0    0    0  501 -0.00000000000E+00 -0.00000000000E+00 -0.39383005275E+03  0.39383005276E+03  0.25500000000E-02 0. -1.
    5000001    1    1    2    0    0 -0.38090575696E+02  0.11712817429E+03 -0.19598063297E+03  0.28425922970E+03  0.16500000000E+03 0.  0.
   -5000001    1    1    2    0    0  0.38090575696E+02 -0.11712817429E+03 -0.84757438339E+02  0.22266280453E+03  0.16500000000E+03 0.  0.
<mgrwt>
<rscale>  0 0.42208540E+03</rscale>
<asrwt>0</asrwt>
<pdfrwt beam="1">  1        2 0.16155998E-01 0.42208540E+03</pdfrwt>
<pdfrwt beam="2">  1       -2 0.56261435E-01 0.42208540E+03</pdfrwt>
<totfact> 0.10865463E+03</totfact>
</mgrwt>
</event>
<event>
 4    1  0.5387486E-005  0.6853047E+03  0.7818608E-02  0.9742698E-01
         -2   -1    0    0    0  501 -0.00000000000E+00  0.00000000000E+00  0.14977178948E+03  0.14977178950E+03  0.25500000000E-02 0.  1.
          2   -1    0    0  501    0  0.00000000000E+00 -0.00000000000E+00 -0.78393016180E+03  0.78393016181E+03  0.25500000000E-02 0. -1.
    5000001    1    1    2    0    0  0.24295111516E+03  0.12912480046E+03 -0.48106877360E+03  0.57823059707E+03  0.16500000000E+03 0.  0.
   -5000001    1    1    2    0    0 -0.24295111516E+03 -0.12912480046E+03 -0.15308959872E+03  0.35547135424E+03  0.16500000000E+03 0.  0.
<mgrwt>
<rscale>  0 0.68530467E+03</rscale>
<asrwt>0</asrwt>
<pdfrwt beam="1">  1        2 0.11199002E+00 0.68530467E+03</pdfrwt>
<pdfrwt beam="2">  1       -2 0.21395970E-01 0.68530467E+03</pdfrwt>
<totfact> 0.74166147E+02</totfact>
</mgrwt>
</event>
<event>
 4    1  0.5387486E-005  0.7275563E+03  0.7818608E-02  0.9671234E-01
          2   -1    0    0  501    0  0.00000000000E+00  0.00000000000E+00  0.14432252576E+03  0.14432252579E+03  0.25500000000E-02 0.  1.
         -2   -1    0    0    0  501 -0.00000000000E+00 -0.00000000000E+00 -0.91693615835E+03  0.91693615835E+03  0.25500000000E-02 0. -1.
    5000001    1    1    2    0    0 -0.25311050294E+03  0.18738214789E+03 -0.27395626189E+03  0.44883630588E+03  0.16500000000E+03 0.  0.
   -5000001    1    1    2    0    0  0.25311050294E+03 -0.18738214789E+03 -0.49865737069E+03  0.61242237826E+03  0.16500000000E+03 0.  0.
<mgrwt>
<rscale>  0 0.72755630E+03</rscale>
<asrwt>0</asrwt>
<pdfrwt beam="1">  1        2 0.20617504E-01 0.72755630E+03</pdfrwt>
<pdfrwt beam="2">  1       -2 0.13099088E+00 0.72755630E+03</pdfrwt>
<totfact> 0.11804824E+02</totfact>
</mgrwt>
</event>
<event>
 4    1  0.5387486E-005  0.4155473E+03  0.7818608E-02  0.1038525E+00
          2   -1    0    0  501    0  0.00000000000E+00  0.00000000000E+00  0.20486173795E+04  0.20486173795E+04  0.25500000000E-02 0.  1.
         -2   -1    0    0    0  501 -0.00000000000E+00 -0.00000000000E+00 -0.21072700120E+02  0.21072700274E+02  0.25500000000E-02 0. -1.
    5000001    1    1    2    0    0  0.18791398452E+02 -0.12358615100E+03  0.92492046209E+03  0.94780246600E+03  0.16500000000E+03 0.  0.
   -5000001    1    1    2    0    0 -0.18791398452E+02  0.12358615100E+03  0.11026242173E+04  0.11218876137E+04  0.16500000000E+03 0.  0.
<mgrwt>
<rscale>  0 0.41554735E+03</rscale>
<asrwt>0</asrwt>
<pdfrwt beam="1">  1        2 0.29265938E+00 0.41554735E+03</pdfrwt>
<pdfrwt beam="2">  1       -2 0.30103883E-02 0.41554735E+03</pdfrwt>
<totfact> 0.35126705E+03</totfact>
</mgrwt>
</event>
<event>
 4    1  0.5387486E-005  0.4991312E+03  0.7818608E-02  0.1014006E+00
         -2   -1    0    0    0  501 -0.00000000000E+00  0.00000000000E+00  0.49470185827E+02  0.49470185893E+02  0.25500000000E-02 0. -1.
          2   -1    0    0  501    0  0.00000000000E+00 -0.00000000000E+00 -0.12590005811E+04  0.12590005811E+04  0.25500000000E-02 0.  1.
    5000001    1    1    2    0    0  0.17442822153E+03 -0.14406519702E+02 -0.43037674260E+03  0.49303335876E+03  0.16500000000E+03 0.  0.
   -5000001    1    1    2    0    0 -0.17442822153E+03  0.14406519702E+02 -0.77915365265E+03  0.81543740821E+03  0.16500000000E+03 0.  0.
<mgrwt>
<rscale>  0 0.49913122E+03</rscale>
<asrwt>0</asrwt>
<pdfrwt beam="1">  1        2 0.17985721E+00 0.49913122E+03</pdfrwt>
<pdfrwt beam="2">  1       -2 0.70671702E-02 0.49913122E+03</pdfrwt>
<totfact> 0.23903633E+03</totfact>
</mgrwt>
</event>
<event>
 4    1  0.5387486E-005  0.5799885E+03  0.7818608E-02  0.9947816E-01
          2   -1    0    0  501    0  0.00000000000E+00  0.00000000000E+00  0.36481940309E+04  0.36481940309E+04  0.25500000000E-02 0.  1.
         -2   -1    0    0    0  501 -0.00000000000E+00 -0.00000000000E+00 -0.23051587472E+02  0.23051587613E+02  0.25500000000E-02 0. -1.
    5000001    1    1    2    0    0  0.20560167421E+03  0.68810605307E+02  0.24412609427E+04  0.24564175008E+04  0.16500000000E+03 0.  0.
   -5000001    1    1    2    0    0 -0.20560167421E+03 -0.68810605307E+02  0.11838815007E+04  0.12148281177E+04  0.16500000000E+03 0.  0.
<mgrwt>
<rscale>  0 0.57998850E+03</rscale>
<asrwt>0</asrwt>
<pdfrwt beam="1">  1        2 0.52117078E+00 0.57998850E+03</pdfrwt>
<pdfrwt beam="2">  1       -2 0.32930827E-02 0.57998850E+03</pdfrwt>
<totfact> 0.41782697E+02</totfact>
</mgrwt>
</event>
<event>
 4    1  0.5387486E-005  0.3787081E+03  0.7818608E-02  0.1051412E+00
          2   -1    0    0  501    0  0.00000000000E+00  0.00000000000E+00  0.23289063798E+04  0.23289063798E+04  0.25500000000E-02 0.  1.
         -2   -1    0    0    0  501 -0.00000000000E+00 -0.00000000000E+00 -0.15395619106E+02  0.15395619318E+02  0.25500000000E-02 0. -1.
    5000001    1    1    2    0    0  0.69247498408E+02  0.60616314312E+02  0.12351550335E+04  0.12495209123E+04  0.16500000000E+03 0.  0.
   -5000001    1    1    2    0    0 -0.69247498408E+02 -0.60616314312E+02  0.10783557272E+04  0.10947810868E+04  0.16500000000E+03 0.  0.
<mgrwt>
<rscale>  0 0.37870810E+03</rscale>
<asrwt>0</asrwt>
<pdfrwt beam="1">  1        2 0.33270068E+00 0.37870810E+03</pdfrwt>
<pdfrwt beam="2">  1       -2 0.21993757E-02 0.37870810E+03</pdfrwt>
<totfact> 0.40838210E+03</totfact>
</mgrwt>
</event>
<event>
 4    1  0.5387486E-005  0.8635836E+03  0.7818608E-02  0.9472285E-01
          2   -1    0    0  501    0  0.00000000000E+00  0.00000000000E+00  0.31492343639E+04  0.31492343639E+04  0.25500000000E-02 0.  1.
         -2   -1    0    0    0  501 -0.00000000000E+00 -0.00000000000E+00 -0.59203010723E+02  0.59203010778E+02  0.25500000000E-02 0. -1.
    5000001    1    1    2    0    0 -0.27217949831E+03  0.29079194186E+03  0.14557316265E+04  0.15182296273E+04  0.16500000000E+03 0.  0.
   -5000001    1    1    2    0    0  0.27217949831E+03 -0.29079194186E+03  0.16342997266E+04  0.16902077474E+04  0.16500000000E+03 0.  0.
<mgrwt>
<rscale>  0 0.86358359E+03</rscale>
<asrwt>0</asrwt>
<pdfrwt beam="1">  1        2 0.44989070E+00 0.86358359E+03</pdfrwt>
<pdfrwt beam="2">  1       -2 0.84575714E-02 0.86358359E+03</pdfrwt>
<totfact> 0.18165319E+02</totfact>
</mgrwt>
</event>
<event>
 4    1  0.5387486E-005  0.4439507E+03  0.7818608E-02  0.1029542E+00
          2   -1    0    0  501    0  0.00000000000E+00  0.00000000000E+00  0.65338253089E+03  0.65338253089E+03  0.25500000000E-02 0.  1.
         -2   -1    0    0    0  501 -0.00000000000E+00 -0.00000000000E+00 -0.75412261392E+02  0.75412261435E+02  0.25500000000E-02 0. -1.
    5000001    1    1    2    0    0  0.57545294259E+02 -0.12879466865E+03  0.36507746725E+03  0.42474237446E+03  0.16500000000E+03 0.  0.
   -5000001    1    1    2    0    0 -0.57545294259E+02  0.12879466865E+03  0.21289280224E+03  0.30405241787E+03  0.16500000000E+03 0.  0.
<mgrwt>
<rscale>  0 0.44395069E+03</rscale>
<asrwt>0</asrwt>
<pdfrwt beam="1">  1        2 0.93340362E-01 0.44395069E+03</pdfrwt>
<pdfrwt beam="2">  1       -2 0.10773180E-01 0.44395069E+03</pdfrwt>
<totfact> 0.29528866E+03</totfact>
</mgrwt>
</event>
<event>
 4    1  0.5387486E-005  0.5567283E+03  0.7818608E-02  0.9999485E-01
         -2   -1    0    0    0  501 -0.00000000000E+00  0.00000000000E+00  0.99906605619E+02  0.99906605652E+02  0.25500000000E-02 0. -1.
          2   -1    0    0  501    0  0.00000000000E+00 -0.00000000000E+00 -0.77559047699E+03  0.77559047700E+03  0.25500000000E-02 0.  1.
    5000001    1    1    2    0    0 -0.39879985662E+02 -0.21885220352E+03 -0.38161807681E+03  0.47153372815E+03  0.16500000000E+03 0.  0.
   -5000001    1    1    2    0    0  0.39879985662E+02  0.21885220352E+03 -0.29406579457E+03  0.40396335450E+03  0.16500000000E+03 0.  0.
<mgrwt>
<rscale>  0 0.55672834E+03</rscale>
<asrwt>0</asrwt>
<pdfrwt beam="1">  1        2 0.11079864E+00 0.55672834E+03</pdfrwt>
<pdfrwt beam="2">  1       -2 0.14272373E-01 0.55672834E+03</pdfrwt>
<totfact> 0.15086936E+03</totfact>
</mgrwt>
</event>
<event>
 4    1  0.5387486E-005  0.8543501E+03  0.7818608E-02  0.9484517E-01
          2   -1    0    0  501    0  0.00000000000E+00  0.00000000000E+00  0.12158938503E+04  0.12158938503E+04  0.25500000000E-02 0.  1.
         -2   -1    0    0    0  501 -0.00000000000E+00 -0.00000000000E+00 -0.15007767570E+03  0.15007767572E+03  0.25500000000E-02 0. -1.
    5000001    1    1    2    0    0 -0.29613697845E+03 -0.24931454406E+03  0.41543207213E+03  0.59132364949E+03  0.16500000000E+03 0.  0.
   -5000001    1    1    2    0    0  0.29613697845E+03  0.24931454406E+03  0.65038410247E+03  0.77464787654E+03  0.16500000000E+03 0.  0.
<mgrwt>
<rscale>  0 0.85435010E+03</rscale>
<asrwt>0</asrwt>
<pdfrwt beam="1">  1        2 0.17369912E+00 0.85435010E+03</pdfrwt>
<pdfrwt beam="2">  1       -2 0.21439669E-01 0.85435010E+03</pdfrwt>
<totfact> 0.39583553E+02</totfact>
</mgrwt>
</event>
<event>
 4    1  0.5387486E-005  0.8889152E+03  0.7818608E-02  0.9439545E-01
          2   -1    0    0  501    0  0.00000000000E+00  0.00000000000E+00  0.11921099998E+04  0.11921099998E+04  0.25500000000E-02 0.  1.
         -2   -1    0    0    0  501 -0.00000000000E+00 -0.00000000000E+00 -0.16570831491E+03  0.16570831493E+03  0.25500000000E-02 0. -1.
    5000001    1    1    2    0    0  0.40389597086E+03  0.40870817814E+02  0.62663932754E+03  0.76465954898E+03  0.16500000000E+03 0.  0.
   -5000001    1    1    2    0    0 -0.40389597086E+03 -0.40870817814E+02  0.39976235736E+03  0.59315876575E+03  0.16500000000E+03 0.  0.
<mgrwt>
<rscale>  0 0.88891516E+03</rscale>
<asrwt>0</asrwt>
<pdfrwt beam="1">  1        2 0.17030143E+00 0.88891516E+03</pdfrwt>
<pdfrwt beam="2">  1       -2 0.23672616E-01 0.88891516E+03</pdfrwt>
<totfact> 0.34170897E+02</totfact>
</mgrwt>
</event>
<event>
 4    1  0.5387486E-005  0.5327941E+03  0.7818608E-02  0.1005557E+00
         -2   -1    0    0    0  501 -0.00000000000E+00  0.00000000000E+00  0.10429732834E+03  0.10429732837E+03  0.25500000000E-02 0. -1.
          2   -1    0    0  501    0  0.00000000000E+00 -0.00000000000E+00 -0.68043333643E+03  0.68043333643E+03  0.25500000000E-02 0.  1.
    5000001    1    1    2    0    0 -0.14258135151E+03 -0.13841745698E+03 -0.19200929255E+03  0.32184064786E+03  0.16500000000E+03 0.  0.
   -5000001    1    1    2    0    0  0.14258135151E+03  0.13841745698E+03 -0.38412671554E+03  0.46289001694E+03  0.16500000000E+03 0.  0.
<mgrwt>
<rscale>  0 0.53279407E+03</rscale>
<asrwt>0</asrwt>
<pdfrwt beam="1">  1        2 0.97204760E-01 0.53279407E+03</pdfrwt>
<pdfrwt beam="2">  1       -2 0.14899619E-01 0.53279407E+03</pdfrwt>
<totfact> 0.16500663E+03</totfact>
</mgrwt>
</event>
<event>
 4    1  0.5387486E-005  0.8311892E+03  0.7818608E-02  0.9515938E-01
          2   -1    0    0  501    0  0.00000000000E+00  0.00000000000E+00  0.72029248590E+03  0.72029248590E+03  0.25500000000E-02 0.  1.
         -2   -1    0    0    0  501 -0.00000000000E+00 -0.00000000000E+00 -0.23978991455E+03  0.23978991457E+03  0.25500000000E-02 0. -1.
    5000001    1    1    2    0    0  0.18049348406E+03  0.29296387255E+03  0.50144224131E+02  0.38489631282E+03  0.16500000000E+03 0.  0.
   -5000001    1    1    2    0    0 -0.18049348406E+03 -0.29296387255E+03  0.43035834721E+03  0.57518608765E+03  0.16500000000E+03 0.  0.
<mgrwt>
<rscale>  0 0.83118921E+03</rscale>
<asrwt>0</asrwt>
<pdfrwt beam="1">  1        2 0.10289893E+00 0.83118921E+03</pdfrwt>
<pdfrwt beam="2">  1       -2 0.34255701E-01 0.83118921E+03</pdfrwt>
<totfact> 0.34765072E+02</totfact>
</mgrwt>
</event>
<event>
 4    1  0.5387486E-005  0.5486412E+03  0.7818608E-02  0.1001809E+00
         -2   -1    0    0    0  501 -0.00000000000E+00  0.00000000000E+00  0.11707276444E+03  0.11707276447E+03  0.25500000000E-02 0. -1.
          2   -1    0    0  501    0  0.00000000000E+00 -0.00000000000E+00 -0.64277802428E+03  0.64277802428E+03  0.25500000000E-02 0.  1.
    5000001    1    1    2    0    0  0.18866975291E+03 -0.10983057955E+03 -0.23629269149E+03  0.36154981388E+03  0.16500000000E+03 0.  0.
   -5000001    1    1    2    0    0 -0.18866975291E+03  0.10983057955E+03 -0.28941256834E+03  0.39830097487E+03  0.16500000000E+03 0.  0.
<mgrwt>
<rscale>  0 0.54864123E+03</rscale>
<asrwt>0</asrwt>
<pdfrwt beam="1">  1        2 0.91825431E-01 0.54864123E+03</pdfrwt>
<pdfrwt beam="2">  1       -2 0.16724681E-01 0.54864123E+03</pdfrwt>
<totfact> 0.14534549E+03</totfact>
</mgrwt>
</event>
<event>
 4    1  0.5387486E-005  0.4352289E+03  0.7818608E-02  0.1032221E+00
         -2   -1    0    0    0  501 -0.00000000000E+00  0.00000000000E+00  0.17825021224E+03  0.17825021225E+03  0.25500000000E-02 0. -1.
          2   -1    0    0  501    0  0.00000000000E+00 -0.00000000000E+00 -0.26567172516E+03  0.26567172517E+03  0.25500000000E-02 0.  1.
    5000001    1    1    2    0    0  0.12736256792E+03  0.28460437838E+02 -0.10049884306E+03  0.23314424223E+03  0.16500000000E+03 0.  0.
   -5000001    1    1    2    0    0 -0.12736256792E+03 -0.28460437838E+02  0.13077330139E+02  0.21077769520E+03  0.16500000000E+03 0.  0.
<mgrwt>
<rscale>  0 0.43522887E+03</rscale>
<asrwt>0</asrwt>
<pdfrwt beam="1">  1        2 0.37953103E-01 0.43522887E+03</pdfrwt>
<pdfrwt beam="2">  1       -2 0.25464316E-01 0.43522887E+03</pdfrwt>
<totfact> 0.18770378E+03</totfact>
</mgrwt>
</event>
<event>
 4    1  0.5387486E-005  0.6285607E+03  0.7818608E-02  0.9847861E-01
         -2   -1    0    0    0  501 -0.00000000000E+00  0.00000000000E+00  0.11413267732E+03  0.11413267735E+03  0.25500000000E-02 0. -1.
          2   -1    0    0  501    0  0.00000000000E+00 -0.00000000000E+00 -0.86541510851E+03  0.86541510852E+03  0.25500000000E-02 0.  1.
    5000001    1    1    2    0    0  0.11268860938E+03  0.24257219502E+03 -0.37980854439E+03  0.49297010343E+03  0.16500000000E+03 0.  0.
   -5000001    1    1    2    0    0 -0.11268860938E+03 -0.24257219502E+03 -0.37147388679E+03  0.48657768244E+03  0.16500000000E+03 0.  0.
<mgrwt>
<rscale>  0 0.62856072E+03</rscale>
<asrwt>0</asrwt>
<pdfrwt beam="1">  1        2 0.12363073E+00 0.62856072E+03</pdfrwt>
<pdfrwt beam="2">  1       -2 0.16304669E-01 0.62856072E+03</pdfrwt>
<totfact> 0.10454946E+03</totfact>
</mgrwt>
</event>
<event>
 4    1  0.5387486E-005  0.5131228E+03  0.7818608E-02  0.1010409E+00
         -2   -1    0    0    0  501 -0.00000000000E+00  0.00000000000E+00  0.11013053858E+03  0.11013053861E+03  0.25500000000E-02 0.  1.
          2   -1    0    0  501    0  0.00000000000E+00 -0.00000000000E+00 -0.59768847242E+03  0.59768847243E+03  0.25500000000E-02 0. -1.
    5000001    1    1    2    0    0 -0.18379342355E+03  0.67348573450E+02 -0.22057737627E+03  0.33792785000E+03  0.16500000000E+03 0.  0.
   -5000001    1    1    2    0    0  0.18379342355E+03 -0.67348573450E+02 -0.26698055758E+03  0.36989116103E+03  0.16500000000E+03 0.  0.
<mgrwt>
<rscale>  0 0.51312281E+03</rscale>
<asrwt>0</asrwt>
<pdfrwt beam="1">  1        2 0.85384066E-01 0.51312281E+03</pdfrwt>
<pdfrwt beam="2">  1       -2 0.15732934E-01 0.51312281E+03</pdfrwt>
<totfact> 0.17565140E+03</totfact>
</mgrwt>
</event>
<event>
 4    1  0.5387486E-005  0.9386688E+03  0.7818608E-02  0.9378494E-01
         -2   -1    0    0    0  501 -0.00000000000E+00  0.00000000000E+00  0.98238345704E+02  0.98238345737E+02  0.25500000000E-02 0. -1.
          2   -1    0    0  501    0  0.00000000000E+00 -0.00000000000E+00 -0.22422486083E+04  0.22422486083E+04  0.25500000000E-02 0.  1.
    5000001    1    1    2    0    0  0.42381665798E+03  0.99069626981E+02 -0.12219095871E+04  0.13075639142E+04  0.16500000000E+03 0.  0.
   -5000001    1    1    2    0    0 -0.42381665798E+03 -0.99069626981E+02 -0.92210067555E+03  0.10329230399E+04  0.16500000000E+03 0.  0.
<mgrwt>
<rscale>  0 0.93866883E+03</rscale>
<asrwt>0</asrwt>
<pdfrwt beam="1">  1        2 0.32032120E+00 0.93866883E+03</pdfrwt>
<pdfrwt beam="2">  1       -2 0.14034051E-01 0.93866883E+03</pdfrwt>
<totfact> 0.23826385E+02</totfact>
</mgrwt>
</event>
<event>
 4    1  0.5387486E-005  0.4556773E+03  0.7818608E-02  0.1026042E+00
          2   -1    0    0  501    0  0.00000000000E+00  0.00000000000E+00  0.66604456727E+03  0.66604456727E+03  0.25500000000E-02 0.  1.
         -2   -1    0    0    0  501 -0.00000000000E+00 -0.00000000000E+00 -0.77938408313E+02  0.77938408354E+02  0.25500000000E-02 0. -1.
    5000001    1    1    2    0    0  0.14268701829E+03 -0.62463078714E+02  0.26042459184E+03  0.34540872807E+03  0.16500000000E+03 0.  0.
   -5000001    1    1    2    0    0 -0.14268701829E+03  0.62463078714E+02  0.32768156711E+03  0.39857424756E+03  0.16500000000E+03 0.  0.
<mgrwt>
<rscale>  0 0.45567731E+03</rscale>
<asrwt>0</asrwt>
<pdfrwt beam="1">  1        2 0.95149226E-01 0.45567731E+03</pdfrwt>
<pdfrwt beam="2">  1       -2 0.11134058E-01 0.45567731E+03</pdfrwt>
<totfact> 0.27366202E+03</totfact>
</mgrwt>
</event>
<event>
 4    1  0.5387486E-005  0.5772143E+03  0.7818608E-02  0.9953840E-01
          2   -1    0    0  501    0  0.00000000000E+00  0.00000000000E+00  0.15701270020E+04  0.15701270020E+04  0.25500000000E-02 0.  1.
         -2   -1    0    0    0  501 -0.00000000000E+00 -0.00000000000E+00 -0.53049263906E+02  0.53049263968E+02  0.25500000000E-02 0. -1.
    5000001    1    1    2    0    0 -0.62121963394E+02  0.13408892690E+03  0.12788135833E+04  0.12978552151E+04  0.16500000000E+03 0.  0.
   -5000001    1    1    2    0    0  0.62121963394E+02 -0.13408892690E+03  0.23826415482E+03  0.32532105085E+03  0.16500000000E+03 0.  0.
<mgrwt>
<rscale>  0 0.57721428E+03</rscale>
<asrwt>0</asrwt>
<pdfrwt beam="1">  1        2 0.22430383E+00 0.57721428E+03</pdfrwt>
<pdfrwt beam="2">  1       -2 0.75784672E-02 0.57721428E+03</pdfrwt>
<totfact> 0.14631181E+03</totfact>
</mgrwt>
</event>
<event>
 4    1  0.5387486E-005  0.5503707E+03  0.7818608E-02  0.1001408E+00
         -2   -1    0    0    0  501 -0.00000000000E+00  0.00000000000E+00  0.18239895261E+03  0.18239895263E+03  0.25500000000E-02 0. -1.
          2   -1    0    0  501    0  0.00000000000E+00 -0.00000000000E+00 -0.41517215844E+03  0.41517215845E+03  0.25500000000E-02 0.  1.
    5000001    1    1    2    0    0  0.16402006033E+02 -0.18793184828E+03 -0.23977495068E+03  0.34684929346E+03  0.16500000000E+03 0.  0.
   -5000001    1    1    2    0    0 -0.16402006033E+02  0.18793184828E+03  0.70017448534E+01  0.25072181762E+03  0.16500000000E+03 0.  0.
<mgrwt>
<rscale>  0 0.55037066E+03</rscale>
<asrwt>0</asrwt>
<pdfrwt beam="1">  1        2 0.59310308E-01 0.55037066E+03</pdfrwt>
<pdfrwt beam="2">  1       -2 0.26056993E-01 0.55037066E+03</pdfrwt>
<totfact> 0.11034473E+03</totfact>
</mgrwt>
</event>
<event>
 4    1  0.5387486E-005  0.3825612E+03  0.7818608E-02  0.1049991E+00
          2   -1    0    0  501    0  0.00000000000E+00  0.00000000000E+00  0.13096040204E+03  0.13096040206E+03  0.25500000000E-02 0. -1.
         -2   -1    0    0    0  501 -0.00000000000E+00 -0.00000000000E+00 -0.27938422040E+03  0.27938422041E+03  0.25500000000E-02 0.  1.
    5000001    1    1    2    0    0  0.48690615384E+02  0.16819938343E+02 -0.16207279843E+03  0.23695205917E+03  0.16500000000E+03 0.  0.
   -5000001    1    1    2    0    0 -0.48690615384E+02 -0.16819938343E+02  0.13648980068E+02  0.17339256330E+03  0.16500000000E+03 0.  0.
<mgrwt>
<rscale>  0 0.38256121E+03</rscale>
<asrwt>0</asrwt>
<pdfrwt beam="1">  1        2 0.18708629E-01 0.38256121E+03</pdfrwt>
<pdfrwt beam="2">  1       -2 0.39912031E-01 0.38256121E+03</pdfrwt>
<totfact> 0.18083779E+03</totfact>
</mgrwt>
</event>
<event>
 4    1  0.5387486E-005  0.3601572E+03  0.7818608E-02  0.1058522E+00
          2   -1    0    0  501    0  0.00000000000E+00  0.00000000000E+00  0.12438272573E+04  0.12438272573E+04  0.25500000000E-02 0.  1.
         -2   -1    0    0    0  501 -0.00000000000E+00 -0.00000000000E+00 -0.26071382714E+02  0.26071382839E+02  0.25500000000E-02 0. -1.
    5000001    1    1    2    0    0 -0.39052397707E+02  0.59784793125E+02  0.64483323805E+03  0.66942827558E+03  0.16500000000E+03 0.  0.
   -5000001    1    1    2    0    0  0.39052397707E+02 -0.59784793125E+02  0.57292263650E+03  0.60047036452E+03  0.16500000000E+03 0.  0.
<mgrwt>
<rscale>  0 0.36015717E+03</rscale>
<asrwt>0</asrwt>
<pdfrwt beam="1">  1        2 0.17768966E+00 0.36015717E+03</pdfrwt>
<pdfrwt beam="2">  1       -2 0.37244823E-02 0.36015717E+03</pdfrwt>
<totfact> 0.65268670E+03</totfact>
</mgrwt>
</event>
<event>
 4    1  0.5387486E-005  0.3796031E+03  0.7818608E-02  0.1051081E+00
         -2   -1    0    0    0  501 -0.00000000000E+00  0.00000000000E+00  0.78383407597E+02  0.78383407639E+02  0.25500000000E-02 0. -1.
          2   -1    0    0  501    0  0.00000000000E+00 -0.00000000000E+00 -0.45959498023E+03  0.45959498023E+03  0.25500000000E-02 0.  1.
    5000001    1    1    2    0    0 -0.70671066694E+02 -0.12531909318E+02 -0.10500597773E+03  0.20833315573E+03  0.16500000000E+03 0.  0.
   -5000001    1    1    2    0    0  0.70671066694E+02  0.12531909318E+02 -0.27620559490E+03  0.32964523214E+03  0.16500000000E+03 0.  0.
<mgrwt>
<rscale>  0 0.37960306E+03</rscale>
<asrwt>0</asrwt>
<pdfrwt beam="1">  1        2 0.65656424E-01 0.37960306E+03</pdfrwt>
<pdfrwt beam="2">  1       -2 0.11197630E-01 0.37960306E+03</pdfrwt>
<totfact> 0.41359093E+03</totfact>
</mgrwt>
</event>
<event>
 4    1  0.5387486E-005  0.8030906E+03  0.7818608E-02  0.9555554E-01
         -2   -1    0    0    0  501 -0.00000000000E+00  0.00000000000E+00  0.69697833230E+02  0.69697833276E+02  0.25500000000E-02 0. -1.
          2   -1    0    0  501    0  0.00000000000E+00 -0.00000000000E+00 -0.23133948731E+04  0.23133948731E+04  0.25500000000E-02 0.  1.
    5000001    1    1    2    0    0 -0.10932860210E+03  0.34205720098E+03 -0.91081347120E+03  0.99285550373E+03  0.16500000000E+03 0.  0.
   -5000001    1    1    2    0    0  0.10932860210E+03 -0.34205720098E+03 -0.13328835687E+04  0.13902372027E+04  0.16500000000E+03 0.  0.
<mgrwt>
<rscale>  0 0.80309056E+03</rscale>
<asrwt>0</asrwt>
<pdfrwt beam="1">  1        2 0.33048493E+00 0.80309056E+03</pdfrwt>
<pdfrwt beam="2">  1       -2 0.99568348E-02 0.80309056E+03</pdfrwt>
<totfact> 0.39067633E+02</totfact>
</mgrwt>
</event>
<event>
 4    1  0.5387486E-005  0.4119191E+03  0.7818608E-02  0.1039729E+00
          2   -1    0    0  501    0  0.00000000000E+00  0.00000000000E+00  0.58492667318E+03  0.58492667319E+03  0.25500000000E-02 0.  1.
         -2   -1    0    0    0  501 -0.00000000000E+00 -0.00000000000E+00 -0.72520772395E+02  0.72520772440E+02  0.25500000000E-02 0. -1.
    5000001    1    1    2    0    0 -0.84334291108E+02  0.34064036173E+00  0.39968814157E+03  0.44055419553E+03  0.16500000000E+03 0.  0.
   -5000001    1    1    2    0    0  0.84334291108E+02 -0.34064036173E+00  0.11271775922E+03  0.21689325009E+03  0.16500000000E+03 0.  0.
<mgrwt>
<rscale>  0 0.41191909E+03</rscale>
<asrwt>0</asrwt>
<pdfrwt beam="1">  1        2 0.83560953E-01 0.41191909E+03</pdfrwt>
<pdfrwt beam="2">  1       -2 0.10360110E-01 0.41191909E+03</pdfrwt>
<totfact> 0.35769896E+03</totfact>
</mgrwt>
</event>
<event>
 4    1  0.5387486E-005  0.4263242E+03  0.7818608E-02  0.1035027E+00
         -2   -1    0    0    0  501 -0.00000000000E+00  0.00000000000E+00  0.11542431208E+03  0.11542431211E+03  0.25500000000E-02 0. -1.
          2   -1    0    0  501    0  0.00000000000E+00 -0.00000000000E+00 -0.39366121217E+03  0.39366121218E+03  0.25500000000E-02 0.  1.
    5000001    1    1    2    0    0 -0.12504320388E+03 -0.50192843672E+02 -0.13002814708E+03  0.24957452479E+03  0.16500000000E+03 0.  0.
   -5000001    1    1    2    0    0  0.12504320388E+03  0.50192843672E+02 -0.14820875300E+03  0.25951099950E+03  0.16500000000E+03 0.  0.
<mgrwt>
<rscale>  0 0.42632417E+03</rscale>
<asrwt>0</asrwt>
<pdfrwt beam="1">  1        2 0.56237315E-01 0.42632417E+03</pdfrwt>
<pdfrwt beam="2">  1       -2 0.16489188E-01 0.42632417E+03</pdfrwt>
<totfact> 0.25942188E+03</totfact>
</mgrwt>
</event>
<event>
 4    1  0.5387486E-005  0.7198863E+03  0.7818608E-02  0.9683816E-01
         -2   -1    0    0    0  501 -0.00000000000E+00  0.00000000000E+00  0.43971835266E+02  0.43971835340E+02  0.25500000000E-02 0. -1.
          2   -1    0    0  501    0  0.00000000000E+00 -0.00000000000E+00 -0.29464100920E+04  0.29464100920E+04  0.25500000000E-02 0.  1.
    5000001    1    1    2    0    0  0.15060677013E+03  0.21568951687E+03 -0.22073056088E+04  0.22290418160E+04  0.16500000000E+03 0.  0.
   -5000001    1    1    2    0    0 -0.15060677013E+03 -0.21568951687E+03 -0.69513264798E+03  0.76134011137E+03  0.16500000000E+03 0.  0.
<mgrwt>
<rscale>  0 0.71988627E+03</rscale>
<asrwt>0</asrwt>
<pdfrwt beam="1">  1        2 0.42091560E+00 0.71988627E+03</pdfrwt>
<pdfrwt beam="2">  1       -2 0.62816926E-02 0.71988627E+03</pdfrwt>
<totfact> 0.38290588E+02</totfact>
</mgrwt>
</event>
<event>
 4    1  0.5387486E-005  0.6389135E+03  0.7818608E-02  0.9827807E-01
          2   -1    0    0  501    0  0.00000000000E+00  0.00000000000E+00  0.33868020465E+03  0.33868020466E+03  0.25500000000E-02 0.  1.
         -2   -1    0    0    0  501 -0.00000000000E+00 -0.00000000000E+00 -0.30132446077E+03  0.30132446078E+03  0.25500000000E-02 0. -1.
    5000001    1    1    2    0    0  0.22376721005E+03 -0.10298827830E+03 -0.10047601614E+03  0.31304756760E+03  0.16500000000E+03 0.  0.
   -5000001    1    1    2    0    0 -0.22376721005E+03  0.10298827830E+03  0.13783176002E+03  0.32695709784E+03  0.16500000000E+03 0.  0.
<mgrwt>
<rscale>  0 0.63891355E+03</rscale>
<asrwt>0</asrwt>
<pdfrwt beam="1">  1        2 0.48382886E-01 0.63891355E+03</pdfrwt>
<pdfrwt beam="2">  1       -2 0.43046352E-01 0.63891355E+03</pdfrwt>
<totfact> 0.53683665E+02</totfact>
</mgrwt>
</event>
<event>
 4    1  0.5387486E-005  0.4873921E+03  0.7818608E-02  0.1017123E+00
          2   -1    0    0  501    0  0.00000000000E+00  0.00000000000E+00  0.15077069795E+04  0.15077069795E+04  0.25500000000E-02 0. -1.
         -2   -1    0    0    0  501 -0.00000000000E+00 -0.00000000000E+00 -0.39389460265E+02  0.39389460347E+02  0.25500000000E-02 0.  1.
    5000001    1    1    2    0    0  0.10100820480E+03  0.13462582857E+03  0.53756134142E+03  0.58696164010E+03  0.16500000000E+03 0.  0.
   -5000001    1    1    2    0    0 -0.10100820480E+03 -0.13462582857E+03  0.93075617779E+03  0.96013479973E+03  0.16500000000E+03 0.  0.
<mgrwt>
<rscale>  0 0.48739210E+03</rscale>
<asrwt>0</asrwt>
<pdfrwt beam="1">  1        2 0.21538664E+00 0.48739210E+03</pdfrwt>
<pdfrwt beam="2">  1       -2 0.56270676E-02 0.48739210E+03</pdfrwt>
<totfact> 0.25204766E+03</totfact>
</mgrwt>
</event>
<event>
 4    1  0.5387486E-005  0.4443322E+03  0.7818608E-02  0.1029426E+00
         -2   -1    0    0    0  501 -0.00000000000E+00  0.00000000000E+00  0.52382658700E+03  0.52382658701E+03  0.25500000000E-02 0. -1.
          2   -1    0    0  501    0  0.00000000000E+00 -0.00000000000E+00 -0.94225416530E+02  0.94225416565E+02  0.25500000000E-02 0.  1.
    5000001    1    1    2    0    0  0.23126127889E+02  0.14650340811E+03  0.19865624364E+03  0.29780424698E+03  0.16500000000E+03 0.  0.
   -5000001    1    1    2    0    0 -0.23126127889E+02 -0.14650340811E+03  0.23094492683E+03  0.32024775660E+03  0.16500000000E+03 0.  0.
<mgrwt>
<rscale>  0 0.44433221E+03</rscale>
<asrwt>0</asrwt>
<pdfrwt beam="1">  1        2 0.13460773E-01 0.44433221E+03</pdfrwt>
<pdfrwt beam="2">  1       -2 0.74832373E-01 0.44433221E+03</pdfrwt>
<totfact> 0.73829518E+02</totfact>
</mgrwt>
</event>
<event>
 4    1  0.5387486E-005  0.7760986E+03  0.7818608E-02  0.9595273E-01
          2   -1    0    0  501    0  0.00000000000E+00  0.00000000000E+00  0.26621958527E+04  0.26621958527E+04  0.25500000000E-02 0.  1.
         -2   -1    0    0    0  501 -0.00000000000E+00 -0.00000000000E+00 -0.56563185200E+02  0.56563185258E+02  0.25500000000E-02 0. -1.
    5000001    1    1    2    0    0  0.24694427227E+03 -0.13301623960E+03  0.56232079878E+03  0.64969567826E+03  0.16500000000E+03 0.  0.
   -5000001    1    1    2    0    0 -0.24694427227E+03  0.13301623960E+03  0.20433118687E+04  0.20690633597E+04  0.16500000000E+03 0.  0.
<mgrwt>
<rscale>  0 0.77609865E+03</rscale>
<asrwt>0</asrwt>
<pdfrwt beam="1">  1        2 0.38031364E+00 0.77609865E+03</pdfrwt>
<pdfrwt beam="2">  1       -2 0.80804562E-02 0.77609865E+03</pdfrwt>
<totfact> 0.36207618E+02</totfact>
</mgrwt>
</event>
<event>
 4    1  0.5387486E-005  0.4296270E+03  0.7818608E-02  0.1033978E+00
          2   -1    0    0  501    0  0.00000000000E+00  0.00000000000E+00  0.34789041033E+03  0.34789041034E+03  0.25500000000E-02 0.  1.
         -2   -1    0    0    0  501 -0.00000000000E+00 -0.00000000000E+00 -0.13264186249E+03  0.13264186251E+03  0.25500000000E-02 0. -1.
    5000001    1    1    2    0    0 -0.37004925680E+02  0.12659713549E+03  0.63965535895E+02  0.22070973930E+03  0.16500000000E+03 0.  0.
   -5000001    1    1    2    0    0  0.37004925680E+02 -0.12659713549E+03  0.15128301194E+03  0.25982253355E+03  0.16500000000E+03 0.  0.
<mgrwt>
<rscale>  0 0.42962696E+03</rscale>
<asrwt>0</asrwt>
<pdfrwt beam="1">  1        2 0.49698629E-01 0.42962696E+03</pdfrwt>
<pdfrwt beam="2">  1       -2 0.18948838E-01 0.42962696E+03</pdfrwt>
<totfact> 0.23449267E+03</totfact>
</mgrwt>
</event>
<event>
 4    1  0.5387486E-005  0.5207617E+03  0.7818608E-02  0.1008498E+00
         -2   -1    0    0    0  501 -0.00000000000E+00  0.00000000000E+00  0.51165332120E+02  0.51165332184E+02  0.25500000000E-02 0. -1.
          2   -1    0    0  501    0  0.00000000000E+00 -0.00000000000E+00 -0.13250803288E+04  0.13250803288E+04  0.25500000000E-02 0.  1.
    5000001    1    1    2    0    0 -0.15310780438E+03 -0.11968126846E+03 -0.49692713587E+03  0.55850441730E+03  0.16500000000E+03 0.  0.
   -5000001    1    1    2    0    0  0.15310780438E+03  0.11968126846E+03 -0.77698786084E+03  0.81774124371E+03  0.16500000000E+03 0.  0.
<mgrwt>
<rscale>  0 0.52076165E+03</rscale>
<asrwt>0</asrwt>
<pdfrwt beam="1">  1        2 0.18929717E+00 0.52076165E+03</pdfrwt>
<pdfrwt beam="2">  1       -2 0.73093340E-02 0.52076165E+03</pdfrwt>
<totfact> 0.20866580E+03</totfact>
</mgrwt>
</event>
<event>
 4    1  0.5387486E-005  0.4139810E+03  0.7818608E-02  0.1039043E+00
         -2   -1    0    0    0  501 -0.00000000000E+00  0.00000000000E+00  0.13225420958E+03  0.13225420961E+03  0.25500000000E-02 0. -1.
          2   -1    0    0  501    0  0.00000000000E+00 -0.00000000000E+00 -0.32396000593E+03  0.32396000594E+03  0.25500000000E-02 0.  1.
    5000001    1    1    2    0    0  0.81926611009E+02  0.62503467568E+02 -0.17378835657E+03  0.26085637031E+03  0.16500000000E+03 0.  0.
   -5000001    1    1    2    0    0 -0.81926611009E+02 -0.62503467568E+02 -0.17917439776E+02  0.19535784524E+03  0.16500000000E+03 0.  0.
<mgrwt>
<rscale>  0 0.41398104E+03</rscale>
<asrwt>0</asrwt>
<pdfrwt beam="1">  1        2 0.46280001E-01 0.41398104E+03</pdfrwt>
<pdfrwt beam="2">  1       -2 0.18893459E-01 0.41398104E+03</pdfrwt>
<totfact> 0.25462724E+03</totfact>
</mgrwt>
</event>
<event>
 4    1  0.5387486E-005  0.6908119E+03  0.7818608E-02  0.9733075E-01
         -2   -1    0    0    0  501 -0.00000000000E+00  0.00000000000E+00  0.34240083024E+03  0.34240083025E+03  0.25500000000E-02 0. -1.
          2   -1    0    0  501    0  0.00000000000E+00 -0.00000000000E+00 -0.34843742397E+03  0.34843742398E+03  0.25500000000E-02 0.  1.
    5000001    1    1    2    0    0  0.17398001162E+03 -0.24754232915E+03 -0.26127924176E+02  0.34562106068E+03  0.16500000000E+03 0.  0.
   -5000001    1    1    2    0    0 -0.17398001162E+03  0.24754232915E+03  0.20091330447E+02  0.34521719355E+03  0.16500000000E+03 0.  0.
<mgrwt>
<rscale>  0 0.69081188E+03</rscale>
<asrwt>0</asrwt>
<pdfrwt beam="1">  1        2 0.49776774E-01 0.69081188E+03</pdfrwt>
<pdfrwt beam="2">  1       -2 0.48914405E-01 0.69081188E+03</pdfrwt>
<totfact> 0.40263174E+02</totfact>
</mgrwt>
</event>
<event>
 4    1  0.5387486E-005  0.5035941E+03  0.7818608E-02  0.1012845E+00
          2   -1    0    0  501    0  0.00000000000E+00  0.00000000000E+00  0.91886005705E+02  0.91886005740E+02  0.25500000000E-02 0.  1.
         -2   -1    0    0    0  501 -0.00000000000E+00 -0.00000000000E+00 -0.69000448505E+03  0.69000448505E+03  0.25500000000E-02 0. -1.
    5000001    1    1    2    0    0 -0.52038472287E+02 -0.12544911845E+03 -0.92314132633E+02  0.23279257506E+03  0.16500000000E+03 0.  0.
   -5000001    1    1    2    0    0  0.52038472287E+02  0.12544911845E+03 -0.50580434671E+03  0.54909791574E+03  0.16500000000E+03 0.  0.
<mgrwt>
<rscale>  0 0.50359411E+03</rscale>
<asrwt>0</asrwt>
<pdfrwt beam="1">  1        2 0.13126573E-01 0.50359411E+03</pdfrwt>
<pdfrwt beam="2">  1       -2 0.98572066E-01 0.50359411E+03</pdfrwt>
<totfact> 0.40784707E+02</totfact>
</mgrwt>
</event>
<event>
 4    1  0.5387486E-005  0.4643379E+03  0.7818608E-02  0.1023531E+00
         -2   -1    0    0    0  501 -0.00000000000E+00  0.00000000000E+00  0.71321160036E+02  0.71321160081E+02  0.25500000000E-02 0. -1.
          2   -1    0    0  501    0  0.00000000000E+00 -0.00000000000E+00 -0.75577025007E+03  0.75577025007E+03  0.25500000000E-02 0.  1.
    5000001    1    1    2    0    0 -0.11772281564E+03  0.97784725232E+02 -0.24057125426E+03  0.32942380331E+03  0.16500000000E+03 0.  0.
   -5000001    1    1    2    0    0  0.11772281564E+03 -0.97784725232E+02 -0.44387783577E+03  0.49766760684E+03  0.16500000000E+03 0.  0.
<mgrwt>
<rscale>  0 0.46433786E+03</rscale>
<asrwt>0</asrwt>
<pdfrwt beam="1">  1        2 0.10796717E+00 0.46433786E+03</pdfrwt>
<pdfrwt beam="2">  1       -2 0.10188738E-01 0.46433786E+03</pdfrwt>
<totfact> 0.27093406E+03</totfact>
</mgrwt>
</event>
<event>
 4    1  0.5387486E-005  0.6673896E+03  0.7818608E-02  0.9774685E-01
         -2   -1    0    0    0  501 -0.00000000000E+00  0.00000000000E+00  0.84418040060E+02  0.84418040099E+02  0.25500000000E-02 0.  1.
          2   -1    0    0  501    0  0.00000000000E+00 -0.00000000000E+00 -0.13190573133E+04  0.13190573133E+04  0.25500000000E-02 0. -1.
    5000001    1    1    2    0    0 -0.59449067689E+01 -0.18700128834E+03 -0.10834046720E+04  0.11117533481E+04  0.16500000000E+03 0.  0.
   -5000001    1    1    2    0    0  0.59449067689E+01  0.18700128834E+03 -0.15123460127E+03  0.29172200530E+03  0.16500000000E+03 0.  0.
<mgrwt>
<rscale>  0 0.66738964E+03</rscale>
<asrwt>0</asrwt>
<pdfrwt beam="1">  1        2 0.18843675E+00 0.66738964E+03</pdfrwt>
<pdfrwt beam="2">  1       -2 0.12059721E-01 0.66738964E+03</pdfrwt>
<totfact> 0.93346933E+02</totfact>
</mgrwt>
</event>
<event>
 4    1  0.5387486E-005  0.4657401E+03  0.7818608E-02  0.1023129E+00
          2   -1    0    0  501    0  0.00000000000E+00  0.00000000000E+00  0.13444272947E+04  0.13444272947E+04  0.25500000000E-02 0.  1.
         -2   -1    0    0    0  501 -0.00000000000E+00 -0.00000000000E+00 -0.40335737301E+02  0.40335737381E+02  0.25500000000E-02 0. -1.
    5000001    1    1    2    0    0 -0.57539192300E+01 -0.39480594746E+02  0.17807871555E+03  0.24602612439E+03  0.16500000000E+03 0.  0.
   -5000001    1    1    2    0    0  0.57539192300E+01  0.39480594746E+02  0.11260128418E+04  0.11387369077E+04  0.16500000000E+03 0.  0.
<mgrwt>
<rscale>  0 0.46574013E+03</rscale>
<asrwt>0</asrwt>
<pdfrwt beam="1">  1        2 0.19206101E+00 0.46574013E+03</pdfrwt>
<pdfrwt beam="2">  1       -2 0.57622491E-02 0.46574013E+03</pdfrwt>
<totfact> 0.29589023E+03</totfact>
</mgrwt>
</event>
<event>
 4    1  0.5387486E-005  0.3542064E+03  0.7818608E-02  0.1060902E+00
         -2   -1    0    0    0  501 -0.00000000000E+00  0.00000000000E+00  0.18811754582E+03  0.18811754584E+03  0.25500000000E-02 0.  1.
          2   -1    0    0  501    0  0.00000000000E+00 -0.00000000000E+00 -0.16673372687E+03  0.16673372689E+03  0.25500000000E-02 0. -1.
    5000001    1    1    2    0    0 -0.55336111622E+01 -0.57221187558E+02 -0.18268408802E+02  0.17568044831E+03  0.16500000000E+03 0.  0.
   -5000001    1    1    2    0    0  0.55336111622E+01  0.57221187558E+02  0.39652227746E+02  0.17917082442E+03  0.16500000000E+03 0.  0.
<mgrwt>
<rscale>  0 0.35420638E+03</rscale>
<asrwt>0</asrwt>
<pdfrwt beam="1">  1        2 0.23819104E-01 0.35420638E+03</pdfrwt>
<pdfrwt beam="2">  1       -2 0.26873935E-01 0.35420638E+03</pdfrwt>
<totfact> 0.28517072E+03</totfact>
</mgrwt>
</event>
<event>
 4    1  0.5387486E-005  0.1357796E+04  0.7818608E-02  0.8984947E-01
         -2   -1    0    0    0  501 -0.00000000000E+00  0.00000000000E+00  0.27156525310E+03  0.27156525312E+03  0.25500000000E-02 0. -1.
          2   -1    0    0  501    0  0.00000000000E+00 -0.00000000000E+00 -0.16972079590E+04  0.16972079590E+04  0.25500000000E-02 0.  1.
    5000001    1    1    2    0    0  0.65516483200E+03 -0.15803216529E+02 -0.80664516528E+03  0.10523270031E+04  0.16500000000E+03 0.  0.
   -5000001    1    1    2    0    0 -0.65516483200E+03  0.15803216529E+02 -0.61899754057E+03  0.91644620899E+03  0.16500000000E+03 0.  0.
<mgrwt>
<rscale>  0 0.13577963E+04</rscale>
<asrwt>0</asrwt>
<pdfrwt beam="1">  1        2 0.24245827E+00 0.13577963E+04</pdfrwt>
<pdfrwt beam="2">  1       -2 0.38795037E-01 0.13577963E+04</pdfrwt>
<totfact> 0.70568965E+01</totfact>
</mgrwt>
</event>
<event>
 4    1  0.5387486E-005  0.4787906E+03  0.7818608E-02  0.1019468E+00
          2   -1    0    0  501    0  0.00000000000E+00  0.00000000000E+00  0.82768859684E+03  0.82768859685E+03  0.25500000000E-02 0.  1.
         -2   -1    0    0    0  501 -0.00000000000E+00 -0.00000000000E+00 -0.69241152348E+02  0.69241152395E+02  0.25500000000E-02 0. -1.
    5000001    1    1    2    0    0 -0.10657574227E+01 -0.13406146368E+03  0.17306022296E+03  0.27413218099E+03  0.16500000000E+03 0.  0.
   -5000001    1    1    2    0    0  0.10657574227E+01  0.13406146368E+03  0.58538722153E+03  0.62279756825E+03  0.16500000000E+03 0.  0.
<mgrwt>
<rscale>  0 0.47879061E+03</rscale>
<asrwt>0</asrwt>
<pdfrwt beam="1">  1        2 0.11824122E+00 0.47879061E+03</pdfrwt>
<pdfrwt beam="2">  1       -2 0.98915935E-02 0.47879061E+03</pdfrwt>
<totfact> 0.25343689E+03</totfact>
</mgrwt>
</event>
<event>
 4    1  0.5387486E-005  0.5058695E+03  0.7818608E-02  0.1012258E+00
          2   -1    0    0  501    0  0.00000000000E+00  0.00000000000E+00  0.79345478382E+03  0.79345478382E+03  0.25500000000E-02 0.  1.
         -2   -1    0    0    0  501 -0.00000000000E+00 -0.00000000000E+00 -0.80629654748E+02  0.80629654788E+02  0.25500000000E-02 0. -1.
    5000001    1    1    2    0    0 -0.45631646711E+02  0.98674705408E+02  0.62924362698E+03  0.65953884401E+03  0.16500000000E+03 0.  0.
   -5000001    1    1    2    0    0  0.45631646711E+02 -0.98674705408E+02  0.83581502091E+02  0.21454559460E+03  0.16500000000E+03 0.  0.
<mgrwt>
<rscale>  0 0.50586949E+03</rscale>
<asrwt>0</asrwt>
<pdfrwt beam="1">  1        2 0.11335069E+00 0.50586949E+03</pdfrwt>
<pdfrwt beam="2">  1       -2 0.11518521E-01 0.50586949E+03</pdfrwt>
<totfact> 0.20894393E+03</totfact>
</mgrwt>
</event>
<event>
 4    1  0.5387486E-005  0.6303334E+03  0.7818608E-02  0.9844398E-01
          2   -1    0    0  501    0  0.00000000000E+00  0.00000000000E+00  0.23977513732E+04  0.23977513732E+04  0.25500000000E-02 0.  1.
         -2   -1    0    0    0  501 -0.00000000000E+00 -0.00000000000E+00 -0.41426340310E+02  0.41426340389E+02  0.25500000000E-02 0. -1.
    5000001    1    1    2    0    0 -0.26029593863E+03  0.62577100007E+02  0.10974361855E+04  0.11416045946E+04  0.16500000000E+03 0.  0.
   -5000001    1    1    2    0    0  0.26029593863E+03 -0.62577100007E+02  0.12588888474E+04  0.12975731190E+04  0.16500000000E+03 0.  0.
<mgrwt>
<rscale>  0 0.63033345E+03</rscale>
<asrwt>0</asrwt>
<pdfrwt beam="1">  1        2 0.34253586E+00 0.63033345E+03</pdfrwt>
<pdfrwt beam="2">  1       -2 0.59180495E-02 0.63033345E+03</pdfrwt>
<totfact> 0.82193683E+02</totfact>
</mgrwt>
</event>
<event>
 4    1  0.5387486E-005  0.3847859E+03  0.7818608E-02  0.1049179E+00
          2   -1    0    0  501    0  0.00000000000E+00  0.00000000000E+00  0.46035867648E+03  0.46035867649E+03  0.25500000000E-02 0.  1.
         -2   -1    0    0    0  501 -0.00000000000E+00 -0.00000000000E+00 -0.80404778972E+02  0.80404779013E+02  0.25500000000E-02 0. -1.
    5000001    1    1    2    0    0  0.32868574816E+02  0.83801041541E+01  0.32060358653E+03  0.36216326298E+03  0.16500000000E+03 0.  0.
   -5000001    1    1    2    0    0 -0.32868574816E+02 -0.83801041541E+01  0.59350310983E+02  0.17860019252E+03  0.16500000000E+03 0.  0.
<mgrwt>
<rscale>  0 0.38478585E+03</rscale>
<asrwt>0</asrwt>
<pdfrwt beam="1">  1        2 0.65765528E-01 0.38478585E+03</pdfrwt>
<pdfrwt beam="2">  1       -2 0.11486396E-01 0.38478585E+03</pdfrwt>
<totfact> 0.39625900E+03</totfact>
</mgrwt>
</event>
<event>
 4    1  0.5387486E-005  0.4919727E+03  0.7818608E-02  0.1015896E+00
          2   -1    0    0  501    0  0.00000000000E+00  0.00000000000E+00  0.73183725942E+03  0.73183725942E+03  0.25500000000E-02 0.  1.
         -2   -1    0    0    0  501 -0.00000000000E+00 -0.00000000000E+00 -0.82681340808E+02  0.82681340847E+02  0.25500000000E-02 0. -1.
    5000001    1    1    2    0    0  0.15534813924E+03  0.75510367873E+02  0.42181537413E+03  0.48475568060E+03  0.16500000000E+03 0.  0.
   -5000001    1    1    2    0    0 -0.15534813924E+03 -0.75510367873E+02  0.22734054448E+03  0.32976291966E+03  0.16500000000E+03 0.  0.
<mgrwt>
<rscale>  0 0.49197271E+03</rscale>
<asrwt>0</asrwt>
<pdfrwt beam="1">  1        2 0.10454818E+00 0.49197271E+03</pdfrwt>
<pdfrwt beam="2">  1       -2 0.11811621E-01 0.49197271E+03</pdfrwt>
<totfact> 0.22181273E+03</totfact>
</mgrwt>
</event>
<event>
 4    1  0.5387486E-005  0.6228013E+03  0.7818608E-02  0.9859198E-01
         -2   -1    0    0    0  501 -0.00000000000E+00  0.00000000000E+00  0.62779851309E+03  0.62779851310E+03  0.25500000000E-02 0. -1.
          2   -1    0    0  501    0  0.00000000000E+00 -0.00000000000E+00 -0.15446098421E+03  0.15446098423E+03  0.25500000000E-02 0.  1.
    5000001    1    1    2    0    0 -0.19303004744E+03 -0.15839493509E+03  0.12865116523E+03  0.32576936165E+03  0.16500000000E+03 0.  0.
   -5000001    1    1    2    0    0  0.19303004744E+03  0.15839493509E+03  0.34468636366E+03  0.45649013567E+03  0.16500000000E+03 0.  0.
<mgrwt>
<rscale>  0 0.62280134E+03</rscale>
<asrwt>0</asrwt>
<pdfrwt beam="1">  1        2 0.22065855E-01 0.62280134E+03</pdfrwt>
<pdfrwt beam="2">  1       -2 0.89685501E-01 0.62280134E+03</pdfrwt>
<totfact> 0.27271607E+02</totfact>
</mgrwt>
</event>
<event>
 4    1  0.5387486E-005  0.3706115E+03  0.7818608E-02  0.1054459E+00
         -2   -1    0    0    0  501 -0.00000000000E+00  0.00000000000E+00  0.92095467275E+02  0.92095467310E+02  0.25500000000E-02 0. -1.
          2   -1    0    0  501    0  0.00000000000E+00 -0.00000000000E+00 -0.37285452624E+03  0.37285452625E+03  0.25500000000E-02 0.  1.
    5000001    1    1    2    0    0  0.56072564334E+02 -0.42874401635E+02 -0.19829110564E+03  0.26744477816E+03  0.16500000000E+03 0.  0.
   -5000001    1    1    2    0    0 -0.56072564334E+02  0.42874401635E+02 -0.82467953326E+02  0.19750521541E+03  0.16500000000E+03 0.  0.
<mgrwt>
<rscale>  0 0.37061145E+03</rscale>
<asrwt>0</asrwt>
<pdfrwt beam="1">  1        2 0.53264932E-01 0.37061145E+03</pdfrwt>
<pdfrwt beam="2">  1       -2 0.13156496E-01 0.37061145E+03</pdfrwt>
<totfact> 0.39989408E+03</totfact>
</mgrwt>
</event>
<event>
 4    1  0.5387486E-005  0.5044980E+03  0.7818608E-02  0.1012612E+00
         -2   -1    0    0    0  501 -0.00000000000E+00  0.00000000000E+00  0.75320790765E+02  0.75320790808E+02  0.25500000000E-02 0. -1.
          2   -1    0    0  501    0  0.00000000000E+00 -0.00000000000E+00 -0.84478066376E+03  0.84478066376E+03  0.25500000000E-02 0.  1.
    5000001    1    1    2    0    0 -0.96511245814E+02  0.59637987197E+02 -0.66451143284E+03  0.69402561514E+03  0.16500000000E+03 0.  0.
   -5000001    1    1    2    0    0  0.96511245814E+02 -0.59637987197E+02 -0.10494844015E+03  0.22607583943E+03  0.16500000000E+03 0.  0.
<mgrwt>
<rscale>  0 0.50449796E+03</rscale>
<asrwt>0</asrwt>
<pdfrwt beam="1">  1        2 0.12068295E+00 0.50449796E+03</pdfrwt>
<pdfrwt beam="2">  1       -2 0.10760113E-01 0.50449796E+03</pdfrwt>
<totfact> 0.21545557E+03</totfact>
</mgrwt>
</event>
<event>
 4    1  0.5387486E-005  0.3996570E+03  0.7818608E-02  0.1043899E+00
         -2   -1    0    0    0  501 -0.00000000000E+00  0.00000000000E+00  0.14485748992E+03  0.14485748995E+03  0.25500000000E-02 0. -1.
          2   -1    0    0  501    0  0.00000000000E+00 -0.00000000000E+00 -0.27566004320E+03  0.27566004321E+03  0.25500000000E-02 0.  1.
    5000001    1    1    2    0    0  0.17607474512E+02 -0.87215789868E+02 -0.13822210771E+03  0.23290978558E+03  0.16500000000E+03 0.  0.
   -5000001    1    1    2    0    0 -0.17607474512E+02  0.87215789868E+02  0.74195544365E+01  0.18760774757E+03  0.16500000000E+03 0.  0.
<mgrwt>
<rscale>  0 0.39965696E+03</rscale>
<asrwt>0</asrwt>
<pdfrwt beam="1">  1        2 0.39380006E-01 0.39965696E+03</pdfrwt>
<pdfrwt beam="2">  1       -2 0.20693927E-01 0.39965696E+03</pdfrwt>
<totfact> 0.25941372E+03</totfact>
</mgrwt>
</event>
<event>
 4    1  0.5387486E-005  0.5482118E+03  0.7818608E-02  0.1001909E+00
          2   -1    0    0  501    0  0.00000000000E+00  0.00000000000E+00  0.28002434017E+03  0.28002434018E+03  0.25500000000E-02 0.  1.
         -2   -1    0    0    0  501 -0.00000000000E+00 -0.00000000000E+00 -0.26831251999E+03  0.26831252000E+03  0.25500000000E-02 0. -1.
    5000001    1    1    2    0    0  0.19960664902E+03 -0.89362117052E+02  0.14837607052E+02  0.27436026841E+03  0.16500000000E+03 0.  0.
   -5000001    1    1    2    0    0 -0.19960664902E+03  0.89362117052E+02 -0.31257868774E+01  0.27397659178E+03  0.16500000000E+03 0.  0.
<mgrwt>
<rscale>  0 0.54821177E+03</rscale>
<asrwt>0</asrwt>
<pdfrwt beam="1">  1        2 0.40003477E-01 0.54821177E+03</pdfrwt>
<pdfrwt beam="2">  1       -2 0.38330360E-01 0.54821177E+03</pdfrwt>
<totfact> 0.83096141E+02</totfact>
</mgrwt>
</event>
<event>
 4    1  0.5387486E-005  0.7042543E+03  0.7818608E-02  0.9709984E-01
          2   -1    0    0  501    0  0.00000000000E+00  0.00000000000E+00  0.35490621110E+03  0.35490621111E+03  0.25500000000E-02 0.  1.
         -2   -1    0    0    0  501 -0.00000000000E+00 -0.00000000000E+00 -0.34936988702E+03  0.34936988703E+03  0.25500000000E-02 0. -1.
    5000001    1    1    2    0    0 -0.18638989822E+03 -0.24711792237E+03  0.33754296029E+02  0.35238163150E+03  0.16500000000E+03 0.  0.
   -5000001    1    1    2    0    0  0.18638989822E+03  0.24711792237E+03 -0.28217971953E+02  0.35189446665E+03  0.16500000000E+03 0.  0.
<mgrwt>
<rscale>  0 0.70425434E+03</rscale>
<asrwt>0</asrwt>
<pdfrwt beam="1">  1        2 0.50700887E-01 0.70425434E+03</pdfrwt>
<pdfrwt beam="2">  1       -2 0.49909984E-01 0.70425434E+03</pdfrwt>
<totfact> 0.37858176E+02</totfact>
</mgrwt>
</event>
<event>
 4    1  0.5387486E-005  0.6988168E+03  0.7818608E-02  0.9719258E-01
          2   -1    0    0  501    0  0.00000000000E+00  0.00000000000E+00  0.20940155597E+03  0.20940155599E+03  0.25500000000E-02 0. -1.
         -2   -1    0    0    0  501 -0.00000000000E+00 -0.00000000000E+00 -0.58302451679E+03  0.58302451680E+03  0.25500000000E-02 0.  1.
    5000001    1    1    2    0    0 -0.53012121995E+02  0.25898497454E+03 -0.36602549157E+03  0.48071110097E+03  0.16500000000E+03 0.  0.
   -5000001    1    1    2    0    0  0.53012121995E+02 -0.25898497454E+03 -0.75974692490E+01  0.31171497181E+03  0.16500000000E+03 0.  0.
<mgrwt>
<rscale>  0 0.69881683E+03</rscale>
<asrwt>0</asrwt>
<pdfrwt beam="1">  1        2 0.29914508E-01 0.69881683E+03</pdfrwt>
<pdfrwt beam="2">  1       -2 0.83289216E-01 0.69881683E+03</pdfrwt>
<totfact> 0.22747553E+02</totfact>
</mgrwt>
</event>
<event>
 4    1  0.5387486E-005  0.5317856E+03  0.7818608E-02  0.1005800E+00
          2   -1    0    0  501    0  0.00000000000E+00  0.00000000000E+00  0.13322428387E+04  0.13322428387E+04  0.25500000000E-02 0.  1.
         -2   -1    0    0    0  501 -0.00000000000E+00 -0.00000000000E+00 -0.53067633792E+02  0.53067633853E+02  0.25500000000E-02 0. -1.
    5000001    1    1    2    0    0 -0.20366158267E+03  0.38514961429E+02  0.69856305999E+03  0.74711230166E+03  0.16500000000E+03 0.  0.
   -5000001    1    1    2    0    0  0.20366158267E+03 -0.38514961429E+02  0.58061214493E+03  0.63819817091E+03  0.16500000000E+03 0.  0.
<mgrwt>
<rscale>  0 0.53178558E+03</rscale>
<asrwt>0</asrwt>
<pdfrwt beam="1">  1        2 0.19032037E+00 0.53178558E+03</pdfrwt>
<pdfrwt beam="2">  1       -2 0.75810918E-02 0.53178558E+03</pdfrwt>
<totfact> 0.19518071E+03</totfact>
</mgrwt>
</event>
<event>
 4    1  0.5387486E-005  0.4985386E+03  0.7818608E-02  0.1014161E+00
          2   -1    0    0  501    0  0.00000000000E+00  0.00000000000E+00  0.61625316995E+03  0.61625316996E+03  0.25500000000E-02 0.  1.
         -2   -1    0    0    0  501 -0.00000000000E+00 -0.00000000000E+00 -0.10082736291E+03  0.10082736295E+03  0.25500000000E-02 0. -1.
    5000001    1    1    2    0    0 -0.16950980197E+03  0.73225155184E+02  0.29876772796E+03  0.38804980555E+03  0.16500000000E+03 0.  0.
   -5000001    1    1    2    0    0  0.16950980197E+03 -0.73225155184E+02  0.21665807908E+03  0.32903072736E+03  0.16500000000E+03 0.  0.
<mgrwt>
<rscale>  0 0.49853859E+03</rscale>
<asrwt>0</asrwt>
<pdfrwt beam="1">  1        2 0.88036168E-01 0.49853859E+03</pdfrwt>
<pdfrwt beam="2">  1       -2 0.14403909E-01 0.49853859E+03</pdfrwt>
<totfact> 0.19649665E+03</totfact>
</mgrwt>
</event>
<event>
 4    1  0.5387486E-005  0.3901949E+03  0.7818608E-02  0.1047229E+00
         -2   -1    0    0    0  501 -0.00000000000E+00  0.00000000000E+00  0.29345872928E+02  0.29345873038E+02  0.25500000000E-02 0. -1.
          2   -1    0    0  501    0  0.00000000000E+00 -0.00000000000E+00 -0.12970481792E+04  0.12970481792E+04  0.25500000000E-02 0.  1.
    5000001    1    1    2    0    0 -0.63321685683E+02  0.76966341237E+02 -0.73608839011E+03  0.76091035714E+03  0.16500000000E+03 0.  0.
   -5000001    1    1    2    0    0  0.63321685683E+02 -0.76966341237E+02 -0.53161391621E+03  0.56548369514E+03  0.16500000000E+03 0.  0.
<mgrwt>
<rscale>  0 0.39019488E+03</rscale>
<asrwt>0</asrwt>
<pdfrwt beam="1">  1        2 0.18529256E+00 0.39019488E+03</pdfrwt>
<pdfrwt beam="2">  1       -2 0.41922684E-02 0.39019488E+03</pdfrwt>
<totfact> 0.51114625E+03</totfact>
</mgrwt>
</event>
<event>
 4    1  0.5387486E-005  0.3419650E+03  0.7818608E-02  0.1065962E+00
         -2   -1    0    0    0  501 -0.00000000000E+00  0.00000000000E+00  0.12348328073E+04  0.12348328073E+04  0.25500000000E-02 0. -1.
          2   -1    0    0  501    0  0.00000000000E+00 -0.00000000000E+00 -0.23675284019E+02  0.23675284157E+02  0.25500000000E-02 0.  1.
    5000001    1    1    2    0    0 -0.43660523096E+02  0.18579547077E+01  0.56871689830E+03  0.59377908660E+03  0.16500000000E+03 0.  0.
   -5000001    1    1    2    0    0  0.43660523096E+02 -0.18579547077E+01  0.64244062495E+03  0.66472900482E+03  0.16500000000E+03 0.  0.
<mgrwt>
<rscale>  0 0.34196501E+03</rscale>
<asrwt>0</asrwt>
<pdfrwt beam="1">  1        2 0.33821826E-02 0.34196501E+03</pdfrwt>
<pdfrwt beam="2">  1       -2 0.17640473E+00 0.34196501E+03</pdfrwt>
<totfact> 0.54972881E+02</totfact>
</mgrwt>
</event>
<event>
 4    1  0.5387486E-005  0.4660470E+03  0.7818608E-02  0.1023042E+00
         -2   -1    0    0    0  501 -0.00000000000E+00  0.00000000000E+00  0.47110065860E+02  0.47110065929E+02  0.25500000000E-02 0. -1.
          2   -1    0    0  501    0  0.00000000000E+00 -0.00000000000E+00 -0.11526188944E+04  0.11526188944E+04  0.25500000000E-02 0.  1.
    5000001    1    1    2    0    0  0.15996616772E+02 -0.15752824770E+03 -0.43751721559E+03  0.49367737898E+03  0.16500000000E+03 0.  0.
   -5000001    1    1    2    0    0 -0.15996616772E+02  0.15752824770E+03 -0.66799161297E+03  0.70605158138E+03  0.16500000000E+03 0.  0.
<mgrwt>
<rscale>  0 0.46604700E+03</rscale>
<asrwt>0</asrwt>
<pdfrwt beam="1">  1        2 0.16465982E+00 0.46604700E+03</pdfrwt>
<pdfrwt beam="2">  1       -2 0.67300102E-02 0.46604700E+03</pdfrwt>
<totfact> 0.29573781E+03</totfact>
</mgrwt>
</event>
<event>
 4    1  0.5387486E-005  0.8114324E+03  0.7818608E-02  0.9543615E-01
          2   -1    0    0  501    0  0.00000000000E+00  0.00000000000E+00  0.22897444976E+04  0.22897444976E+04  0.25500000000E-02 0. -1.
         -2   -1    0    0    0  501 -0.00000000000E+00 -0.00000000000E+00 -0.71888203968E+02  0.71888204014E+02  0.25500000000E-02 0.  1.
    5000001    1    1    2    0    0 -0.11635294922E+03 -0.35191265229E+03  0.11098294392E+04  0.11816627724E+04  0.16500000000E+03 0.  0.
   -5000001    1    1    2    0    0  0.11635294922E+03  0.35191265229E+03  0.11080268544E+04  0.11799699292E+04  0.16500000000E+03 0.  0.
<mgrwt>
<rscale>  0 0.81143236E+03</rscale>
<asrwt>0</asrwt>
<pdfrwt beam="1">  1        2 0.32710635E+00 0.81143236E+03</pdfrwt>
<pdfrwt beam="2">  1       -2 0.10269744E-01 0.81143236E+03</pdfrwt>
<totfact> 0.38168786E+02</totfact>
</mgrwt>
</event>
<event>
 4    1  0.5387486E-005  0.9003884E+03  0.7818608E-02  0.9425096E-01
          2   -1    0    0  501    0  0.00000000000E+00  0.00000000000E+00  0.32324510459E+02  0.32324510560E+02  0.25500000000E-02 0.  1.
         -2   -1    0    0    0  501 -0.00000000000E+00 -0.00000000000E+00 -0.62700047383E+04  0.62700047383E+04  0.25500000000E-02 0. -1.
    5000001    1    1    2    0    0 -0.42219248005E+02  0.18677700582E+03 -0.51126209774E+03  0.57033503083E+03  0.16500000000E+03 0.  0.
   -5000001    1    1    2    0    0  0.42219248005E+02 -0.18677700582E+03 -0.57264181301E+04  0.57319942180E+04  0.16500000000E+03 0.  0.
<mgrwt>
<rscale>  0 0.90038844E+03</rscale>
<asrwt>0</asrwt>
<pdfrwt beam="1">  1        2 0.46177912E-02 0.90038844E+03</pdfrwt>
<pdfrwt beam="2">  1       -2 0.89571418E+00 0.90038844E+03</pdfrwt>
<totfact> 0.22914261E-02</totfact>
</mgrwt>
</event>
<event>
 4    1  0.5387486E-005  0.3852973E+03  0.7818608E-02  0.1048993E+00
         -2   -1    0    0    0  501 -0.00000000000E+00  0.00000000000E+00  0.98303464350E+03  0.98303464350E+03  0.25500000000E-02 0. -1.
          2   -1    0    0  501    0  0.00000000000E+00 -0.00000000000E+00 -0.37754015414E+02  0.37754015500E+02  0.25500000000E-02 0.  1.
    5000001    1    1    2    0    0 -0.10738305520E+02  0.52128743618E+02  0.69518263674E+03  0.71647513253E+03  0.16500000000E+03 0.  0.
   -5000001    1    1    2    0    0  0.10738305520E+02 -0.52128743618E+02  0.25009799135E+03  0.30431352647E+03  0.16500000000E+03 0.  0.
<mgrwt>
<rscale>  0 0.38529731E+03</rscale>
<asrwt>0</asrwt>
<pdfrwt beam="1">  1        2 0.53934314E-02 0.38529731E+03</pdfrwt>
<pdfrwt beam="2">  1       -2 0.14043350E+00 0.38529731E+03</pdfrwt>
<totfact> 0.53707612E+02</totfact>
</mgrwt>
</event>
<event>
 4    1  0.5387486E-005  0.4748334E+03  0.7818608E-02  0.1020565E+00
         -2   -1    0    0    0  501 -0.00000000000E+00  0.00000000000E+00  0.51291050970E+02  0.51291051034E+02  0.25500000000E-02 0. -1.
          2   -1    0    0  501    0  0.00000000000E+00 -0.00000000000E+00 -0.10989578083E+04  0.10989578083E+04  0.25500000000E-02 0.  1.
    5000001    1    1    2    0    0 -0.13595727663E+03  0.10247802428E+03 -0.55404817507E+03  0.60264459413E+03  0.16500000000E+03 0.  0.
   -5000001    1    1    2    0    0  0.13595727663E+03 -0.10247802428E+03 -0.49361858229E+03  0.54760426525E+03  0.16500000000E+03 0.  0.
<mgrwt>
<rscale>  0 0.47483345E+03</rscale>
<asrwt>0</asrwt>
<pdfrwt beam="1">  1        2 0.15699396E+00 0.47483345E+03</pdfrwt>
<pdfrwt beam="2">  1       -2 0.73272936E-02 0.47483345E+03</pdfrwt>
<totfact> 0.27764664E+03</totfact>
</mgrwt>
</event>
<event>
 4    1  0.5387486E-005  0.4428932E+03  0.7818608E-02  0.1029863E+00
          2   -1    0    0  501    0  0.00000000000E+00  0.00000000000E+00  0.40235526104E+03  0.40235526105E+03  0.25500000000E-02 0.  1.
         -2   -1    0    0    0  501 -0.00000000000E+00 -0.00000000000E+00 -0.12187886647E+03  0.12187886650E+03  0.25500000000E-02 0. -1.
    5000001    1    1    2    0    0 -0.43909659063E+02  0.13542173774E+03  0.18678618603E+03  0.28702122658E+03  0.16500000000E+03 0.  0.
   -5000001    1    1    2    0    0  0.43909659063E+02 -0.13542173774E+03  0.93690208532E+02  0.23721290097E+03  0.16500000000E+03 0.  0.
<mgrwt>
<rscale>  0 0.44289323E+03</rscale>
<asrwt>0</asrwt>
<pdfrwt beam="1">  1        2 0.57479323E-01 0.44289323E+03</pdfrwt>
<pdfrwt beam="2">  1       -2 0.17411267E-01 0.44289323E+03</pdfrwt>
<totfact> 0.23106811E+03</totfact>
</mgrwt>
</event>
<event>
 4    1  0.5387486E-005  0.5679670E+03  0.7818608E-02  0.9974187E-01
          2   -1    0    0  501    0  0.00000000000E+00  0.00000000000E+00  0.27735334577E+03  0.27735334579E+03  0.25500000000E-02 0. -1.
         -2   -1    0    0    0  501 -0.00000000000E+00 -0.00000000000E+00 -0.29077214851E+03  0.29077214852E+03  0.25500000000E-02 0.  1.
    5000001    1    1    2    0    0 -0.16038366829E+03 -0.16365908006E+03 -0.36957097617E+02  0.28477718062E+03  0.16500000000E+03 0.  0.
   -5000001    1    1    2    0    0  0.16038366829E+03  0.16365908006E+03  0.23538294883E+02  0.28334831368E+03  0.16500000000E+03 0.  0.
<mgrwt>
<rscale>  0 0.56796700E+03</rscale>
<asrwt>0</asrwt>
<pdfrwt beam="1">  1        2 0.39621907E-01 0.56796700E+03</pdfrwt>
<pdfrwt beam="2">  1       -2 0.41538878E-01 0.56796700E+03</pdfrwt>
<totfact> 0.71855270E+02</totfact>
</mgrwt>
</event>
<event>
 4    1  0.5387486E-005  0.5643278E+03  0.7818608E-02  0.9982309E-01
          2   -1    0    0  501    0  0.00000000000E+00  0.00000000000E+00  0.43409735486E+03  0.43409735487E+03  0.25500000000E-02 0.  1.
         -2   -1    0    0    0  501 -0.00000000000E+00 -0.00000000000E+00 -0.18340694730E+03  0.18340694732E+03  0.25500000000E-02 0. -1.
    5000001    1    1    2    0    0 -0.46113448551E+02  0.19202453359E+03 -0.12813391087E+01  0.25734512521E+03  0.16500000000E+03 0.  0.
   -5000001    1    1    2    0    0  0.46113448551E+02 -0.19202453359E+03  0.25197174667E+03  0.36015917698E+03  0.16500000000E+03 0.  0.
<mgrwt>
<rscale>  0 0.56432781E+03</rscale>
<asrwt>0</asrwt>
<pdfrwt beam="1">  1        2 0.62013907E-01 0.56432781E+03</pdfrwt>
<pdfrwt beam="2">  1       -2 0.26200993E-01 0.56432781E+03</pdfrwt>
<totfact> 0.10395447E+03</totfact>
</mgrwt>
</event>
<event>
 4    1  0.5387486E-005  0.4923082E+03  0.7818608E-02  0.1015806E+00
         -2   -1    0    0    0  501 -0.00000000000E+00  0.00000000000E+00  0.69796553191E+02  0.69796553238E+02  0.25500000000E-02 0. -1.
          2   -1    0    0  501    0  0.00000000000E+00 -0.00000000000E+00 -0.86812079201E+03  0.86812079202E+03  0.25500000000E-02 0.  1.
    5000001    1    1    2    0    0 -0.16114176456E+03 -0.86015414784E+02 -0.39681392403E+03  0.46695996635E+03  0.16500000000E+03 0.  0.
   -5000001    1    1    2    0    0  0.16114176456E+03  0.86015414784E+02 -0.40151031479E+03  0.47095737891E+03  0.16500000000E+03 0.  0.
<mgrwt>
<rscale>  0 0.49230819E+03</rscale>
<asrwt>0</asrwt>
<pdfrwt beam="1">  1        2 0.12401725E+00 0.49230819E+03</pdfrwt>
<pdfrwt beam="2">  1       -2 0.99709367E-02 0.49230819E+03</pdfrwt>
<totfact> 0.23522486E+03</totfact>
</mgrwt>
</event>
<event>
 4    1  0.5387486E-005  0.6340851E+03  0.7818608E-02  0.9837109E-01
         -2   -1    0    0    0  501 -0.00000000000E+00  0.00000000000E+00  0.34190516011E+02  0.34190516106E+02  0.25500000000E-02 0. -1.
          2   -1    0    0  501    0  0.00000000000E+00 -0.00000000000E+00 -0.29398793605E+04  0.29398793605E+04  0.25500000000E-02 0.  1.
    5000001    1    1    2    0    0  0.17470451402E+03 -0.15146136304E+03 -0.21133121407E+04  0.21323169126E+04  0.16500000000E+03 0.  0.
   -5000001    1    1    2    0    0 -0.17470451402E+03  0.15146136304E+03 -0.79237670380E+03  0.84175296402E+03  0.16500000000E+03 0.  0.
<mgrwt>
<rscale>  0 0.63408514E+03</rscale>
<asrwt>0</asrwt>
<pdfrwt beam="1">  1        2 0.41998261E+00 0.63408514E+03</pdfrwt>
<pdfrwt beam="2">  1       -2 0.48843613E-02 0.63408514E+03</pdfrwt>
<totfact> 0.57672680E+02</totfact>
</mgrwt>
</event>
<event>
 4    1  0.5387486E-005  0.3935174E+03  0.7818608E-02  0.1046048E+00
         -2   -1    0    0    0  501 -0.00000000000E+00  0.00000000000E+00  0.27976879078E+02  0.27976879194E+02  0.25500000000E-02 0. -1.
          2   -1    0    0  501    0  0.00000000000E+00 -0.00000000000E+00 -0.13837850965E+04  0.13837850965E+04  0.25500000000E-02 0.  1.
    5000001    1    1    2    0    0 -0.28492260067E+02 -0.10307237888E+03 -0.70408686347E+03  0.73102601560E+03  0.16500000000E+03 0.  0.
   -5000001    1    1    2    0    0  0.28492260067E+02  0.10307237888E+03 -0.65172135393E+03  0.68073596007E+03  0.16500000000E+03 0.  0.
<mgrwt>
<rscale>  0 0.39351741E+03</rscale>
<asrwt>0</asrwt>
<pdfrwt beam="1">  1        2 0.19768354E+00 0.39351741E+03</pdfrwt>
<pdfrwt beam="2">  1       -2 0.39966979E-02 0.39351741E+03</pdfrwt>
<totfact> 0.49455119E+03</totfact>
</mgrwt>
</event>
<event>
 4    1  0.5387486E-005  0.5094409E+03  0.7818608E-02  0.1011344E+00
         -2   -1    0    0    0  501 -0.00000000000E+00  0.00000000000E+00  0.10243712972E+03  0.10243712975E+03  0.25500000000E-02 0. -1.
          2   -1    0    0  501    0  0.00000000000E+00 -0.00000000000E+00 -0.63338865957E+03  0.63338865957E+03  0.25500000000E-02 0.  1.
    5000001    1    1    2    0    0  0.86250487275E+02  0.16739432528E+03 -0.19776674018E+03  0.31905593587E+03  0.16500000000E+03 0.  0.
   -5000001    1    1    2    0    0 -0.86250487275E+02 -0.16739432528E+03 -0.33318478967E+03  0.41676985346E+03  0.16500000000E+03 0.  0.
<mgrwt>
<rscale>  0 0.50944093E+03</rscale>
<asrwt>0</asrwt>
<pdfrwt beam="1">  1        2 0.90484091E-01 0.50944093E+03</pdfrwt>
<pdfrwt beam="2">  1       -2 0.14633876E-01 0.50944093E+03</pdfrwt>
<totfact> 0.18527692E+03</totfact>
</mgrwt>
</event>
<event>
 4    1  0.5387486E-005  0.4439100E+03  0.7818608E-02  0.1029554E+00
         -2   -1    0    0    0  501 -0.00000000000E+00  0.00000000000E+00  0.92584638103E+02  0.92584638138E+02  0.25500000000E-02 0. -1.
          2   -1    0    0  501    0  0.00000000000E+00 -0.00000000000E+00 -0.53209721688E+03  0.53209721689E+03  0.25500000000E-02 0.  1.
    5000001    1    1    2    0    0  0.64066123753E+02 -0.12138201111E+03 -0.29937306102E+03  0.36835755795E+03  0.16500000000E+03 0.  0.
   -5000001    1    1    2    0    0 -0.64066123753E+02  0.12138201111E+03 -0.14013951776E+03  0.25632429708E+03  0.16500000000E+03 0.  0.
<mgrwt>
<rscale>  0 0.44391003E+03</rscale>
<asrwt>0</asrwt>
<pdfrwt beam="1">  1        2 0.76013886E-01 0.44391003E+03</pdfrwt>
<pdfrwt beam="2">  1       -2 0.13226377E-01 0.44391003E+03</pdfrwt>
<totfact> 0.26801216E+03</totfact>
</mgrwt>
</event>
<event>
 4    1  0.5387486E-005  0.4415522E+03  0.7818608E-02  0.1030272E+00
          2   -1    0    0  501    0  0.00000000000E+00  0.00000000000E+00  0.48685599399E+03  0.48685599399E+03  0.25500000000E-02 0.  1.
         -2   -1    0    0    0  501 -0.00000000000E+00 -0.00000000000E+00 -0.10011604634E+03  0.10011604637E+03  0.25500000000E-02 0. -1.
    5000001    1    1    2    0    0  0.71060583799E+02  0.98894752988E+02  0.84662020820E+02  0.22186130016E+03  0.16500000000E+03 0.  0.
   -5000001    1    1    2    0    0 -0.71060583799E+02 -0.98894752988E+02  0.30207792683E+03  0.36511074021E+03  0.16500000000E+03 0.  0.
<mgrwt>
<rscale>  0 0.44155225E+03</rscale>
<asrwt>0</asrwt>
<pdfrwt beam="1">  1        2 0.69550854E-01 0.44155225E+03</pdfrwt>
<pdfrwt beam="2">  1       -2 0.14302293E-01 0.44155225E+03</pdfrwt>
<totfact> 0.26027982E+03</totfact>
</mgrwt>
</event>
<event>
 4    1  0.5387486E-005  0.4304239E+03  0.7818608E-02  0.1033726E+00
          2   -1    0    0  501    0  0.00000000000E+00  0.00000000000E+00  0.78178698419E+03  0.78178698419E+03  0.25500000000E-02 0.  1.
         -2   -1    0    0    0  501 -0.00000000000E+00 -0.00000000000E+00 -0.59243997470E+02  0.59243997525E+02  0.25500000000E-02 0. -1.
    5000001    1    1    2    0    0 -0.20998258335E+02 -0.11792980826E+03  0.22670593835E+03  0.30490809929E+03  0.16500000000E+03 0.  0.
   -5000001    1    1    2    0    0  0.20998258335E+02  0.11792980826E+03  0.49583704837E+03  0.53612288243E+03  0.16500000000E+03 0.  0.
<mgrwt>
<rscale>  0 0.43042391E+03</rscale>
<asrwt>0</asrwt>
<pdfrwt beam="1">  1        2 0.11168385E+00 0.43042391E+03</pdfrwt>
<pdfrwt beam="2">  1       -2 0.84634284E-02 0.43042391E+03</pdfrwt>
<totfact> 0.34929802E+03</totfact>
</mgrwt>
</event>
<event>
 4    1  0.5387486E-005  0.4736895E+03  0.7818608E-02  0.1020884E+00
         -2   -1    0    0    0  501 -0.00000000000E+00  0.00000000000E+00  0.43018639338E+02  0.43018639413E+02  0.25500000000E-02 0. -1.
          2   -1    0    0  501    0  0.00000000000E+00 -0.00000000000E+00 -0.13039796774E+04  0.13039796774E+04  0.25500000000E-02 0.  1.
    5000001    1    1    2    0    0  0.75323234772E+02 -0.15217297304E+03 -0.61244461322E+03  0.65661526610E+03  0.16500000000E+03 0.  0.
   -5000001    1    1    2    0    0 -0.75323234772E+02  0.15217297304E+03 -0.64851642485E+03  0.69038305071E+03  0.16500000000E+03 0.  0.
<mgrwt>
<rscale>  0 0.47368948E+03</rscale>
<asrwt>0</asrwt>
<pdfrwt beam="1">  1        2 0.18628279E+00 0.47368948E+03</pdfrwt>
<pdfrwt beam="2">  1       -2 0.61455207E-02 0.47368948E+03</pdfrwt>
<totfact> 0.28135349E+03</totfact>
</mgrwt>
</event>
<event>
 4    1  0.5387486E-005  0.5788692E+03  0.7818608E-02  0.9950242E-01
         -2   -1    0    0    0  501 -0.00000000000E+00  0.00000000000E+00  0.48596628113E+02  0.48596628180E+02  0.25500000000E-02 0. -1.
          2   -1    0    0  501    0  0.00000000000E+00 -0.00000000000E+00 -0.17238313423E+04  0.17238313423E+04  0.25500000000E-02 0.  1.
    5000001    1    1    2    0    0 -0.12528401014E+03  0.19051628240E+03 -0.10442625749E+04  0.10815275597E+04  0.16500000000E+03 0.  0.
   -5000001    1    1    2    0    0  0.12528401014E+03 -0.19051628240E+03 -0.63097213924E+03  0.69090041073E+03  0.16500000000E+03 0.  0.
<mgrwt>
<rscale>  0 0.57886921E+03</rscale>
<asrwt>0</asrwt>
<pdfrwt beam="1">  1        2 0.24626158E+00 0.57886921E+03</pdfrwt>
<pdfrwt beam="2">  1       -2 0.69423765E-02 0.57886921E+03</pdfrwt>
<totfact> 0.14028281E+03</totfact>
</mgrwt>
</event>
<event>
 4    1  0.5387486E-005  0.8362171E+03  0.7818608E-02  0.9509025E-01
          2   -1    0    0  501    0  0.00000000000E+00  0.00000000000E+00  0.94105485203E+03  0.94105485204E+03  0.25500000000E-02 0.  1.
         -2   -1    0    0    0  501 -0.00000000000E+00 -0.00000000000E+00 -0.18576468693E+03  0.18576468695E+03  0.25500000000E-02 0. -1.
    5000001    1    1    2    0    0 -0.24578872128E+03 -0.10038370369E+03  0.34787559611E+01  0.31261171638E+03  0.16500000000E+03 0.  0.
   -5000001    1    1    2    0    0  0.24578872128E+03  0.10038370369E+03  0.75181140914E+03  0.81420782260E+03  0.16500000000E+03 0.  0.
<mgrwt>
<rscale>  0 0.83621710E+03</rscale>
<asrwt>0</asrwt>
<pdfrwt beam="1">  1        2 0.13443641E+00 0.83621710E+03</pdfrwt>
<pdfrwt beam="2">  1       -2 0.26537812E-01 0.83621710E+03</pdfrwt>
<totfact> 0.39392281E+02</totfact>
</mgrwt>
</event>
<event>
 4    1  0.5387486E-005  0.4157787E+03  0.7818608E-02  0.1038449E+00
         -2   -1    0    0    0  501 -0.00000000000E+00  0.00000000000E+00  0.14499339587E+03  0.14499339590E+03  0.25500000000E-02 0. -1.
          2   -1    0    0  501    0  0.00000000000E+00 -0.00000000000E+00 -0.29806858391E+03  0.29806858393E+03  0.25500000000E-02 0.  1.
    5000001    1    1    2    0    0 -0.45358947224E+02  0.10576579985E+03 -0.20664783164E+02  0.20222727752E+03  0.16500000000E+03 0.  0.
   -5000001    1    1    2    0    0  0.45358947224E+02 -0.10576579985E+03 -0.13241040488E+03  0.24083470230E+03  0.16500000000E+03 0.  0.
<mgrwt>
<rscale>  0 0.41577867E+03</rscale>
<asrwt>0</asrwt>
<pdfrwt beam="1">  1        2 0.42581226E-01 0.41577867E+03</pdfrwt>
<pdfrwt beam="2">  1       -2 0.20713342E-01 0.41577867E+03</pdfrwt>
<totfact> 0.23795741E+03</totfact>
</mgrwt>
</event>
<event>
 4    1  0.5387486E-005  0.5696155E+03  0.7818608E-02  0.9970530E-01
         -2   -1    0    0    0  501 -0.00000000000E+00  0.00000000000E+00  0.20683371222E+03  0.20683371224E+03  0.25500000000E-02 0. -1.
          2   -1    0    0  501    0  0.00000000000E+00 -0.00000000000E+00 -0.39217716114E+03  0.39217716115E+03  0.25500000000E-02 0.  1.
    5000001    1    1    2    0    0 -0.97025832442E+02 -0.14485379000E+03  0.68515184335E+02  0.24963165489E+03  0.16500000000E+03 0.  0.
   -5000001    1    1    2    0    0  0.97025832442E+02  0.14485379000E+03 -0.25385863325E+03  0.34937921849E+03  0.16500000000E+03 0.  0.
<mgrwt>
<rscale>  0 0.56961551E+03</rscale>
<asrwt>0</asrwt>
<pdfrwt beam="1">  1        2 0.56025309E-01 0.56961551E+03</pdfrwt>
<pdfrwt beam="2">  1       -2 0.29547673E-01 0.56961551E+03</pdfrwt>
<totfact> 0.93475200E+02</totfact>
</mgrwt>
</event>
<event>
 4    1  0.5387486E-005  0.7103279E+03  0.7818608E-02  0.9699731E-01
         -2   -1    0    0    0  501 -0.00000000000E+00  0.00000000000E+00  0.19133858966E+03  0.19133858968E+03  0.25500000000E-02 0. -1.
          2   -1    0    0  501    0  0.00000000000E+00 -0.00000000000E+00 -0.65925774169E+03  0.65925774170E+03  0.25500000000E-02 0.  1.
    5000001    1    1    2    0    0 -0.36843775940E+02 -0.31195718456E+03 -0.25257619766E+03  0.43553930299E+03  0.16500000000E+03 0.  0.
   -5000001    1    1    2    0    0  0.36843775940E+02  0.31195718456E+03 -0.21534295437E+03  0.41505702839E+03  0.16500000000E+03 0.  0.
<mgrwt>
<rscale>  0 0.71032794E+03</rscale>
<asrwt>0</asrwt>
<pdfrwt beam="1">  1        2 0.94179676E-01 0.71032794E+03</pdfrwt>
<pdfrwt beam="2">  1       -2 0.27334085E-01 0.71032794E+03</pdfrwt>
<totfact> 0.59233062E+02</totfact>
</mgrwt>
</event>
<event>
 4    1  0.5387486E-005  0.3998839E+03  0.7818608E-02  0.1043820E+00
          2   -1    0    0  501    0  0.00000000000E+00  0.00000000000E+00  0.73820788712E+03  0.73820788713E+03  0.25500000000E-02 0.  1.
         -2   -1    0    0    0  501 -0.00000000000E+00 -0.00000000000E+00 -0.54153835512E+02  0.54153835572E+02  0.25500000000E-02 0. -1.
    5000001    1    1    2    0    0  0.23033472013E+02 -0.88007329381E+02  0.20946091190E+03  0.28173516726E+03  0.16500000000E+03 0.  0.
   -5000001    1    1    2    0    0 -0.23033472013E+02  0.88007329381E+02  0.47459313971E+03  0.51062655544E+03  0.16500000000E+03 0.  0.
<mgrwt>
<rscale>  0 0.39988393E+03</rscale>
<asrwt>0</asrwt>
<pdfrwt beam="1">  1        2 0.10545827E+00 0.39988393E+03</pdfrwt>
<pdfrwt beam="2">  1       -2 0.77362625E-02 0.39988393E+03</pdfrwt>
<totfact> 0.43179544E+03</totfact>
</mgrwt>
</event>
<event>
 4    1  0.5387486E-005  0.4172617E+03  0.7818608E-02  0.1037961E+00
          2   -1    0    0  501    0  0.00000000000E+00  0.00000000000E+00  0.70812581335E+02  0.70812581381E+02  0.25500000000E-02 0.  1.
         -2   -1    0    0    0  501 -0.00000000000E+00 -0.00000000000E+00 -0.61467645921E+03  0.61467645922E+03  0.25500000000E-02 0. -1.
    5000001    1    1    2    0    0 -0.87510155522E+01 -0.12120989019E+03 -0.33626304591E+03  0.39378452712E+03  0.16500000000E+03 0.  0.
   -5000001    1    1    2    0    0  0.87510155522E+01  0.12120989019E+03 -0.20760083197E+03  0.29170451348E+03  0.16500000000E+03 0.  0.
<mgrwt>
<rscale>  0 0.41726168E+03</rscale>
<asrwt>0</asrwt>
<pdfrwt beam="1">  1        2 0.10116083E-01 0.41726168E+03</pdfrwt>
<pdfrwt beam="2">  1       -2 0.87810920E-01 0.41726168E+03</pdfrwt>
<totfact> 0.73562464E+02</totfact>
</mgrwt>
</event>
<event>
 4    1  0.5387486E-005  0.5808836E+03  0.7818608E-02  0.9945880E-01
          2   -1    0    0  501    0  0.00000000000E+00  0.00000000000E+00  0.40274577442E+03  0.40274577443E+03  0.25500000000E-02 0.  1.
         -2   -1    0    0    0  501 -0.00000000000E+00 -0.00000000000E+00 -0.20945335218E+03  0.20945335220E+03  0.25500000000E-02 0. -1.
    5000001    1    1    2    0    0  0.64202096661E+02 -0.21416470104E+03  0.18571891077E+03  0.33422289300E+03  0.16500000000E+03 0.  0.
   -5000001    1    1    2    0    0 -0.64202096661E+02  0.21416470104E+03  0.75735114677E+01  0.27797623363E+03  0.16500000000E+03 0.  0.
<mgrwt>
<rscale>  0 0.58088365E+03</rscale>
<asrwt>0</asrwt>
<pdfrwt beam="1">  1        2 0.57535109E-01 0.58088365E+03</pdfrwt>
<pdfrwt beam="2">  1       -2 0.29921908E-01 0.58088365E+03</pdfrwt>
<totfact> 0.88666239E+02</totfact>
</mgrwt>
</event>
<event>
 4    1  0.5387486E-005  0.4556104E+03  0.7818608E-02  0.1026062E+00
         -2   -1    0    0    0  501 -0.00000000000E+00  0.00000000000E+00  0.14228556888E+02  0.14228557117E+02  0.25500000000E-02 0. -1.
          2   -1    0    0  501    0  0.00000000000E+00 -0.00000000000E+00 -0.36472572617E+04  0.36472572617E+04  0.25500000000E-02 0.  1.
    5000001    1    1    2    0    0 -0.12857183804E+03  0.71502173731E+02 -0.22586595208E+04  0.22694517200E+04  0.16500000000E+03 0.  0.
   -5000001    1    1    2    0    0  0.12857183804E+03 -0.71502173731E+02 -0.13743691840E+04  0.13920340988E+04  0.16500000000E+03 0.  0.
<mgrwt>
<rscale>  0 0.45561039E+03</rscale>
<asrwt>0</asrwt>
<pdfrwt beam="1">  1        2 0.52103615E+00 0.45561039E+03</pdfrwt>
<pdfrwt beam="2">  1       -2 0.20326533E-02 0.45561039E+03</pdfrwt>
<totfact> 0.88016419E+02</totfact>
</mgrwt>
</event>
<event>
 4    1  0.5387486E-005  0.6282168E+03  0.7818608E-02  0.9848535E-01
         -2   -1    0    0    0  501 -0.00000000000E+00  0.00000000000E+00  0.15919480248E+03  0.15919480250E+03  0.25500000000E-02 0. -1.
          2   -1    0    0  501    0  0.00000000000E+00 -0.00000000000E+00 -0.61976956232E+03  0.61976956233E+03  0.25500000000E-02 0.  1.
    5000001    1    1    2    0    0 -0.24432600402E+03  0.93788452918E+02 -0.29760736230E+03  0.42928616591E+03  0.16500000000E+03 0.  0.
   -5000001    1    1    2    0    0  0.24432600402E+03 -0.93788452918E+02 -0.16296739754E+03  0.34967819892E+03  0.16500000000E+03 0.  0.
<mgrwt>
<rscale>  0 0.62821682E+03</rscale>
<asrwt>0</asrwt>
<pdfrwt beam="1">  1        2 0.88538508E-01 0.62821682E+03</pdfrwt>
<pdfrwt beam="2">  1       -2 0.22742115E-01 0.62821682E+03</pdfrwt>
<totfact> 0.88957235E+02</totfact>
</mgrwt>
</event>
<event>
 4    1  0.5387486E-005  0.5226009E+03  0.7818608E-02  0.1008042E+00
          2   -1    0    0  501    0  0.00000000000E+00  0.00000000000E+00  0.39727052130E+04  0.39727052130E+04  0.25500000000E-02 0.  1.
         -2   -1    0    0    0  501 -0.00000000000E+00 -0.00000000000E+00 -0.17186760328E+02  0.17186760517E+02  0.25500000000E-02 0. -1.
    5000001    1    1    2    0    0  0.94964287611E+02  0.74184864927E+01  0.61245939595E+03  0.64140842024E+03  0.16500000000E+03 0.  0.
   -5000001    1    1    2    0    0 -0.94964287611E+02 -0.74184864927E+01  0.33430590567E+04  0.33484835532E+04  0.16500000000E+03 0.  0.
<mgrwt>
<rscale>  0 0.52260093E+03</rscale>
<asrwt>0</asrwt>
<pdfrwt beam="1">  1        2 0.56752991E+00 0.52260093E+03</pdfrwt>
<pdfrwt beam="2">  1       -2 0.24552489E-02 0.52260093E+03</pdfrwt>
<totfact> 0.40882137E+02</totfact>
</mgrwt>
</event>
<event>
 4    1  0.5387486E-005  0.6178506E+03  0.7818608E-02  0.9869048E-01
          2   -1    0    0  501    0  0.00000000000E+00  0.00000000000E+00  0.38259056382E+03  0.38259056383E+03  0.25500000000E-02 0.  1.
         -2   -1    0    0    0  501 -0.00000000000E+00 -0.00000000000E+00 -0.24944380225E+03  0.24944380227E+03  0.25500000000E-02 0. -1.
    5000001    1    1    2    0    0  0.13468117142E+03  0.15058272892E+02 -0.16180972975E+03  0.26790512903E+03  0.16500000000E+03 0.  0.
   -5000001    1    1    2    0    0 -0.13468117142E+03 -0.15058272892E+02  0.29495649132E+03  0.36412923707E+03  0.16500000000E+03 0.  0.
<mgrwt>
<rscale>  0 0.61785061E+03</rscale>
<asrwt>0</asrwt>
<pdfrwt beam="1">  1        2 0.54655795E-01 0.61785061E+03</pdfrwt>
<pdfrwt beam="2">  1       -2 0.35634829E-01 0.61785061E+03</pdfrwt>
<totfact> 0.67634771E+02</totfact>
</mgrwt>
</event>
<event>
 4    1  0.5387486E-005  0.4974820E+03  0.7818608E-02  0.1014438E+00
         -2   -1    0    0    0  501 -0.00000000000E+00  0.00000000000E+00  0.27229045611E+03  0.27229045613E+03  0.25500000000E-02 0. -1.
          2   -1    0    0  501    0  0.00000000000E+00 -0.00000000000E+00 -0.22722821709E+03  0.22722821711E+03  0.25500000000E-02 0.  1.
    5000001    1    1    2    0    0  0.17641301040E+03 -0.48643424216E+02 -0.11657389595E+02  0.24667514607E+03  0.16500000000E+03 0.  0.
   -5000001    1    1    2    0    0 -0.17641301040E+03  0.48643424216E+02  0.56719628617E+02  0.25284352716E+03  0.16500000000E+03 0.  0.
<mgrwt>
<rscale>  0 0.49748196E+03</rscale>
<asrwt>0</asrwt>
<pdfrwt beam="1">  1        2 0.32461174E-01 0.49748196E+03</pdfrwt>
<pdfrwt beam="2">  1       -2 0.38898637E-01 0.49748196E+03</pdfrwt>
<totfact> 0.10181094E+03</totfact>
</mgrwt>
</event>
<event>
 4    1  0.5387486E-005  0.5564768E+03  0.7818608E-02  0.1000006E+00
         -2   -1    0    0    0  501 -0.00000000000E+00  0.00000000000E+00  0.23352333816E+02  0.23352333956E+02  0.25500000000E-02 0. -1.
          2   -1    0    0  501    0  0.00000000000E+00 -0.00000000000E+00 -0.33151555131E+04  0.33151555131E+04  0.25500000000E-02 0.  1.
    5000001    1    1    2    0    0 -0.18483264467E+03 -0.16788608106E+02 -0.89306718746E+03  0.92695143628E+03  0.16500000000E+03 0.  0.
   -5000001    1    1    2    0    0  0.18483264467E+03  0.16788608106E+02 -0.23987359918E+04  0.24115564107E+04  0.16500000000E+03 0.  0.
<mgrwt>
<rscale>  0 0.55647684E+03</rscale>
<asrwt>0</asrwt>
<pdfrwt beam="1">  1        2 0.47359334E+00 0.55647684E+03</pdfrwt>
<pdfrwt beam="2">  1       -2 0.33360498E-02 0.55647684E+03</pdfrwt>
<totfact> 0.64641165E+02</totfact>
</mgrwt>
</event>
<event>
 4    1  0.5387486E-005  0.6011769E+03  0.7818608E-02  0.9902967E-01
         -2   -1    0    0    0  501 -0.00000000000E+00  0.00000000000E+00  0.83450486116E+02  0.83450486155E+02  0.25500000000E-02 0. -1.
          2   -1    0    0  501    0  0.00000000000E+00 -0.00000000000E+00 -0.10827187430E+04  0.10827187430E+04  0.25500000000E-02 0.  1.
    5000001    1    1    2    0    0  0.24441722438E+03 -0.36954051791E+02 -0.41238525459E+03  0.50832271218E+03  0.16500000000E+03 0.  0.
   -5000001    1    1    2    0    0 -0.24441722438E+03  0.36954051791E+02 -0.58688300233E+03  0.65784651701E+03  0.16500000000E+03 0.  0.
<mgrwt>
<rscale>  0 0.60117686E+03</rscale>
<asrwt>0</asrwt>
<pdfrwt beam="1">  1        2 0.15467410E+00 0.60117686E+03</pdfrwt>
<pdfrwt beam="2">  1       -2 0.11921499E-01 0.60117686E+03</pdfrwt>
<totfact> 0.12947005E+03</totfact>
</mgrwt>
</event>
<event>
 4    1  0.5387486E-005  0.7202794E+03  0.7818608E-02  0.9683167E-01
         -2   -1    0    0    0  501 -0.00000000000E+00  0.00000000000E+00  0.11325450848E+03  0.11325450851E+03  0.25500000000E-02 0. -1.
          2   -1    0    0  501    0  0.00000000000E+00 -0.00000000000E+00 -0.11452136968E+04  0.11452136968E+04  0.25500000000E-02 0.  1.
    5000001    1    1    2    0    0 -0.29971590392E+03  0.11240419714E+03 -0.51010949911E+03  0.62442055354E+03  0.16500000000E+03 0.  0.
   -5000001    1    1    2    0    0  0.29971590392E+03 -0.11240419714E+03 -0.52184968923E+03  0.63404765180E+03  0.16500000000E+03 0.  0.
<mgrwt>
<rscale>  0 0.72027943E+03</rscale>
<asrwt>0</asrwt>
<pdfrwt beam="1">  1        2 0.16360195E+00 0.72027943E+03</pdfrwt>
<pdfrwt beam="2">  1       -2 0.16179216E-01 0.72027943E+03</pdfrwt>
<totfact> 0.71177892E+02</totfact>
</mgrwt>
</event>
<event>
 4    1  0.5387486E-005  0.8311949E+03  0.7818608E-02  0.9515930E-01
         -2   -1    0    0    0  501 -0.00000000000E+00  0.00000000000E+00  0.94841719185E+02  0.94841719219E+02  0.25500000000E-02 0. -1.
          2   -1    0    0  501    0  0.00000000000E+00 -0.00000000000E+00 -0.18211524861E+04  0.18211524861E+04  0.25500000000E-02 0.  1.
    5000001    1    1    2    0    0  0.23486900427E+03  0.41563971311E+02 -0.17700235442E+03  0.33977322783E+03  0.16500000000E+03 0.  0.
   -5000001    1    1    2    0    0 -0.23486900427E+03 -0.41563971311E+02 -0.15493084125E+04  0.15762209775E+04  0.16500000000E+03 0.  0.
<mgrwt>
<rscale>  0 0.83119488E+03</rscale>
<asrwt>0</asrwt>
<pdfrwt beam="1">  1        2 0.26016462E+00 0.83119488E+03</pdfrwt>
<pdfrwt beam="2">  1       -2 0.13548818E-01 0.83119488E+03</pdfrwt>
<totfact> 0.41716508E+02</totfact>
</mgrwt>
</event>
<event>
 4    1  0.5387486E-005  0.3683279E+03  0.7818608E-02  0.1055334E+00
          2   -1    0    0  501    0  0.00000000000E+00  0.00000000000E+00  0.13505268703E+04  0.13505268703E+04  0.25500000000E-02 0.  1.
         -2   -1    0    0    0  501 -0.00000000000E+00 -0.00000000000E+00 -0.25113423975E+02  0.25113424105E+02  0.25500000000E-02 0. -1.
    5000001    1    1    2    0    0 -0.38351687911E+02  0.66730240929E+02  0.55923271391E+03  0.58812414109E+03  0.16500000000E+03 0.  0.
   -5000001    1    1    2    0    0  0.38351687911E+02 -0.66730240929E+02  0.76618073244E+03  0.78751615335E+03  0.16500000000E+03 0.  0.
<mgrwt>
<rscale>  0 0.36832786E+03</rscale>
<asrwt>0</asrwt>
<pdfrwt beam="1">  1        2 0.19293242E+00 0.36832786E+03</pdfrwt>
<pdfrwt beam="2">  1       -2 0.35876318E-02 0.36832786E+03</pdfrwt>
<totfact> 0.60597611E+03</totfact>
</mgrwt>
</event>
<event>
 4    1  0.5387486E-005  0.5811985E+03  0.7818608E-02  0.9945200E-01
         -2   -1    0    0    0  501 -0.00000000000E+00  0.00000000000E+00  0.23633106184E+03  0.23633106186E+03  0.25500000000E-02 0. -1.
          2   -1    0    0  501    0  0.00000000000E+00 -0.00000000000E+00 -0.35732893280E+03  0.35732893281E+03  0.25500000000E-02 0.  1.
    5000001    1    1    2    0    0  0.15861958227E+03  0.12613905299E+03 -0.19031317304E+03  0.32328831776E+03  0.16500000000E+03 0.  0.
   -5000001    1    1    2    0    0 -0.15861958227E+03 -0.12613905299E+03  0.69315302082E+02  0.27037167690E+03  0.16500000000E+03 0.  0.
<mgrwt>
<rscale>  0 0.58119851E+03</rscale>
<asrwt>0</asrwt>
<pdfrwt beam="1">  1        2 0.51046990E-01 0.58119851E+03</pdfrwt>
<pdfrwt beam="2">  1       -2 0.33761580E-01 0.58119851E+03</pdfrwt>
<totfact> 0.80839327E+02</totfact>
</mgrwt>
</event>
<event>
 4    1  0.5387486E-005  0.7216004E+03  0.7818608E-02  0.9680989E-01
         -2   -1    0    0    0  501 -0.00000000000E+00  0.00000000000E+00  0.14803366253E+03  0.14803366255E+03  0.25500000000E-02 0. -1.
          2   -1    0    0  501    0  0.00000000000E+00 -0.00000000000E+00 -0.87937276254E+03  0.87937276254E+03  0.25500000000E-02 0.  1.
    5000001    1    1    2    0    0  0.29330020883E+03  0.68815934146E+02 -0.20846415888E+03  0.40179964016E+03  0.16500000000E+03 0.  0.
   -5000001    1    1    2    0    0 -0.29330020883E+03 -0.68815934146E+02 -0.52287494113E+03  0.62560678493E+03  0.16500000000E+03 0.  0.
<mgrwt>
<rscale>  0 0.72160036E+03</rscale>
<asrwt>0</asrwt>
<pdfrwt beam="1">  1        2 0.12562468E+00 0.72160036E+03</pdfrwt>
<pdfrwt beam="2">  1       -2 0.21147667E-01 0.72160036E+03</pdfrwt>
<totfact> 0.65115040E+02</totfact>
</mgrwt>
</event>
<event>
 4    1  0.5387486E-005  0.5942032E+03  0.7818608E-02  0.9917506E-01
          2   -1    0    0  501    0  0.00000000000E+00  0.00000000000E+00  0.11774289024E+04  0.11774289024E+04  0.25500000000E-02 0.  1.
         -2   -1    0    0    0  501 -0.00000000000E+00 -0.00000000000E+00 -0.74967895273E+02  0.74967895316E+02  0.25500000000E-02 0. -1.
    5000001    1    1    2    0    0 -0.16807858505E+03 -0.42240152973E+02  0.18007499742E+03  0.29947728790E+03  0.16500000000E+03 0.  0.
   -5000001    1    1    2    0    0  0.16807858505E+03  0.42240152973E+02  0.92238600971E+03  0.95291950982E+03  0.16500000000E+03 0.  0.
<mgrwt>
<rscale>  0 0.59420322E+03</rscale>
<asrwt>0</asrwt>
<pdfrwt beam="1">  1        2 0.16820411E+00 0.59420322E+03</pdfrwt>
<pdfrwt beam="2">  1       -2 0.10709700E-01 0.59420322E+03</pdfrwt>
<totfact> 0.13614939E+03</totfact>
</mgrwt>
</event>
<event>
 4    1  0.5387486E-005  0.4777349E+03  0.7818608E-02  0.1019760E+00
          2   -1    0    0  501    0  0.00000000000E+00  0.00000000000E+00  0.39620097603E+02  0.39620097685E+02  0.25500000000E-02 0.  1.
         -2   -1    0    0    0  501 -0.00000000000E+00 -0.00000000000E+00 -0.14401188590E+04  0.14401188590E+04  0.25500000000E-02 0. -1.
    5000001    1    1    2    0    0 -0.14403811232E+03  0.81140590102E+02 -0.85517781046E+03  0.88650147246E+03  0.16500000000E+03 0.  0.
   -5000001    1    1    2    0    0  0.14403811232E+03 -0.81140590102E+02 -0.54532095090E+03  0.59323748420E+03  0.16500000000E+03 0.  0.
<mgrwt>
<rscale>  0 0.47773486E+03</rscale>
<asrwt>0</asrwt>
<pdfrwt beam="1">  1        2 0.56600148E-02 0.47773486E+03</pdfrwt>
<pdfrwt beam="2">  1       -2 0.20573123E+00 0.47773486E+03</pdfrwt>
<totfact> 0.17597687E+02</totfact>
</mgrwt>
</event>
<event>
 4    1  0.5387486E-005  0.3618430E+03  0.7818608E-02  0.1057856E+00
          2   -1    0    0  501    0  0.00000000000E+00  0.00000000000E+00  0.27191323594E+03  0.27191323595E+03  0.25500000000E-02 0.  1.
         -2   -1    0    0    0  501 -0.00000000000E+00 -0.00000000000E+00 -0.12037879466E+03  0.12037879468E+03  0.25500000000E-02 0. -1.
    5000001    1    1    2    0    0 -0.40272140202E+02  0.48826166450E+02  0.33753821322E+02  0.17991709274E+03  0.16500000000E+03 0.  0.
   -5000001    1    1    2    0    0  0.40272140202E+02 -0.48826166450E+02  0.11778061996E+03  0.21237493789E+03  0.16500000000E+03 0.  0.
<mgrwt>
<rscale>  0 0.36184299E+03</rscale>
<asrwt>0</asrwt>
<pdfrwt beam="1">  1        2 0.38844748E-01 0.36184299E+03</pdfrwt>
<pdfrwt beam="2">  1       -2 0.17196971E-01 0.36184299E+03</pdfrwt>
<totfact> 0.36072769E+03</totfact>
</mgrwt>
</event>
<event>
 4    1  0.5387486E-005  0.6875079E+03  0.7818608E-02  0.9738837E-01
         -2   -1    0    0    0  501 -0.00000000000E+00  0.00000000000E+00  0.40573379427E+02  0.40573379507E+02  0.25500000000E-02 0. -1.
          2   -1    0    0  501    0  0.00000000000E+00 -0.00000000000E+00 -0.29124217478E+04  0.29124217478E+04  0.25500000000E-02 0.  1.
    5000001    1    1    2    0    0  0.17216214030E+03 -0.10409075114E+03 -0.24008395224E+04  0.24148975339E+04  0.16500000000E+03 0.  0.
   -5000001    1    1    2    0    0 -0.17216214030E+03  0.10409075114E+03 -0.47100884599E+03  0.53809759340E+03  0.16500000000E+03 0.  0.
<mgrwt>
<rscale>  0 0.68750794E+03</rscale>
<asrwt>0</asrwt>
<pdfrwt beam="1">  1        2 0.41606012E+00 0.68750794E+03</pdfrwt>
<pdfrwt beam="2">  1       -2 0.57961989E-02 0.68750794E+03</pdfrwt>
<totfact> 0.45469408E+02</totfact>
</mgrwt>
</event>
<event>
 4    1  0.5387486E-005  0.4884515E+03  0.7818608E-02  0.1016838E+00
          2   -1    0    0  501    0  0.00000000000E+00  0.00000000000E+00  0.83332214640E+03  0.83332214640E+03  0.25500000000E-02 0.  1.
         -2   -1    0    0    0  501 -0.00000000000E+00 -0.00000000000E+00 -0.71576418897E+02  0.71576418942E+02  0.25500000000E-02 0. -1.
    5000001    1    1    2    0    0  0.94485800169E+02  0.13322266839E+03  0.24045012745E+03  0.33424109502E+03  0.16500000000E+03 0.  0.
   -5000001    1    1    2    0    0 -0.94485800169E+02 -0.13322266839E+03  0.52129560005E+03  0.57065747032E+03  0.16500000000E+03 0.  0.
<mgrwt>
<rscale>  0 0.48845149E+03</rscale>
<asrwt>0</asrwt>
<pdfrwt beam="1">  1        2 0.11904602E+00 0.48845149E+03</pdfrwt>
<pdfrwt beam="2">  1       -2 0.10225203E-01 0.48845149E+03</pdfrwt>
<totfact> 0.23816274E+03</totfact>
</mgrwt>
</event>
<event>
 4    1  0.5387486E-005  0.7786060E+03  0.7818608E-02  0.9591511E-01
         -2   -1    0    0    0  501 -0.00000000000E+00  0.00000000000E+00  0.33147956284E+03  0.33147956285E+03  0.25500000000E-02 0. -1.
          2   -1    0    0  501    0  0.00000000000E+00 -0.00000000000E+00 -0.45721319127E+03  0.45721319128E+03  0.25500000000E-02 0.  1.
    5000001    1    1    2    0    0  0.91709681766E+02 -0.28811943759E+03  0.12088988130E+03  0.36505183118E+03  0.16500000000E+03 0.  0.
   -5000001    1    1    2    0    0 -0.91709681766E+02  0.28811943759E+03 -0.24662350972E+03  0.42364092295E+03  0.16500000000E+03 0.  0.
<mgrwt>
<rscale>  0 0.77860601E+03</rscale>
<asrwt>0</asrwt>
<pdfrwt beam="1">  1        2 0.65316171E-01 0.77860601E+03</pdfrwt>
<pdfrwt beam="2">  1       -2 0.47354223E-01 0.77860601E+03</pdfrwt>
<totfact> 0.31635968E+02</totfact>
</mgrwt>
</event>
<event>
 4    1  0.5387486E-005  0.3778219E+03  0.7818608E-02  0.1051742E+00
          2   -1    0    0  501    0  0.00000000000E+00  0.00000000000E+00  0.38272248233E+04  0.38272248233E+04  0.25500000000E-02 0.  1.
         -2   -1    0    0    0  501 -0.00000000000E+00 -0.00000000000E+00 -0.93246025692E+01  0.93246029179E+01  0.25500000000E-02 0. -1.
    5000001    1    1    2    0    0  0.80061963282E+02 -0.23918686724E+02  0.15182596117E+04  0.15294833343E+04  0.16500000000E+03 0.  0.
   -5000001    1    1    2    0    0 -0.80061963282E+02  0.23918686724E+02  0.22996406090E+04  0.23070660919E+04  0.16500000000E+03 0.  0.
<mgrwt>
<rscale>  0 0.37782192E+03</rscale>
<asrwt>0</asrwt>
<pdfrwt beam="1">  1        2 0.54674634E+00 0.37782192E+03</pdfrwt>
<pdfrwt beam="2">  1       -2 0.13320863E-02 0.37782192E+03</pdfrwt>
<totfact> 0.12881515E+03</totfact>
</mgrwt>
</event>
<event>
 4    1  0.5387486E-005  0.9616998E+03  0.7818608E-02  0.9351579E-01
          2   -1    0    0  501    0  0.00000000000E+00  0.00000000000E+00  0.25547019145E+04  0.25547019145E+04  0.25500000000E-02 0.  1.
         -2   -1    0    0    0  501 -0.00000000000E+00 -0.00000000000E+00 -0.90506308505E+02  0.90506308541E+02  0.25500000000E-02 0. -1.
    5000001    1    1    2    0    0  0.11475011178E+03 -0.42988092667E+03  0.10185718060E+04  0.11236897807E+04  0.16500000000E+03 0.  0.
   -5000001    1    1    2    0    0 -0.11475011178E+03  0.42988092667E+03  0.14456238000E+04  0.15215184424E+04  0.16500000000E+03 0.  0.
<mgrwt>
<rscale>  0 0.96169983E+03</rscale>
<asrwt>0</asrwt>
<pdfrwt beam="1">  1        2 0.36495739E+00 0.96169983E+03</pdfrwt>
<pdfrwt beam="2">  1       -2 0.12929474E-01 0.96169983E+03</pdfrwt>
<totfact> 0.18819600E+02</totfact>
</mgrwt>
</event>
<event>
 4    1  0.5387486E-005  0.5808165E+03  0.7818608E-02  0.9946025E-01
         -2   -1    0    0    0  501 -0.00000000000E+00  0.00000000000E+00  0.13757344701E+03  0.13757344704E+03  0.25500000000E-02 0. -1.
          2   -1    0    0  501    0  0.00000000000E+00 -0.00000000000E+00 -0.61303224446E+03  0.61303224447E+03  0.25500000000E-02 0.  1.
    5000001    1    1    2    0    0 -0.18821676053E+03  0.14566325844E+03 -0.26570540462E+03  0.39302378535E+03  0.16500000000E+03 0.  0.
   -5000001    1    1    2    0    0  0.18821676053E+03 -0.14566325844E+03 -0.20975339283E+03  0.35758190616E+03  0.16500000000E+03 0.  0.
<mgrwt>
<rscale>  0 0.58081653E+03</rscale>
<asrwt>0</asrwt>
<pdfrwt beam="1">  1        2 0.87576034E-01 0.58081653E+03</pdfrwt>
<pdfrwt beam="2">  1       -2 0.19653350E-01 0.58081653E+03</pdfrwt>
<totfact> 0.11650069E+03</totfact>
</mgrwt>
</event>
<event>
 4    1  0.5387486E-005  0.4489199E+03  0.7818608E-02  0.1028045E+00
         -2   -1    0    0    0  501 -0.00000000000E+00  0.00000000000E+00  0.53380847646E+02  0.53380847707E+02  0.25500000000E-02 0. -1.
          2   -1    0    0  501    0  0.00000000000E+00 -0.00000000000E+00 -0.94382655330E+03  0.94382655331E+03  0.25500000000E-02 0.  1.
    5000001    1    1    2    0    0 -0.12741855691E+03  0.12090058753E+02 -0.26237466754E+03  0.33533136497E+03  0.16500000000E+03 0.  0.
   -5000001    1    1    2    0    0  0.12741855691E+03 -0.12090058753E+02 -0.62807103812E+03  0.66187603605E+03  0.16500000000E+03 0.  0.
<mgrwt>
<rscale>  0 0.44891987E+03</rscale>
<asrwt>0</asrwt>
<pdfrwt beam="1">  1        2 0.13483235E+00 0.44891987E+03</pdfrwt>
<pdfrwt beam="2">  1       -2 0.76258360E-02 0.44891987E+03</pdfrwt>
<totfact> 0.32267413E+03</totfact>
</mgrwt>
</event>
<event>
 4    1  0.5387486E-005  0.8600441E+03  0.7818608E-02  0.9476954E-01
         -2   -1    0    0    0  501 -0.00000000000E+00  0.00000000000E+00  0.15790091017E+03  0.15790091019E+03  0.25500000000E-02 0. -1.
          2   -1    0    0  501    0  0.00000000000E+00 -0.00000000000E+00 -0.11711075816E+04  0.11711075816E+04  0.25500000000E-02 0.  1.
    5000001    1    1    2    0    0  0.14478284020E+03 -0.24774763640E+03 -0.82416394212E+02  0.34111350632E+03  0.16500000000E+03 0.  0.
   -5000001    1    1    2    0    0 -0.14478284020E+03  0.24774763640E+03 -0.93079027726E+03  0.98789498551E+03  0.16500000000E+03 0.  0.
<mgrwt>
<rscale>  0 0.86004408E+03</rscale>
<asrwt>0</asrwt>
<pdfrwt beam="1">  1        2 0.16730108E+00 0.86004408E+03</pdfrwt>
<pdfrwt beam="2">  1       -2 0.22557274E-01 0.86004408E+03</pdfrwt>
<totfact> 0.38343954E+02</totfact>
</mgrwt>
</event>
<event>
 4    1  0.5387486E-005  0.4241384E+03  0.7818608E-02  0.1035728E+00
          2   -1    0    0  501    0  0.00000000000E+00  0.00000000000E+00  0.22330507228E+03  0.22330507230E+03  0.25500000000E-02 0.  1.
         -2   -1    0    0    0  501 -0.00000000000E+00 -0.00000000000E+00 -0.20139869535E+03  0.20139869536E+03  0.25500000000E-02 0. -1.
    5000001    1    1    2    0    0 -0.95971937933E+02  0.92010989917E+02  0.19432952691E+02  0.21278927319E+03  0.16500000000E+03 0.  0.
   -5000001    1    1    2    0    0  0.95971937933E+02 -0.92010989917E+02  0.24734242440E+01  0.21191449446E+03  0.16500000000E+03 0.  0.
<mgrwt>
<rscale>  0 0.42413842E+03</rscale>
<asrwt>0</asrwt>
<pdfrwt beam="1">  1        2 0.31900725E-01 0.42413842E+03</pdfrwt>
<pdfrwt beam="2">  1       -2 0.28771242E-01 0.42413842E+03</pdfrwt>
<totfact> 0.18232607E+03</totfact>
</mgrwt>
</event>
<event>
 4    1  0.5387486E-005  0.5974665E+03  0.7818608E-02  0.9910676E-01
         -2   -1    0    0    0  501 -0.00000000000E+00  0.00000000000E+00  0.53865931586E+02  0.53865931647E+02  0.25500000000E-02 0. -1.
          2   -1    0    0  501    0  0.00000000000E+00 -0.00000000000E+00 -0.16567348427E+04  0.16567348427E+04  0.25500000000E-02 0.  1.
    5000001    1    1    2    0    0 -0.21321507022E+03  0.12583219046E+03 -0.87837435562E+03  0.92739469210E+03  0.16500000000E+03 0.  0.
   -5000001    1    1    2    0    0  0.21321507022E+03 -0.12583219046E+03 -0.72449455547E+03  0.78320608223E+03  0.16500000000E+03 0.  0.
<mgrwt>
<rscale>  0 0.59746654E+03</rscale>
<asrwt>0</asrwt>
<pdfrwt beam="1">  1        2 0.23667637E+00 0.59746654E+03</pdfrwt>
<pdfrwt beam="2">  1       -2 0.76951341E-02 0.59746654E+03</pdfrwt>
<totfact> 0.12882260E+03</totfact>
</mgrwt>
</event>
<event>
 4    1  0.5387486E-005  0.8638370E+03  0.7818608E-02  0.9471951E-01
         -2   -1    0    0    0  501 -0.00000000000E+00  0.00000000000E+00  0.25440520944E+03  0.25440520945E+03  0.25500000000E-02 0. -1.
          2   -1    0    0  501    0  0.00000000000E+00 -0.00000000000E+00 -0.73329308740E+03  0.73329308740E+03  0.25500000000E-02 0.  1.
    5000001    1    1    2    0    0  0.35301182058E+03 -0.16035054249E+03 -0.13097929858E+03  0.44125980850E+03  0.16500000000E+03 0.  0.
   -5000001    1    1    2    0    0 -0.35301182058E+03  0.16035054249E+03 -0.34790857938E+03  0.54643848835E+03  0.16500000000E+03 0.  0.
<mgrwt>
<rscale>  0 0.86383698E+03</rscale>
<asrwt>0</asrwt>
<pdfrwt beam="1">  1        2 0.10475615E+00 0.86383698E+03</pdfrwt>
<pdfrwt beam="2">  1       -2 0.36343602E-01 0.86383698E+03</pdfrwt>
<totfact> 0.30327974E+02</totfact>
</mgrwt>
</event>
<event>
 4    1  0.5387486E-005  0.6250169E+03  0.7818608E-02  0.9854821E-01
          2   -1    0    0  501    0  0.00000000000E+00  0.00000000000E+00  0.17287443666E+04  0.17287443666E+04  0.25500000000E-02 0.  1.
         -2   -1    0    0    0  501 -0.00000000000E+00 -0.00000000000E+00 -0.56492754218E+02  0.56492754276E+02  0.25500000000E-02 0. -1.
    5000001    1    1    2    0    0 -0.22345055343E+03  0.52105617949E+02  0.45513979177E+03  0.53574469228E+03  0.16500000000E+03 0.  0.
   -5000001    1    1    2    0    0  0.22345055343E+03 -0.52105617949E+02  0.12171118206E+04  0.12494924286E+04  0.16500000000E+03 0.  0.
<mgrwt>
<rscale>  0 0.62501690E+03</rscale>
<asrwt>0</asrwt>
<pdfrwt beam="1">  1        2 0.24696343E+00 0.62501690E+03</pdfrwt>
<pdfrwt beam="2">  1       -2 0.80703952E-02 0.62501690E+03</pdfrwt>
<totfact> 0.10961014E+03</totfact>
</mgrwt>
</event>
<event>
 4    1  0.5387486E-005  0.4402853E+03  0.7818608E-02  0.1030659E+00
          2   -1    0    0  501    0  0.00000000000E+00  0.00000000000E+00  0.32327362706E+04  0.32327362706E+04  0.25500000000E-02 0.  1.
         -2   -1    0    0    0  501 -0.00000000000E+00 -0.00000000000E+00 -0.14991259889E+02  0.14991260106E+02  0.25500000000E-02 0. -1.
    5000001    1    1    2    0    0  0.48512981956E+02  0.13713353544E+03  0.16743000984E+04  0.16886873410E+04  0.16500000000E+03 0.  0.
   -5000001    1    1    2    0    0 -0.48512981956E+02 -0.13713353544E+03  0.15434449123E+04  0.15590401897E+04  0.16500000000E+03 0.  0.
<mgrwt>
<rscale>  0 0.44028532E+03</rscale>
<asrwt>0</asrwt>
<pdfrwt beam="1">  1        2 0.46181935E+00 0.44028532E+03</pdfrwt>
<pdfrwt beam="2">  1       -2 0.21416091E-02 0.44028532E+03</pdfrwt>
<totfact> 0.14217081E+03</totfact>
</mgrwt>
</event>
<event>
 4    1  0.5387486E-005  0.4432611E+03  0.7818608E-02  0.1029751E+00
         -2   -1    0    0    0  501 -0.00000000000E+00  0.00000000000E+00  0.35246816284E+02  0.35246816376E+02  0.25500000000E-02 0. -1.
          2   -1    0    0  501    0  0.00000000000E+00 -0.00000000000E+00 -0.13936040522E+04  0.13936040522E+04  0.25500000000E-02 0.  1.
    5000001    1    1    2    0    0 -0.10377545140E+03 -0.43508451113E+01 -0.33945764516E+03  0.39146489884E+03  0.16500000000E+03 0.  0.
   -5000001    1    1    2    0    0  0.10377545140E+03  0.43508451113E+01 -0.10188995908E+04  0.10373859697E+04  0.16500000000E+03 0.  0.
<mgrwt>
<rscale>  0 0.44326112E+03</rscale>
<asrwt>0</asrwt>
<pdfrwt beam="1">  1        2 0.19908626E+00 0.44326112E+03</pdfrwt>
<pdfrwt beam="2">  1       -2 0.50352604E-02 0.44326112E+03</pdfrwt>
<totfact> 0.34335013E+03</totfact>
</mgrwt>
</event>
<event>
 4    1  0.5387486E-005  0.3810173E+03  0.7818608E-02  0.1050558E+00
          2   -1    0    0  501    0  0.00000000000E+00  0.00000000000E+00  0.39635668547E+04  0.39635668547E+04  0.25500000000E-02 0.  1.
         -2   -1    0    0    0  501 -0.00000000000E+00 -0.00000000000E+00 -0.91567885133E+01  0.91567888684E+01  0.25500000000E-02 0. -1.
    5000001    1    1    2    0    0 -0.90582711186E+02 -0.26952681411E+02  0.20991874106E+04  0.21077818813E+04  0.16500000000E+03 0.  0.
   -5000001    1    1    2    0    0  0.90582711186E+02  0.26952681411E+02  0.18552226556E+04  0.18649417622E+04  0.16500000000E+03 0.  0.
<mgrwt>
<rscale>  0 0.38101729E+03</rscale>
<asrwt>0</asrwt>
<pdfrwt beam="1">  1        2 0.56622484E+00 0.38101729E+03</pdfrwt>
<pdfrwt beam="2">  1       -2 0.13081103E-02 0.38101729E+03</pdfrwt>
<totfact> 0.10814083E+03</totfact>
</mgrwt>
</event>
<event>
 4    1  0.5387486E-005  0.5338949E+03  0.7818608E-02  0.1005292E+00
         -2   -1    0    0    0  501 -0.00000000000E+00  0.00000000000E+00  0.26043697250E+02  0.26043697374E+02  0.25500000000E-02 0.  1.
          2   -1    0    0  501    0  0.00000000000E+00 -0.00000000000E+00 -0.27362068056E+04  0.27362068056E+04  0.25500000000E-02 0. -1.
    5000001    1    1    2    0    0  0.15848846756E+03 -0.11780353641E+03 -0.17223710613E+04  0.17414888287E+04  0.16500000000E+03 0.  0.
   -5000001    1    1    2    0    0 -0.15848846756E+03  0.11780353641E+03 -0.98779204708E+03  0.10207616743E+04  0.16500000000E+03 0.  0.
<mgrwt>
<rscale>  0 0.53389490E+03</rscale>
<asrwt>0</asrwt>
<pdfrwt beam="1">  1        2 0.39088650E+00 0.53389490E+03</pdfrwt>
<pdfrwt beam="2">  1       -2 0.37205299E-02 0.53389490E+03</pdfrwt>
<totfact> 0.11350789E+03</totfact>
</mgrwt>
</event>
<event>
 4    1  0.5387486E-005  0.4537195E+03  0.7818608E-02  0.1026619E+00
         -2   -1    0    0    0  501 -0.00000000000E+00  0.00000000000E+00  0.34602225109E+02  0.34602225203E+02  0.25500000000E-02 0. -1.
          2   -1    0    0  501    0  0.00000000000E+00 -0.00000000000E+00 -0.14873423330E+04  0.14873423330E+04  0.25500000000E-02 0.  1.
    5000001    1    1    2    0    0  0.12778316143E+03 -0.85446566374E+02 -0.64347547859E+03  0.68184700894E+03  0.16500000000E+03 0.  0.
   -5000001    1    1    2    0    0 -0.12778316143E+03  0.85446566374E+02 -0.80926462934E+03  0.84009754931E+03  0.16500000000E+03 0.  0.
<mgrwt>
<rscale>  0 0.45371954E+03</rscale>
<asrwt>0</asrwt>
<pdfrwt beam="1">  1        2 0.21247744E+00 0.45371954E+03</pdfrwt>
<pdfrwt beam="2">  1       -2 0.49431760E-02 0.45371954E+03</pdfrwt>
<totfact> 0.31566257E+03</totfact>
</mgrwt>
</event>
<event>
 4    1  0.5387486E-005  0.3736611E+03  0.7818608E-02  0.1053302E+00
         -2   -1    0    0    0  501 -0.00000000000E+00  0.00000000000E+00  0.54345211697E+02  0.54345211756E+02  0.25500000000E-02 0. -1.
          2   -1    0    0  501    0  0.00000000000E+00 -0.00000000000E+00 -0.64229481268E+03  0.64229481269E+03  0.25500000000E-02 0.  1.
    5000001    1    1    2    0    0  0.62296614734E+02  0.14192387799E+02 -0.40581105439E+03  0.44270746994E+03  0.16500000000E+03 0.  0.
   -5000001    1    1    2    0    0 -0.62296614734E+02 -0.14192387799E+02 -0.18213854659E+03  0.25393255450E+03  0.16500000000E+03 0.  0.
<mgrwt>
<rscale>  0 0.37366106E+03</rscale>
<asrwt>0</asrwt>
<pdfrwt beam="1">  1        2 0.91756397E-01 0.37366106E+03</pdfrwt>
<pdfrwt beam="2">  1       -2 0.77636021E-02 0.37366106E+03</pdfrwt>
<totfact> 0.50669974E+03</totfact>
</mgrwt>
</event>
<event>
 4    1  0.5387486E-005  0.6827940E+03  0.7818608E-02  0.9747118E-01
         -2   -1    0    0    0  501 -0.00000000000E+00  0.00000000000E+00  0.14794926997E+03  0.14794926999E+03  0.25500000000E-02 0. -1.
          2   -1    0    0  501    0  0.00000000000E+00 -0.00000000000E+00 -0.78778304363E+03  0.78778304364E+03  0.25500000000E-02 0.  1.
    5000001    1    1    2    0    0 -0.12284531698E+03  0.26711386054E+03 -0.24629268718E+03  0.41752350132E+03  0.16500000000E+03 0.  0.
   -5000001    1    1    2    0    0  0.12284531698E+03 -0.26711386054E+03 -0.39354108648E+03  0.51820881230E+03  0.16500000000E+03 0.  0.
<mgrwt>
<rscale>  0 0.68279404E+03</rscale>
<asrwt>0</asrwt>
<pdfrwt beam="1">  1        2 0.11254043E+00 0.68279404E+03</pdfrwt>
<pdfrwt beam="2">  1       -2 0.21135610E-01 0.68279404E+03</pdfrwt>
<totfact> 0.75314360E+02</totfact>
</mgrwt>
</event>
<event>
 4    1  0.5387486E-005  0.3797357E+03  0.7818608E-02  0.1051031E+00
         -2   -1    0    0    0  501 -0.00000000000E+00  0.00000000000E+00  0.10428671841E+03  0.10428671844E+03  0.25500000000E-02 0. -1.
          2   -1    0    0  501    0  0.00000000000E+00 -0.00000000000E+00 -0.34567971293E+03  0.34567971294E+03  0.25500000000E-02 0.  1.
    5000001    1    1    2    0    0 -0.59253816870E+02  0.71093350964E+02 -0.10160732751E+03  0.21474246988E+03  0.16500000000E+03 0.  0.
   -5000001    1    1    2    0    0  0.59253816870E+02 -0.71093350964E+02 -0.13978566701E+03  0.23522396151E+03  0.16500000000E+03 0.  0.
<mgrwt>
<rscale>  0 0.37973571E+03</rscale>
<asrwt>0</asrwt>
<pdfrwt beam="1">  1        2 0.49382816E-01 0.37973571E+03</pdfrwt>
<pdfrwt beam="2">  1       -2 0.14898103E-01 0.37973571E+03</pdfrwt>
<totfact> 0.35377817E+03</totfact>
</mgrwt>
</event>
<event>
 4    1  0.5387486E-005  0.3739143E+03  0.7818608E-02  0.1053206E+00
          2   -1    0    0  501    0  0.00000000000E+00  0.00000000000E+00  0.39133858662E+03  0.39133858663E+03  0.25500000000E-02 0.  1.
         -2   -1    0    0    0  501 -0.00000000000E+00 -0.00000000000E+00 -0.89316474581E+02  0.89316474617E+02  0.25500000000E-02 0. -1.
    5000001    1    1    2    0    0 -0.34207274996E+02 -0.78558902253E+02  0.17627775878E+03  0.25620399495E+03  0.16500000000E+03 0.  0.
   -5000001    1    1    2    0    0  0.34207274996E+02  0.78558902253E+02  0.12574435325E+03  0.22445106629E+03  0.16500000000E+03 0.  0.
<mgrwt>
<rscale>  0 0.37391434E+03</rscale>
<asrwt>0</asrwt>
<pdfrwt beam="1">  1        2 0.55905513E-01 0.37391434E+03</pdfrwt>
<pdfrwt beam="2">  1       -2 0.12759496E-01 0.37391434E+03</pdfrwt>
<totfact> 0.39893077E+03</totfact>
</mgrwt>
</event>
<event>
 4    1  0.5387486E-005  0.5185258E+03  0.7818608E-02  0.1009053E+00
         -2   -1    0    0    0  501 -0.00000000000E+00  0.00000000000E+00  0.12994541975E+03  0.12994541978E+03  0.25500000000E-02 0. -1.
          2   -1    0    0  501    0  0.00000000000E+00 -0.00000000000E+00 -0.51727302419E+03  0.51727302420E+03  0.25500000000E-02 0.  1.
    5000001    1    1    2    0    0 -0.18725209405E+03 -0.30009135534E+02 -0.11444196492E+03  0.27619894691E+03  0.16500000000E+03 0.  0.
   -5000001    1    1    2    0    0  0.18725209405E+03  0.30009135534E+02 -0.27288563952E+03  0.37101949706E+03  0.16500000000E+03 0.  0.
<mgrwt>
<rscale>  0 0.51852583E+03</rscale>
<asrwt>0</asrwt>
<pdfrwt beam="1">  1        2 0.73896145E-01 0.51852583E+03</pdfrwt>
<pdfrwt beam="2">  1       -2 0.18563632E-01 0.51852583E+03</pdfrwt>
<totfact> 0.15656732E+03</totfact>
</mgrwt>
</event>
<event>
 4    1  0.5387486E-005  0.5452733E+03  0.7818608E-02  0.1002594E+00
         -2   -1    0    0    0  501 -0.00000000000E+00  0.00000000000E+00  0.11707967751E+03  0.11707967754E+03  0.25500000000E-02 0. -1.
          2   -1    0    0  501    0  0.00000000000E+00 -0.00000000000E+00 -0.63487315936E+03  0.63487315937E+03  0.25500000000E-02 0.  1.
    5000001    1    1    2    0    0 -0.10604824323E+03  0.18922224909E+03 -0.26907319694E+03  0.38298390926E+03  0.16500000000E+03 0.  0.
   -5000001    1    1    2    0    0  0.10604824323E+03 -0.18922224909E+03 -0.24872028491E+03  0.36896892765E+03  0.16500000000E+03 0.  0.
<mgrwt>
<rscale>  0 0.54527331E+03</rscale>
<asrwt>0</asrwt>
<pdfrwt beam="1">  1        2 0.90696164E-01 0.54527331E+03</pdfrwt>
<pdfrwt beam="2">  1       -2 0.16725669E-01 0.54527331E+03</pdfrwt>
<totfact> 0.14748914E+03</totfact>
</mgrwt>
</event>
<event>
 4    1  0.5387486E-005  0.7282414E+03  0.7818608E-02  0.9670118E-01
          2   -1    0    0  501    0  0.00000000000E+00  0.00000000000E+00  0.10386939324E+04  0.10386939324E+04  0.25500000000E-02 0.  1.
         -2   -1    0    0    0  501 -0.00000000000E+00 -0.00000000000E+00 -0.12764480076E+03  0.12764480079E+03  0.25500000000E-02 0. -1.
    5000001    1    1    2    0    0 -0.28206197141E+03 -0.13410365123E+03  0.59711873470E+03  0.69377123630E+03  0.16500000000E+03 0.  0.
   -5000001    1    1    2    0    0  0.28206197141E+03  0.13410365123E+03  0.31393039693E+03  0.47256749688E+03  0.16500000000E+03 0.  0.
<mgrwt>
<rscale>  0 0.72824139E+03</rscale>
<asrwt>0</asrwt>
<pdfrwt beam="1">  1        2 0.14838486E+00 0.72824139E+03</pdfrwt>
<pdfrwt beam="2">  1       -2 0.18234970E-01 0.72824139E+03</pdfrwt>
<totfact> 0.66949102E+02</totfact>
</mgrwt>
</event>
<event>
 4    1  0.5387486E-005  0.5016090E+03  0.7818608E-02  0.1013360E+00
         -2   -1    0    0    0  501 -0.00000000000E+00  0.00000000000E+00  0.37420693371E+02  0.37420693458E+02  0.25500000000E-02 0. -1.
          2   -1    0    0  501    0  0.00000000000E+00 -0.00000000000E+00 -0.16809657691E+04  0.16809657691E+04  0.25500000000E-02 0.  1.
    5000001    1    1    2    0    0  0.17239469481E+03 -0.72219417344E+02 -0.72843552458E+03  0.76992135216E+03  0.16500000000E+03 0.  0.
   -5000001    1    1    2    0    0 -0.17239469481E+03  0.72219417344E+02 -0.91510955115E+03  0.94846511040E+03  0.16500000000E+03 0.  0.
<mgrwt>
<rscale>  0 0.50160903E+03</rscale>
<asrwt>0</asrwt>
<pdfrwt beam="1">  1        2 0.24013792E+00 0.50160903E+03</pdfrwt>
<pdfrwt beam="2">  1       -2 0.53458144E-02 0.50160903E+03</pdfrwt>
<totfact> 0.22252463E+03</totfact>
</mgrwt>
</event>
<event>
 4    1  0.5387486E-005  0.8879049E+03  0.7818608E-02  0.9440828E-01
          2   -1    0    0  501    0  0.00000000000E+00  0.00000000000E+00  0.78494247248E+03  0.78494247248E+03  0.25500000000E-02 0.  1.
         -2   -1    0    0    0  501 -0.00000000000E+00 -0.00000000000E+00 -0.25109329353E+03  0.25109329354E+03  0.25500000000E-02 0. -1.
    5000001    1    1    2    0    0 -0.39531183070E+03 -0.12164620348E+02  0.40224373255E+03  0.58774521849E+03  0.16500000000E+03 0.  0.
   -5000001    1    1    2    0    0  0.39531183070E+03  0.12164620348E+02  0.13160544640E+03  0.44829054753E+03  0.16500000000E+03 0.  0.
<mgrwt>
<rscale>  0 0.88790493E+03</rscale>
<asrwt>0</asrwt>
<pdfrwt beam="1">  1        2 0.11213464E+00 0.88790493E+03</pdfrwt>
<pdfrwt beam="2">  1       -2 0.35870471E-01 0.88790493E+03</pdfrwt>
<totfact> 0.28497637E+02</totfact>
</mgrwt>
</event>
<event>
 4    1  0.5387486E-005  0.4076993E+03  0.7818608E-02  0.1041146E+00
         -2   -1    0    0    0  501 -0.00000000000E+00  0.00000000000E+00  0.16271330544E+02  0.16271330744E+02  0.25500000000E-02 0. -1.
          2   -1    0    0  501    0  0.00000000000E+00 -0.00000000000E+00 -0.25538591757E+04  0.25538591757E+04  0.25500000000E-02 0.  1.
    5000001    1    1    2    0    0  0.74145840742E+01  0.97746060342E+02 -0.83567671949E+03  0.85743212435E+03  0.16500000000E+03 0.  0.
   -5000001    1    1    2    0    0 -0.74145840742E+01 -0.97746060342E+02 -0.17019111257E+04  0.17126983821E+04  0.16500000000E+03 0.  0.
<mgrwt>
<rscale>  0 0.40769934E+03</rscale>
<asrwt>0</asrwt>
<pdfrwt beam="1">  1        2 0.36483677E+00 0.40769934E+03</pdfrwt>
<pdfrwt beam="2">  1       -2 0.23244774E-02 0.40769934E+03</pdfrwt>
<totfact> 0.28935267E+03</totfact>
</mgrwt>
</event>
<event>
 4    1  0.5387486E-005  0.4233520E+03  0.7818608E-02  0.1035981E+00
          2   -1    0    0  501    0  0.00000000000E+00  0.00000000000E+00  0.55014300262E+03  0.55014300263E+03  0.25500000000E-02 0.  1.
         -2   -1    0    0    0  501 -0.00000000000E+00 -0.00000000000E+00 -0.81445589200E+02  0.81445589239E+02  0.25500000000E-02 0. -1.
    5000001    1    1    2    0    0 -0.13494908281E+01 -0.97042016611E+02  0.99560819794E+02  0.21576916126E+03  0.16500000000E+03 0.  0.
   -5000001    1    1    2    0    0  0.13494908281E+01  0.97042016611E+02  0.36913659363E+03  0.41581943060E+03  0.16500000000E+03 0.  0.
<mgrwt>
<rscale>  0 0.42335196E+03</rscale>
<asrwt>0</asrwt>
<pdfrwt beam="1">  1        2 0.78591853E-01 0.42335196E+03</pdfrwt>
<pdfrwt beam="2">  1       -2 0.11635085E-01 0.42335196E+03</pdfrwt>
<totfact> 0.31815046E+03</totfact>
</mgrwt>
</event>
<event>
 4    1  0.5387486E-005  0.5167179E+03  0.7818608E-02  0.1009505E+00
          2   -1    0    0  501    0  0.00000000000E+00  0.00000000000E+00  0.71692771501E+03  0.71692771501E+03  0.25500000000E-02 0.  1.
         -2   -1    0    0    0  501 -0.00000000000E+00 -0.00000000000E+00 -0.93104727329E+02  0.93104727364E+02  0.25500000000E-02 0. -1.
    5000001    1    1    2    0    0 -0.40867349319E+02  0.17751998455E+03  0.18708020986E+03  0.30888102900E+03  0.16500000000E+03 0.  0.
   -5000001    1    1    2    0    0  0.40867349319E+02 -0.17751998455E+03  0.43674277782E+03  0.50115141338E+03  0.16500000000E+03 0.  0.
<mgrwt>
<rscale>  0 0.51671795E+03</rscale>
<asrwt>0</asrwt>
<pdfrwt beam="1">  1        2 0.10241824E+00 0.51671795E+03</pdfrwt>
<pdfrwt beam="2">  1       -2 0.13300675E-01 0.51671795E+03</pdfrwt>
<totfact> 0.18711075E+03</totfact>
</mgrwt>
</event>
<event>
 4    1  0.5387486E-005  0.4590668E+03  0.7818608E-02  0.1025052E+00
         -2   -1    0    0    0  501 -0.00000000000E+00  0.00000000000E+00  0.30931725746E+02  0.30931725851E+02  0.25500000000E-02 0. -1.
          2   -1    0    0  501    0  0.00000000000E+00 -0.00000000000E+00 -0.17032862489E+04  0.17032862489E+04  0.25500000000E-02 0.  1.
    5000001    1    1    2    0    0 -0.15428108755E+03  0.37244494354E+02 -0.89834049256E+03  0.92705471624E+03  0.16500000000E+03 0.  0.
   -5000001    1    1    2    0    0  0.15428108755E+03 -0.37244494354E+02 -0.77401403058E+03  0.80716325850E+03  0.16500000000E+03 0.  0.
<mgrwt>
<rscale>  0 0.45906681E+03</rscale>
<asrwt>0</asrwt>
<pdfrwt beam="1">  1        2 0.24332655E+00 0.45906681E+03</pdfrwt>
<pdfrwt beam="2">  1       -2 0.44188191E-02 0.45906681E+03</pdfrwt>
<totfact> 0.29109217E+03</totfact>
</mgrwt>
</event>
<event>
 4    1  0.5387486E-005  0.4007221E+03  0.7818608E-02  0.1043530E+00
         -2   -1    0    0    0  501 -0.00000000000E+00  0.00000000000E+00  0.16112620426E+03  0.16112620428E+03  0.25500000000E-02 0. -1.
          2   -1    0    0  501    0  0.00000000000E+00 -0.00000000000E+00 -0.24914976364E+03  0.24914976366E+03  0.25500000000E-02 0.  1.
    5000001    1    1    2    0    0  0.65246247240E+02  0.86764509002E+02 -0.95278761374E+01  0.19773955908E+03  0.16500000000E+03 0.  0.
   -5000001    1    1    2    0    0 -0.65246247240E+02 -0.86764509002E+02 -0.78495683246E+02  0.21253640886E+03  0.16500000000E+03 0.  0.
<mgrwt>
<rscale>  0 0.40072213E+03</rscale>
<asrwt>0</asrwt>
<pdfrwt beam="1">  1        2 0.35592823E-01 0.40072213E+03</pdfrwt>
<pdfrwt beam="2">  1       -2 0.23018029E-01 0.40072213E+03</pdfrwt>
<totfact> 0.24067139E+03</totfact>
</mgrwt>
</event>
<event>
 4    1  0.5387486E-005  0.4828741E+03  0.7818608E-02  0.1018348E+00
         -2   -1    0    0    0  501 -0.00000000000E+00  0.00000000000E+00  0.40666810586E+02  0.40666810666E+02  0.25500000000E-02 0. -1.
          2   -1    0    0  501    0  0.00000000000E+00 -0.00000000000E+00 -0.14334010730E+04  0.14334010730E+04  0.25500000000E-02 0.  1.
    5000001    1    1    2    0    0 -0.12394487132E+02 -0.94413438618E+02 -0.24358603221E+03  0.30923563150E+03  0.16500000000E+03 0.  0.
   -5000001    1    1    2    0    0  0.12394487132E+02  0.94413438618E+02 -0.11491482302E+04  0.11648322521E+04  0.16500000000E+03 0.  0.
<mgrwt>
<rscale>  0 0.48287410E+03</rscale>
<asrwt>0</asrwt>
<pdfrwt beam="1">  1        2 0.20477155E+00 0.48287410E+03</pdfrwt>
<pdfrwt beam="2">  1       -2 0.58095453E-02 0.48287410E+03</pdfrwt>
<totfact> 0.26217732E+03</totfact>
</mgrwt>
</event>
<event>
 4    1  0.5387486E-005  0.6805927E+03  0.7818608E-02  0.9751009E-01
          2   -1    0    0  501    0  0.00000000000E+00  0.00000000000E+00  0.62648021913E+03  0.62648021913E+03  0.25500000000E-02 0.  1.
         -2   -1    0    0    0  501 -0.00000000000E+00 -0.00000000000E+00 -0.18484479454E+03  0.18484479456E+03  0.25500000000E-02 0. -1.
    5000001    1    1    2    0    0 -0.34616232459E+02  0.29191055140E+03  0.16533057514E+03  0.37545872296E+03  0.16500000000E+03 0.  0.
   -5000001    1    1    2    0    0  0.34616232459E+02 -0.29191055140E+03  0.27630484945E+03  0.43586629073E+03  0.16500000000E+03 0.  0.
<mgrwt>
<rscale>  0 0.68059270E+03</rscale>
<asrwt>0</asrwt>
<pdfrwt beam="1">  1        2 0.89497173E-01 0.68059270E+03</pdfrwt>
<pdfrwt beam="2">  1       -2 0.26406400E-01 0.68059270E+03</pdfrwt>
<totfact> 0.67110243E+02</totfact>
</mgrwt>
</event>
<event>
 4    1  0.5387486E-005  0.1046050E+04  0.7818608E-02  0.9259432E-01
         -2   -1    0    0    0  501 -0.00000000000E+00  0.00000000000E+00  0.11027881236E+03  0.11027881239E+03  0.25500000000E-02 0.  1.
          2   -1    0    0  501    0  0.00000000000E+00 -0.00000000000E+00 -0.24805754835E+04  0.24805754835E+04  0.25500000000E-02 0. -1.
    5000001    1    1    2    0    0  0.14862480167E+03 -0.46270245233E+03 -0.93565431344E+03  0.10671723784E+04  0.16500000000E+03 0.  0.
   -5000001    1    1    2    0    0 -0.14862480167E+03  0.46270245233E+03 -0.14346423577E+04  0.15236819175E+04  0.16500000000E+03 0.  0.
<mgrwt>
<rscale>  0 0.10460496E+04</rscale>
<asrwt>0</asrwt>
<pdfrwt beam="1">  1        2 0.35436789E+00 0.10460496E+04</pdfrwt>
<pdfrwt beam="2">  1       -2 0.15754118E-01 0.10460496E+04</pdfrwt>
<totfact> 0.14634250E+02</totfact>
</mgrwt>
</event>
<event>
 4    1  0.5387486E-005  0.5127220E+03  0.7818608E-02  0.1010511E+00
         -2   -1    0    0    0  501 -0.00000000000E+00  0.00000000000E+00  0.69460492313E+03  0.69460492313E+03  0.25500000000E-02 0. -1.
          2   -1    0    0  501    0  0.00000000000E+00 -0.00000000000E+00 -0.94616312474E+02  0.94616312508E+02  0.25500000000E-02 0.  1.
    5000001    1    1    2    0    0 -0.45002131703E+02  0.18284763888E+03  0.21515924556E+03  0.33011657313E+03  0.16500000000E+03 0.  0.
   -5000001    1    1    2    0    0  0.45002131703E+02 -0.18284763888E+03  0.38482936509E+03  0.45910466251E+03  0.16500000000E+03 0.  0.
<mgrwt>
<rscale>  0 0.51272198E+03</rscale>
<asrwt>0</asrwt>
<pdfrwt beam="1">  1        2 0.13516616E-01 0.51272198E+03</pdfrwt>
<pdfrwt beam="2">  1       -2 0.99229274E-01 0.51272198E+03</pdfrwt>
<totfact> 0.38736385E+02</totfact>
</mgrwt>
</event>
<event>
 4    1  0.5387486E-005  0.3540822E+03  0.7818608E-02  0.1060952E+00
         -2   -1    0    0    0  501 -0.00000000000E+00  0.00000000000E+00  0.13375313414E+03  0.13375313416E+03  0.25500000000E-02 0. -1.
          2   -1    0    0  501    0  0.00000000000E+00 -0.00000000000E+00 -0.23433883222E+03  0.23433883223E+03  0.25500000000E-02 0.  1.
    5000001    1    1    2    0    0 -0.63310346935E+02  0.95789733507E+01 -0.54775840631E+02  0.18527101629E+03  0.16500000000E+03 0.  0.
   -5000001    1    1    2    0    0  0.63310346935E+02 -0.95789733507E+01 -0.45809857449E+02  0.18282095011E+03  0.16500000000E+03 0.  0.
<mgrwt>
<rscale>  0 0.35408221E+03</rscale>
<asrwt>0</asrwt>
<pdfrwt beam="1">  1        2 0.33476976E-01 0.35408221E+03</pdfrwt>
<pdfrwt beam="2">  1       -2 0.19107591E-01 0.35408221E+03</pdfrwt>
<totfact> 0.35469938E+03</totfact>
</mgrwt>
</event>
<event>
 4    1  0.5387486E-005  0.8325052E+03  0.7818608E-02  0.9514123E-01
         -2   -1    0    0    0  501 -0.00000000000E+00  0.00000000000E+00  0.43732191084E+03  0.43732191084E+03  0.25500000000E-02 0. -1.
          2   -1    0    0  501    0  0.00000000000E+00 -0.00000000000E+00 -0.39619835259E+03  0.39619835260E+03  0.25500000000E-02 0.  1.
    5000001    1    1    2    0    0 -0.31680941459E+03 -0.19786788105E+03 -0.60291357885E+02  0.41277106410E+03  0.16500000000E+03 0.  0.
   -5000001    1    1    2    0    0  0.31680941459E+03  0.19786788105E+03  0.10141491613E+03  0.42074919933E+03  0.16500000000E+03 0.  0.
<mgrwt>
<rscale>  0 0.83250518E+03</rscale>
<asrwt>0</asrwt>
<pdfrwt beam="1">  1        2 0.56599765E-01 0.83250518E+03</pdfrwt>
<pdfrwt beam="2">  1       -2 0.62474558E-01 0.83250518E+03</pdfrwt>
<totfact> 0.20903385E+02</totfact>
</mgrwt>
</event>
<event>
 4    1  0.5387486E-005  0.4569744E+03  0.7818608E-02  0.1025662E+00
          2   -1    0    0  501    0  0.00000000000E+00  0.00000000000E+00  0.35563300880E+03  0.35563300880E+03  0.25500000000E-02 0.  1.
         -2   -1    0    0    0  501 -0.00000000000E+00 -0.00000000000E+00 -0.14679854316E+03  0.14679854318E+03  0.25500000000E-02 0. -1.
    5000001    1    1    2    0    0 -0.85878940279E+02 -0.13030165694E+03  0.76871217151E+02  0.23976634086E+03  0.16500000000E+03 0.  0.
   -5000001    1    1    2    0    0  0.85878940279E+02  0.13030165694E+03  0.13196324848E+03  0.26266521112E+03  0.16500000000E+03 0.  0.
<mgrwt>
<rscale>  0 0.45697443E+03</rscale>
<asrwt>0</asrwt>
<pdfrwt beam="1">  1        2 0.50804715E-01 0.45697443E+03</pdfrwt>
<pdfrwt beam="2">  1       -2 0.20971221E-01 0.45697443E+03</pdfrwt>
<totfact> 0.19221081E+03</totfact>
</mgrwt>
</event>
<event>
 4    1  0.5387486E-005  0.5291094E+03  0.7818608E-02  0.1006448E+00
         -2   -1    0    0    0  501 -0.00000000000E+00  0.00000000000E+00  0.56058909350E+03  0.56058909351E+03  0.25500000000E-02 0. -1.
          2   -1    0    0  501    0  0.00000000000E+00 -0.00000000000E+00 -0.12484935876E+03  0.12484935878E+03  0.25500000000E-02 0.  1.
    5000001    1    1    2    0    0 -0.20471332978E+03  0.28702660651E+02  0.21045076131E+03  0.33800282995E+03  0.16500000000E+03 0.  0.
   -5000001    1    1    2    0    0  0.20471332978E+03 -0.28702660651E+02  0.22528897344E+03  0.34743562234E+03  0.16500000000E+03 0.  0.
<mgrwt>
<rscale>  0 0.52910940E+03</rscale>
<asrwt>0</asrwt>
<pdfrwt beam="1">  1        2 0.17835623E-01 0.52910940E+03</pdfrwt>
<pdfrwt beam="2">  1       -2 0.80084156E-01 0.52910940E+03</pdfrwt>
<totfact> 0.45301980E+02</totfact>
</mgrwt>
</event>
<event>
 4    1  0.5387486E-005  0.6937953E+03  0.7818608E-02  0.9727902E-01
         -2   -1    0    0    0  501 -0.00000000000E+00  0.00000000000E+00  0.65666123309E+02  0.65666123358E+02  0.25500000000E-02 0. -1.
          2   -1    0    0  501    0  0.00000000000E+00 -0.00000000000E+00 -0.18325733302E+04  0.18325733302E+04  0.25500000000E-02 0.  1.
    5000001    1    1    2    0    0 -0.13108761232E+03 -0.27550923605E+03 -0.87013811948E+03  0.93672549246E+03  0.16500000000E+03 0.  0.
   -5000001    1    1    2    0    0  0.13108761232E+03  0.27550923605E+03 -0.89676908740E+03  0.96151396109E+03  0.16500000000E+03 0.  0.
<mgrwt>
<rscale>  0 0.69379532E+03</rscale>
<asrwt>0</asrwt>
<pdfrwt beam="1">  1        2 0.26179616E+00 0.69379532E+03</pdfrwt>
<pdfrwt beam="2">  1       -2 0.93808759E-02 0.69379532E+03</pdfrwt>
<totfact> 0.75972510E+02</totfact>
</mgrwt>
</event>
<event>
 4    1  0.5387486E-005  0.7705627E+03  0.7818608E-02  0.9603632E-01
          2   -1    0    0  501    0  0.00000000000E+00  0.00000000000E+00  0.18656505333E+04  0.18656505333E+04  0.25500000000E-02 0.  1.
         -2   -1    0    0    0  501 -0.00000000000E+00 -0.00000000000E+00 -0.79565663625E+02  0.79565663666E+02  0.25500000000E-02 0. -1.
    5000001    1    1    2    0    0  0.27882121987E+03 -0.18254739890E+03  0.11473934624E+04  0.12061515589E+04  0.16500000000E+03 0.  0.
   -5000001    1    1    2    0    0 -0.27882121987E+03  0.18254739890E+03  0.63869140721E+03  0.73906463800E+03  0.16500000000E+03 0.  0.
<mgrwt>
<rscale>  0 0.77056271E+03</rscale>
<asrwt>0</asrwt>
<pdfrwt beam="1">  1        2 0.26652148E+00 0.77056271E+03</pdfrwt>
<pdfrwt beam="2">  1       -2 0.11366524E-01 0.77056271E+03</pdfrwt>
<totfact> 0.53199847E+02</totfact>
</mgrwt>
</event>
<event>
 4    1  0.5387486E-005  0.5323121E+03  0.7818608E-02  0.1005673E+00
         -2   -1    0    0    0  501 -0.00000000000E+00  0.00000000000E+00  0.17107579371E+03  0.17107579373E+03  0.25500000000E-02 0. -1.
          2   -1    0    0  501    0  0.00000000000E+00 -0.00000000000E+00 -0.41407981269E+03  0.41407981270E+03  0.25500000000E-02 0.  1.
    5000001    1    1    2    0    0 -0.26146690922E+02  0.19314415235E+03 -0.39051355574E+02  0.25833761129E+03  0.16500000000E+03 0.  0.
   -5000001    1    1    2    0    0  0.26146690922E+02 -0.19314415235E+03 -0.20395266341E+03  0.32681799513E+03  0.16500000000E+03 0.  0.
<mgrwt>
<rscale>  0 0.53231206E+03</rscale>
<asrwt>0</asrwt>
<pdfrwt beam="1">  1        2 0.59154258E-01 0.53231206E+03</pdfrwt>
<pdfrwt beam="2">  1       -2 0.24439399E-01 0.53231206E+03</pdfrwt>
<totfact> 0.12415895E+03</totfact>
</mgrwt>
</event>
<event>
 4    1  0.5387486E-005  0.3986720E+03  0.7818608E-02  0.1044241E+00
          2   -1    0    0  501    0  0.00000000000E+00  0.00000000000E+00  0.15647521703E+04  0.15647521703E+04  0.25500000000E-02 0.  1.
         -2   -1    0    0    0  501 -0.00000000000E+00 -0.00000000000E+00 -0.25393690071E+02  0.25393690199E+02  0.25500000000E-02 0. -1.
    5000001    1    1    2    0    0  0.10325638764E+03  0.41665342767E+02  0.81188115107E+03  0.83592696203E+03  0.16500000000E+03 0.  0.
   -5000001    1    1    2    0    0 -0.10325638764E+03 -0.41665342767E+02  0.72747732914E+03  0.75421889845E+03  0.16500000000E+03 0.  0.
<mgrwt>
<rscale>  0 0.39867195E+03</rscale>
<asrwt>0</asrwt>
<pdfrwt beam="1">  1        2 0.22353603E+00 0.39867195E+03</pdfrwt>
<pdfrwt beam="2">  1       -2 0.36276699E-02 0.39867195E+03</pdfrwt>
<totfact> 0.46215454E+03</totfact>
</mgrwt>
</event>
<event>
 4    1  0.5387486E-005  0.5278127E+03  0.7818608E-02  0.1006764E+00
          2   -1    0    0  501    0  0.00000000000E+00  0.00000000000E+00  0.15379326980E+04  0.15379326980E+04  0.25500000000E-02 0.  1.
         -2   -1    0    0    0  501 -0.00000000000E+00 -0.00000000000E+00 -0.45285839250E+02  0.45285839322E+02  0.25500000000E-02 0. -1.
    5000001    1    1    2    0    0 -0.17587697141E+03  0.42473964310E+02  0.45112984643E+03  0.51330291744E+03  0.16500000000E+03 0.  0.
   -5000001    1    1    2    0    0  0.17587697141E+03 -0.42473964310E+02  0.10415170124E+04  0.10699156199E+04  0.16500000000E+03 0.  0.
<mgrwt>
<rscale>  0 0.52781274E+03</rscale>
<asrwt>0</asrwt>
<pdfrwt beam="1">  1        2 0.21970466E+00 0.52781274E+03</pdfrwt>
<pdfrwt beam="2">  1       -2 0.64694058E-02 0.52781274E+03</pdfrwt>
<totfact> 0.19541094E+03</totfact>
</mgrwt>
</event>
<event>
 4    1  0.5387486E-005  0.3892122E+03  0.7818608E-02  0.1047580E+00
          2   -1    0    0  501    0  0.00000000000E+00  0.00000000000E+00  0.36343034741E+03  0.36343034741E+03  0.25500000000E-02 0.  1.
         -2   -1    0    0    0  501 -0.00000000000E+00 -0.00000000000E+00 -0.10420574647E+03  0.10420574650E+03  0.25500000000E-02 0. -1.
    5000001    1    1    2    0    0  0.67116221773E+02 -0.77505238799E+02  0.11565833617E+03  0.22608294936E+03  0.16500000000E+03 0.  0.
   -5000001    1    1    2    0    0 -0.67116221773E+02  0.77505238799E+02  0.14356626476E+03  0.24155314455E+03  0.16500000000E+03 0.  0.
<mgrwt>
<rscale>  0 0.38921218E+03</rscale>
<asrwt>0</asrwt>
<pdfrwt beam="1">  1        2 0.51918620E-01 0.38921218E+03</pdfrwt>
<pdfrwt beam="2">  1       -2 0.14886535E-01 0.38921218E+03</pdfrwt>
<totfact> 0.33558484E+03</totfact>
</mgrwt>
</event>
<event>
 4    1  0.5387486E-005  0.7135289E+03  0.7818608E-02  0.9694372E-01
          2   -1    0    0  501    0  0.00000000000E+00  0.00000000000E+00  0.20153479689E+04  0.20153479689E+04  0.25500000000E-02 0.  1.
         -2   -1    0    0    0  501 -0.00000000000E+00 -0.00000000000E+00 -0.63155777182E+02  0.63155777234E+02  0.25500000000E-02 0. -1.
    5000001    1    1    2    0    0 -0.19299771951E+03 -0.21169051236E+03  0.58533288930E+03  0.67223551235E+03  0.16500000000E+03 0.  0.
   -5000001    1    1    2    0    0  0.19299771951E+03  0.21169051236E+03  0.13668593024E+04  0.14062682337E+04  0.16500000000E+03 0.  0.
<mgrwt>
<rscale>  0 0.71352888E+03</rscale>
<asrwt>0</asrwt>
<pdfrwt beam="1">  1        2 0.28790681E+00 0.71352888E+03</pdfrwt>
<pdfrwt beam="2">  1       -2 0.90222553E-02 0.71352888E+03</pdfrwt>
<totfact> 0.65327882E+02</totfact>
</mgrwt>
</event>
<event>
 4    1  0.5387486E-005  0.6443181E+03  0.7818608E-02  0.9817500E-01
          2   -1    0    0  501    0  0.00000000000E+00  0.00000000000E+00  0.15532691476E+04  0.15532691476E+04  0.25500000000E-02 0.  1.
         -2   -1    0    0    0  501 -0.00000000000E+00 -0.00000000000E+00 -0.66818072178E+02  0.66818072226E+02  0.25500000000E-02 0. -1.
    5000001    1    1    2    0    0  0.25351524442E+03  0.89854117635E+02  0.90652183950E+03  0.95987008865E+03  0.16500000000E+03 0.  0.
   -5000001    1    1    2    0    0 -0.25351524442E+03 -0.89854117635E+02  0.57992923589E+03  0.66021713114E+03  0.16500000000E+03 0.  0.
<mgrwt>
<rscale>  0 0.64431809E+03</rscale>
<asrwt>0</asrwt>
<pdfrwt beam="1">  1        2 0.22189558E+00 0.64431809E+03</pdfrwt>
<pdfrwt beam="2">  1       -2 0.95454395E-02 0.64431809E+03</pdfrwt>
<totfact> 0.10288309E+03</totfact>
</mgrwt>
</event>
<event>
 4    1  0.5387486E-005  0.5275659E+03  0.7818608E-02  0.1006824E+00
          2   -1    0    0  501    0  0.00000000000E+00  0.00000000000E+00  0.16624423952E+03  0.16624423954E+03  0.25500000000E-02 0.  1.
         -2   -1    0    0    0  501 -0.00000000000E+00 -0.00000000000E+00 -0.41854953359E+03  0.41854953360E+03  0.25500000000E-02 0. -1.
    5000001    1    1    2    0    0 -0.55925992830E+02 -0.18911086926E+03 -0.60895441621E+02  0.26424210935E+03  0.16500000000E+03 0.  0.
   -5000001    1    1    2    0    0  0.55925992830E+02  0.18911086926E+03 -0.19140985245E+03  0.32055166379E+03  0.16500000000E+03 0.  0.
<mgrwt>
<rscale>  0 0.52756592E+03</rscale>
<asrwt>0</asrwt>
<pdfrwt beam="1">  1        2 0.23749177E-01 0.52756592E+03</pdfrwt>
<pdfrwt beam="2">  1       -2 0.59792790E-01 0.52756592E+03</pdfrwt>
<totfact> 0.61088362E+02</totfact>
</mgrwt>
</event>
<event>
 4    1  0.5387486E-005  0.4736607E+03  0.7818608E-02  0.1020892E+00
         -2   -1    0    0    0  501 -0.00000000000E+00  0.00000000000E+00  0.31781921370E+03  0.31781921371E+03  0.25500000000E-02 0. -1.
          2   -1    0    0  501    0  0.00000000000E+00 -0.00000000000E+00 -0.17647965478E+03  0.17647965480E+03  0.25500000000E-02 0.  1.
    5000001    1    1    2    0    0  0.93743334175E+02 -0.13744507324E+03  0.10658841804E+03  0.25741999091E+03  0.16500000000E+03 0.  0.
   -5000001    1    1    2    0    0 -0.93743334175E+02  0.13744507324E+03  0.34751140870E+02  0.23687887760E+03  0.16500000000E+03 0.  0.
<mgrwt>
<rscale>  0 0.47366074E+03</rscale>
<asrwt>0</asrwt>
<pdfrwt beam="1">  1        2 0.25211380E-01 0.47366074E+03</pdfrwt>
<pdfrwt beam="2">  1       -2 0.45402744E-01 0.47366074E+03</pdfrwt>
<totfact> 0.99983109E+02</totfact>
</mgrwt>
</event>
<event>
 4    1  0.5387486E-005  0.4369229E+03  0.7818608E-02  0.1031695E+00
         -2   -1    0    0    0  501 -0.00000000000E+00  0.00000000000E+00  0.45472233335E+03  0.45472233335E+03  0.25500000000E-02 0. -1.
          2   -1    0    0  501    0  0.00000000000E+00 -0.00000000000E+00 -0.10495505436E+03  0.10495505439E+03  0.25500000000E-02 0.  1.
    5000001    1    1    2    0    0 -0.37323909767E+02  0.13241124929E+03  0.12405397460E+03  0.24807297675E+03  0.16500000000E+03 0.  0.
   -5000001    1    1    2    0    0  0.37323909767E+02 -0.13241124929E+03  0.22571330438E+03  0.31160441100E+03  0.16500000000E+03 0.  0.
<mgrwt>
<rscale>  0 0.43692291E+03</rscale>
<asrwt>0</asrwt>
<pdfrwt beam="1">  1        2 0.14993579E-01 0.43692291E+03</pdfrwt>
<pdfrwt beam="2">  1       -2 0.64960333E-01 0.43692291E+03</pdfrwt>
<totfact> 0.87947747E+02</totfact>
</mgrwt>
</event>
<event>
 4    1  0.5387486E-005  0.6226329E+03  0.7818608E-02  0.9859531E-01
          2   -1    0    0  501    0  0.00000000000E+00  0.00000000000E+00  0.92438783071E+03  0.92438783071E+03  0.25500000000E-02 0.  1.
         -2   -1    0    0    0  501 -0.00000000000E+00 -0.00000000000E+00 -0.10484554289E+03  0.10484554292E+03  0.25500000000E-02 0. -1.
    5000001    1    1    2    0    0  0.21439918246E+03  0.13928781219E+03  0.30106182216E+03  0.42805528244E+03  0.16500000000E+03 0.  0.
   -5000001    1    1    2    0    0 -0.21439918246E+03 -0.13928781219E+03  0.51848046565E+03  0.60117809119E+03  0.16500000000E+03 0.  0.
<mgrwt>
<rscale>  0 0.62263294E+03</rscale>
<asrwt>0</asrwt>
<pdfrwt beam="1">  1        2 0.13205541E+00 0.62263294E+03</pdfrwt>
<pdfrwt beam="2">  1       -2 0.14977934E-01 0.62263294E+03</pdfrwt>
<totfact> 0.11053373E+03</totfact>
</mgrwt>
</event>
<event>
 4    1  0.5387486E-005  0.7264356E+03  0.7818608E-02  0.9673062E-01
          2   -1    0    0  501    0  0.00000000000E+00  0.00000000000E+00  0.90121716927E+03  0.90121716927E+03  0.25500000000E-02 0.  1.
         -2   -1    0    0    0  501 -0.00000000000E+00 -0.00000000000E+00 -0.14638777550E+03  0.14638777553E+03  0.25500000000E-02 0. -1.
    5000001    1    1    2    0    0  0.27677993175E+03 -0.12290239713E+03  0.54177834354E+03  0.64223119153E+03  0.16500000000E+03 0.  0.
   -5000001    1    1    2    0    0 -0.27677993175E+03  0.12290239713E+03  0.21305105022E+03  0.40537375327E+03  0.16500000000E+03 0.  0.
<mgrwt>
<rscale>  0 0.72643562E+03</rscale>
<asrwt>0</asrwt>
<pdfrwt beam="1">  1        2 0.12874531E+00 0.72643562E+03</pdfrwt>
<pdfrwt beam="2">  1       -2 0.20912539E-01 0.72643562E+03</pdfrwt>
<totfact> 0.64250035E+02</totfact>
</mgrwt>
</event>
<event>
 4    1  0.5387486E-005  0.9170301E+03  0.7818608E-02  0.9404540E-01
         -2   -1    0    0    0  501 -0.00000000000E+00  0.00000000000E+00  0.20029068347E+03  0.20029068349E+03  0.25500000000E-02 0. -1.
          2   -1    0    0  501    0  0.00000000000E+00 -0.00000000000E+00 -0.10496546568E+04  0.10496546568E+04  0.25500000000E-02 0.  1.
    5000001    1    1    2    0    0 -0.41707267361E+02 -0.41445527296E+03 -0.29184097159E+03  0.53470442501E+03  0.16500000000E+03 0.  0.
   -5000001    1    1    2    0    0  0.41707267361E+02  0.41445527296E+03 -0.55752300178E+03  0.71524091531E+03  0.16500000000E+03 0.  0.
<mgrwt>
<rscale>  0 0.91703009E+03</rscale>
<asrwt>0</asrwt>
<pdfrwt beam="1">  1        2 0.14995066E+00 0.91703009E+03</pdfrwt>
<pdfrwt beam="2">  1       -2 0.28612955E-01 0.91703009E+03</pdfrwt>
<totfact> 0.29289039E+02</totfact>
</mgrwt>
</event>
<event>
 4    1  0.5387486E-005  0.5291922E+03  0.7818608E-02  0.1006428E+00
          2   -1    0    0  501    0  0.00000000000E+00  0.00000000000E+00  0.23985277362E+04  0.23985277362E+04  0.25500000000E-02 0.  1.
         -2   -1    0    0    0  501 -0.00000000000E+00 -0.00000000000E+00 -0.29189201000E+02  0.29189201112E+02  0.25500000000E-02 0. -1.
    5000001    1    1    2    0    0 -0.18055834773E+03  0.14410279564E+02  0.72643506087E+03  0.76664324869E+03  0.16500000000E+03 0.  0.
   -5000001    1    1    2    0    0  0.18055834773E+03 -0.14410279564E+02  0.16429034743E+04  0.16610736886E+04  0.16500000000E+03 0.  0.
<mgrwt>
<rscale>  0 0.52919225E+03</rscale>
<asrwt>0</asrwt>
<pdfrwt beam="1">  1        2 0.34264681E+00 0.52919225E+03</pdfrwt>
<pdfrwt beam="2">  1       -2 0.41698860E-02 0.52919225E+03</pdfrwt>
<totfact> 0.14227056E+03</totfact>
</mgrwt>
</event>
<event>
 4    1  0.5387486E-005  0.9675583E+03  0.7818608E-02  0.9344860E-01
         -2   -1    0    0    0  501 -0.00000000000E+00  0.00000000000E+00  0.28648525144E+03  0.28648525145E+03  0.25500000000E-02 0.  1.
          2   -1    0    0  501    0  0.00000000000E+00 -0.00000000000E+00 -0.81694356171E+03  0.81694356171E+03  0.25500000000E-02 0. -1.
    5000001    1    1    2    0    0  0.95884620185E+02  0.43177827574E+03 -0.14458661203E+03  0.49371715401E+03  0.16500000000E+03 0.  0.
   -5000001    1    1    2    0    0 -0.95884620185E+02 -0.43177827574E+03 -0.38587169825E+03  0.60971165915E+03  0.16500000000E+03 0.  0.
<mgrwt>
<rscale>  0 0.96755833E+03</rscale>
<asrwt>0</asrwt>
<pdfrwt beam="1">  1        2 0.11670622E+00 0.96755833E+03</pdfrwt>
<pdfrwt beam="2">  1       -2 0.40926465E-01 0.96755833E+03</pdfrwt>
<totfact> 0.20883563E+02</totfact>
</mgrwt>
</event>
<event>
 4    1  0.5387486E-005  0.6903242E+03  0.7818608E-02  0.9733924E-01
          2   -1    0    0  501    0  0.00000000000E+00  0.00000000000E+00  0.31928866271E+03  0.31928866272E+03  0.25500000000E-02 0.  1.
         -2   -1    0    0    0  501 -0.00000000000E+00 -0.00000000000E+00 -0.37313217409E+03  0.37313217410E+03  0.25500000000E-02 0. -1.
    5000001    1    1    2    0    0  0.74630455235E+02 -0.24775767580E+03  0.13154003280E+03  0.33388823129E+03  0.16500000000E+03 0.  0.
   -5000001    1    1    2    0    0 -0.74630455235E+02  0.24775767580E+03 -0.18538354418E+03  0.35853260552E+03  0.16500000000E+03 0.  0.
<mgrwt>
<rscale>  0 0.69032419E+03</rscale>
<asrwt>0</asrwt>
<pdfrwt beam="1">  1        2 0.45612666E-01 0.69032419E+03</pdfrwt>
<pdfrwt beam="2">  1       -2 0.53304596E-01 0.69032419E+03</pdfrwt>
<totfact> 0.37224970E+02</totfact>
</mgrwt>
</event>
<event>
 4    1  0.5387486E-005  0.3665011E+03  0.7818608E-02  0.1056039E+00
         -2   -1    0    0    0  501 -0.00000000000E+00  0.00000000000E+00  0.21513923207E+03  0.21513923208E+03  0.25500000000E-02 0. -1.
          2   -1    0    0  501    0  0.00000000000E+00 -0.00000000000E+00 -0.15608852260E+03  0.15608852262E+03  0.25500000000E-02 0.  1.
    5000001    1    1    2    0    0 -0.58353222130E+02  0.53822214206E+02  0.22093452185E+02  0.18443169441E+03  0.16500000000E+03 0.  0.
   -5000001    1    1    2    0    0  0.58353222130E+02 -0.53822214206E+02  0.36957257279E+02  0.18679606029E+03  0.16500000000E+03 0.  0.
<mgrwt>
<rscale>  0 0.36650110E+03</rscale>
<asrwt>0</asrwt>
<pdfrwt beam="1">  1        2 0.22298360E-01 0.36650110E+03</pdfrwt>
<pdfrwt beam="2">  1       -2 0.30734176E-01 0.36650110E+03</pdfrwt>
<totfact> 0.24108556E+03</totfact>
</mgrwt>
</event>
<event>
 4    1  0.5387486E-005  0.5929743E+03  0.7818608E-02  0.9920090E-01
          2   -1    0    0  501    0  0.00000000000E+00  0.00000000000E+00  0.50651746046E+03  0.50651746047E+03  0.25500000000E-02 0.  1.
         -2   -1    0    0    0  501 -0.00000000000E+00 -0.00000000000E+00 -0.17354709226E+03  0.17354709227E+03  0.25500000000E-02 0. -1.
    5000001    1    1    2    0    0 -0.20036639069E+03 -0.24738203954E+02  0.32835632520E+03  0.41928694894E+03  0.16500000000E+03 0.  0.
   -5000001    1    1    2    0    0  0.20036639069E+03  0.24738203954E+02  0.46140430032E+01  0.26077760380E+03  0.16500000000E+03 0.  0.
<mgrwt>
<rscale>  0 0.59297431E+03</rscale>
<asrwt>0</asrwt>
<pdfrwt beam="1">  1        2 0.72359638E-01 0.59297431E+03</pdfrwt>
<pdfrwt beam="2">  1       -2 0.24792442E-01 0.59297431E+03</pdfrwt>
<totfact> 0.96468285E+02</totfact>
</mgrwt>
</event>
<event>
 4    1  0.5387486E-005  0.4821858E+03  0.7818608E-02  0.1018536E+00
          2   -1    0    0  501    0  0.00000000000E+00  0.00000000000E+00  0.22624442633E+03  0.22624442634E+03  0.25500000000E-02 0.  1.
         -2   -1    0    0    0  501 -0.00000000000E+00 -0.00000000000E+00 -0.25691583752E+03  0.25691583753E+03  0.25500000000E-02 0. -1.
    5000001    1    1    2    0    0  0.34759703419E+02  0.87486895684E+02 -0.16408970767E+03  0.25102315841E+03  0.16500000000E+03 0.  0.
   -5000001    1    1    2    0    0 -0.34759703419E+02 -0.87486895684E+02  0.13341829647E+03  0.23213710546E+03  0.16500000000E+03 0.  0.
<mgrwt>
<rscale>  0 0.48218576E+03</rscale>
<asrwt>0</asrwt>
<pdfrwt beam="1">  1        2 0.32320632E-01 0.48218576E+03</pdfrwt>
<pdfrwt beam="2">  1       -2 0.36702263E-01 0.48218576E+03</pdfrwt>
<totfact> 0.11432702E+03</totfact>
</mgrwt>
</event>
<event>
 4    1  0.5387486E-005  0.5343857E+03  0.7818608E-02  0.1005174E+00
          2   -1    0    0  501    0  0.00000000000E+00  0.00000000000E+00  0.12112420965E+04  0.12112420965E+04  0.25500000000E-02 0.  1.
         -2   -1    0    0    0  501 -0.00000000000E+00 -0.00000000000E+00 -0.58941169818E+02  0.58941169873E+02  0.25500000000E-02 0. -1.
    5000001    1    1    2    0    0 -0.11923286839E+03  0.57366903436E+02  0.96424564530E+03  0.98716873076E+03  0.16500000000E+03 0.  0.
   -5000001    1    1    2    0    0  0.11923286839E+03 -0.57366903436E+02  0.18805528139E+03  0.28301453562E+03  0.16500000000E+03 0.  0.
<mgrwt>
<rscale>  0 0.53438573E+03</rscale>
<asrwt>0</asrwt>
<pdfrwt beam="1">  1        2 0.17303459E+00 0.53438573E+03</pdfrwt>
<pdfrwt beam="2">  1       -2 0.84201671E-02 0.53438573E+03</pdfrwt>
<totfact> 0.19231415E+03</totfact>
</mgrwt>
</event>
<event>
 4    1  0.5387486E-005  0.7937311E+03  0.7818608E-02  0.9569136E-01
          2   -1    0    0  501    0  0.00000000000E+00  0.00000000000E+00  0.27308345514E+03  0.27308345516E+03  0.25500000000E-02 0.  1.
         -2   -1    0    0    0  501 -0.00000000000E+00 -0.00000000000E+00 -0.57675504734E+03  0.57675504735E+03  0.25500000000E-02 0. -1.
    5000001    1    1    2    0    0  0.33696041338E+03  0.60520793109E+02 -0.29420149822E+02  0.38117664121E+03  0.16500000000E+03 0.  0.
   -5000001    1    1    2    0    0 -0.33696041338E+03 -0.60520793109E+02 -0.27425144238E+03  0.46866186129E+03  0.16500000000E+03 0.  0.
<mgrwt>
<rscale>  0 0.79373109E+03</rscale>
<asrwt>0</asrwt>
<pdfrwt beam="1">  1        2 0.39011923E-01 0.79373109E+03</pdfrwt>
<pdfrwt beam="2">  1       -2 0.82393577E-01 0.79373109E+03</pdfrwt>
<totfact> 0.17257006E+02</totfact>
</mgrwt>
</event>
<event>
 4    1  0.5387486E-005  0.4041661E+03  0.7818608E-02  0.1042347E+00
         -2   -1    0    0    0  501 -0.00000000000E+00  0.00000000000E+00  0.22790978948E+02  0.22790979091E+02  0.25500000000E-02 0. -1.
          2   -1    0    0  501    0  0.00000000000E+00 -0.00000000000E+00 -0.17918296305E+04  0.17918296306E+04  0.25500000000E-02 0.  1.
    5000001    1    1    2    0    0  0.68190312868E+01 -0.11633338698E+03 -0.85888604542E+03  0.88232091392E+03  0.16500000000E+03 0.  0.
   -5000001    1    1    2    0    0 -0.68190312868E+01  0.11633338698E+03 -0.91015260618E+03  0.93229969572E+03  0.16500000000E+03 0.  0.
<mgrwt>
<rscale>  0 0.40416606E+03</rscale>
<asrwt>0</asrwt>
<pdfrwt beam="1">  1        2 0.25597557E+00 0.40416606E+03</pdfrwt>
<pdfrwt beam="2">  1       -2 0.32558553E-02 0.40416606E+03</pdfrwt>
<totfact> 0.41854812E+03</totfact>
</mgrwt>
</event>
<event>
 4    1  0.5387486E-005  0.4872849E+03  0.7818608E-02  0.1017152E+00
          2   -1    0    0  501    0  0.00000000000E+00  0.00000000000E+00  0.17210703894E+04  0.17210703894E+04  0.25500000000E-02 0. -1.
         -2   -1    0    0    0  501 -0.00000000000E+00 -0.00000000000E+00 -0.34491114890E+02  0.34491114985E+02  0.25500000000E-02 0.  1.
    5000001    1    1    2    0    0 -0.43176826514E+02  0.17383766754E+03  0.81709505037E+03  0.85261544341E+03  0.16500000000E+03 0.  0.
   -5000001    1    1    2    0    0  0.43176826514E+02 -0.17383766754E+03  0.86948422415E+03  0.90294606098E+03  0.16500000000E+03 0.  0.
<mgrwt>
<rscale>  0 0.48728487E+03</rscale>
<asrwt>0</asrwt>
<pdfrwt beam="1">  1        2 0.24586715E+00 0.48728487E+03</pdfrwt>
<pdfrwt beam="2">  1       -2 0.49273031E-02 0.48728487E+03</pdfrwt>
<totfact> 0.24101488E+03</totfact>
</mgrwt>
</event>
<event>
 4    1  0.5387486E-005  0.5162258E+03  0.7818608E-02  0.1009628E+00
         -2   -1    0    0    0  501 -0.00000000000E+00  0.00000000000E+00  0.17330314200E+03  0.17330314202E+03  0.25500000000E-02 0. -1.
          2   -1    0    0  501    0  0.00000000000E+00 -0.00000000000E+00 -0.38442625669E+03  0.38442625670E+03  0.25500000000E-02 0.  1.
    5000001    1    1    2    0    0 -0.13685427968E+03  0.13407921063E+03 -0.16160651966E+03  0.30007998231E+03  0.16500000000E+03 0.  0.
   -5000001    1    1    2    0    0  0.13685427968E+03 -0.13407921063E+03 -0.49516595025E+02  0.25764941640E+03  0.16500000000E+03 0.  0.
<mgrwt>
<rscale>  0 0.51622583E+03</rscale>
<asrwt>0</asrwt>
<pdfrwt beam="1">  1        2 0.54918036E-01 0.51622583E+03</pdfrwt>
<pdfrwt beam="2">  1       -2 0.24757592E-01 0.51622583E+03</pdfrwt>
<totfact> 0.13172478E+03</totfact>
</mgrwt>
</event>
<event>
 4    1  0.5387486E-005  0.4087924E+03  0.7818608E-02  0.1040777E+00
         -2   -1    0    0    0  501 -0.00000000000E+00  0.00000000000E+00  0.12332157941E+02  0.12332158204E+02  0.25500000000E-02 0. -1.
          2   -1    0    0  501    0  0.00000000000E+00 -0.00000000000E+00 -0.33877130289E+04  0.33877130289E+04  0.25500000000E-02 0.  1.
    5000001    1    1    2    0    0  0.57583911037E+02  0.43104562723E+02 -0.88220469996E+03  0.90037994356E+03  0.16500000000E+03 0.  0.
   -5000001    1    1    2    0    0 -0.57583911037E+02 -0.43104562723E+02 -0.24931761710E+04  0.24996652436E+04  0.16500000000E+03 0.  0.
<mgrwt>
<rscale>  0 0.40879243E+03</rscale>
<asrwt>0</asrwt>
<pdfrwt beam="1">  1        2 0.48395841E+00 0.40879243E+03</pdfrwt>
<pdfrwt beam="2">  1       -2 0.17617390E-02 0.40879243E+03</pdfrwt>
<totfact> 0.15584011E+03</totfact>
</mgrwt>
</event>
<event>
 4    1  0.5387486E-005  0.8646549E+03  0.7818608E-02  0.9470876E-01
          2   -1    0    0  501    0  0.00000000000E+00  0.00000000000E+00  0.24409636582E+03  0.24409636583E+03  0.25500000000E-02 0. -1.
         -2   -1    0    0    0  501 -0.00000000000E+00 -0.00000000000E+00 -0.76570994434E+03  0.76570994435E+03  0.25500000000E-02 0.  1.
    5000001    1    1    2    0    0 -0.92066891599E+02  0.26875969776E+03 -0.58900571195E+03  0.67443370051E+03  0.16500000000E+03 0.  0.
   -5000001    1    1    2    0    0  0.92066891599E+02 -0.26875969776E+03  0.67392133430E+02  0.33537260967E+03  0.16500000000E+03 0.  0.
<mgrwt>
<rscale>  0 0.86465488E+03</rscale>
<asrwt>0</asrwt>
<pdfrwt beam="1">  1        2 0.34870910E-01 0.86465488E+03</pdfrwt>
<pdfrwt beam="2">  1       -2 0.10938713E+00 0.86465488E+03</pdfrwt>
<totfact> 0.10051026E+02</totfact>
</mgrwt>
</event>
<event>
 4    1  0.5387486E-005  0.7015292E+03  0.7818608E-02  0.9714621E-01
          2   -1    0    0  501    0  0.00000000000E+00  0.00000000000E+00  0.42129244257E+03  0.42129244258E+03  0.25500000000E-02 0.  1.
         -2   -1    0    0    0  501 -0.00000000000E+00 -0.00000000000E+00 -0.29204368975E+03  0.29204368976E+03  0.25500000000E-02 0. -1.
    5000001    1    1    2    0    0 -0.29613736421E+03 -0.50749564690E+02  0.14029419702E+03  0.37037861509E+03  0.16500000000E+03 0.  0.
   -5000001    1    1    2    0    0  0.29613736421E+03  0.50749564690E+02 -0.11045444204E+02  0.34295751725E+03  0.16500000000E+03 0.  0.
<mgrwt>
<rscale>  0 0.70152919E+03</rscale>
<asrwt>0</asrwt>
<pdfrwt beam="1">  1        2 0.60184635E-01 0.70152919E+03</pdfrwt>
<pdfrwt beam="2">  1       -2 0.41720527E-01 0.70152919E+03</pdfrwt>
<totfact> 0.44718144E+02</totfact>
</mgrwt>
</event>
<event>
 4    1  0.5387486E-005  0.9106125E+03  0.7818608E-02  0.9412412E-01
         -2   -1    0    0    0  501 -0.00000000000E+00  0.00000000000E+00  0.52461638261E+03  0.52461638261E+03  0.25500000000E-02 0. -1.
          2   -1    0    0  501    0  0.00000000000E+00 -0.00000000000E+00 -0.39515306117E+03  0.39515306118E+03  0.25500000000E-02 0.  1.
    5000001    1    1    2    0    0 -0.10793375478E+03 -0.40991975779E+03  0.44660596189E+02  0.45705959360E+03  0.16500000000E+03 0.  0.
   -5000001    1    1    2    0    0  0.10793375478E+03  0.40991975779E+03  0.84802725251E+02  0.46270985019E+03  0.16500000000E+03 0.  0.
<mgrwt>
<rscale>  0 0.91061247E+03</rscale>
<asrwt>0</asrwt>
<pdfrwt beam="1">  1        2 0.56450437E-01 0.91061247E+03</pdfrwt>
<pdfrwt beam="2">  1       -2 0.74945198E-01 0.91061247E+03</pdfrwt>
<totfact> 0.14071016E+02</totfact>
</mgrwt>
</event>
<event>
 4    1  0.5387486E-005  0.3480143E+03  0.7818608E-02  0.1063433E+00
          2   -1    0    0  501    0  0.00000000000E+00  0.00000000000E+00  0.21250356012E+03  0.21250356014E+03  0.25500000000E-02 0.  1.
         -2   -1    0    0    0  501 -0.00000000000E+00 -0.00000000000E+00 -0.14248458015E+03  0.14248458018E+03  0.25500000000E-02 0. -1.
    5000001    1    1    2    0    0  0.39129165061E+01 -0.54303058622E+02  0.25367694502E+02  0.17559229202E+03  0.16500000000E+03 0.  0.
   -5000001    1    1    2    0    0 -0.39129165061E+01  0.54303058622E+02  0.44651285466E+02  0.17939584829E+03  0.16500000000E+03 0.  0.
<mgrwt>
<rscale>  0 0.34801426E+03</rscale>
<asrwt>0</asrwt>
<pdfrwt beam="1">  1        2 0.30357651E-01 0.34801426E+03</pdfrwt>
<pdfrwt beam="2">  1       -2 0.20354940E-01 0.34801426E+03</pdfrwt>
<totfact> 0.35424396E+03</totfact>
</mgrwt>
</event>
<event>
 4    1  0.5387486E-005  0.4417921E+03  0.7818608E-02  0.1030198E+00
          2   -1    0    0  501    0  0.00000000000E+00  0.00000000000E+00  0.32492731966E+04  0.32492731966E+04  0.25500000000E-02 0.  1.
         -2   -1    0    0    0  501 -0.00000000000E+00 -0.00000000000E+00 -0.15017220985E+02  0.15017221201E+02  0.25500000000E-02 0. -1.
    5000001    1    1    2    0    0  0.12287080182E+03  0.25535503447E+02  0.21808443869E+04  0.21906749042E+04  0.16500000000E+03 0.  0.
   -5000001    1    1    2    0    0 -0.12287080182E+03 -0.25535503447E+02  0.10534115887E+04  0.10736155136E+04  0.16500000000E+03 0.  0.
<mgrwt>
<rscale>  0 0.44179205E+03</rscale>
<asrwt>0</asrwt>
<pdfrwt beam="1">  1        2 0.46418244E+00 0.44179205E+03</pdfrwt>
<pdfrwt beam="2">  1       -2 0.21453148E-02 0.44179205E+03</pdfrwt>
<totfact> 0.13878916E+03</totfact>
</mgrwt>
</event>
<event>
 4    1  0.5387486E-005  0.6635477E+03  0.7818608E-02  0.9781685E-01
          2   -1    0    0  501    0  0.00000000000E+00  0.00000000000E+00  0.18463232135E+04  0.18463232136E+04  0.25500000000E-02 0.  1.
         -2   -1    0    0    0  501 -0.00000000000E+00 -0.00000000000E+00 -0.59617894420E+02  0.59617894474E+02  0.25500000000E-02 0. -1.
    5000001    1    1    2    0    0  0.97049634310E+02  0.26970311691E+03  0.81787489356E+03  0.88221468153E+03  0.16500000000E+03 0.  0.
   -5000001    1    1    2    0    0 -0.97049634310E+02 -0.26970311691E+03  0.96883042557E+03  0.10237264265E+04  0.16500000000E+03 0.  0.
<mgrwt>
<rscale>  0 0.66354774E+03</rscale>
<asrwt>0</asrwt>
<pdfrwt beam="1">  1        2 0.26376043E+00 0.66354774E+03</pdfrwt>
<pdfrwt beam="2">  1       -2 0.85168430E-02 0.66354774E+03</pdfrwt>
<totfact> 0.87500419E+02</totfact>
</mgrwt>
</event>
<event>
 4    1  0.5387486E-005  0.6212184E+03  0.7818608E-02  0.9862337E-01
         -2   -1    0    0    0  501 -0.00000000000E+00  0.00000000000E+00  0.58099704920E+03  0.58099704920E+03  0.25500000000E-02 0. -1.
          2   -1    0    0  501    0  0.00000000000E+00 -0.00000000000E+00 -0.16605603290E+03  0.16605603292E+03  0.25500000000E-02 0.  1.
    5000001    1    1    2    0    0 -0.13575811151E+03  0.22501997809E+03  0.22399466757E+03  0.38270467267E+03  0.16500000000E+03 0.  0.
   -5000001    1    1    2    0    0  0.13575811151E+03 -0.22501997809E+03  0.19094634872E+03  0.36434840946E+03  0.16500000000E+03 0.  0.
<mgrwt>
<rscale>  0 0.62121837E+03</rscale>
<asrwt>0</asrwt>
<pdfrwt beam="1">  1        2 0.23722291E-01 0.62121837E+03</pdfrwt>
<pdfrwt beam="2">  1       -2 0.82999577E-01 0.62121837E+03</pdfrwt>
<totfact> 0.29922896E+02</totfact>
</mgrwt>
</event>
<event>
 4    1  0.5387486E-005  0.5268747E+03  0.7818608E-02  0.1006993E+00
          2   -1    0    0  501    0  0.00000000000E+00  0.00000000000E+00  0.11195427634E+04  0.11195427634E+04  0.25500000000E-02 0.  1.
         -2   -1    0    0    0  501 -0.00000000000E+00 -0.00000000000E+00 -0.61988917460E+02  0.61988917512E+02  0.25500000000E-02 0. -1.
    5000001    1    1    2    0    0 -0.40116133992E+02  0.15982597459E+03  0.25393586487E+03  0.34476378845E+03  0.16500000000E+03 0.  0.
   -5000001    1    1    2    0    0  0.40116133992E+02 -0.15982597459E+03  0.80361798106E+03  0.83676789246E+03  0.16500000000E+03 0.  0.
<mgrwt>
<rscale>  0 0.52687473E+03</rscale>
<asrwt>0</asrwt>
<pdfrwt beam="1">  1        2 0.15993467E+00 0.52687473E+03</pdfrwt>
<pdfrwt beam="2">  1       -2 0.88555600E-02 0.52687473E+03</pdfrwt>
<totfact> 0.19992242E+03</totfact>
</mgrwt>
</event>
<event>
 4    1  0.5387486E-005  0.4979109E+03  0.7818608E-02  0.1014326E+00
         -2   -1    0    0    0  501 -0.00000000000E+00  0.00000000000E+00  0.33752420873E+02  0.33752420969E+02  0.25500000000E-02 0. -1.
          2   -1    0    0  501    0  0.00000000000E+00 -0.00000000000E+00 -0.18362773660E+04  0.18362773660E+04  0.25500000000E-02 0.  1.
    5000001    1    1    2    0    0  0.59728462842E+02  0.16340374204E+03 -0.64972423140E+03  0.69255674790E+03  0.16500000000E+03 0.  0.
   -5000001    1    1    2    0    0 -0.59728462842E+02 -0.16340374204E+03 -0.11528007137E+04  0.11774730391E+04  0.16500000000E+03 0.  0.
<mgrwt>
<rscale>  0 0.49791086E+03</rscale>
<asrwt>0</asrwt>
<pdfrwt beam="1">  1        2 0.26232527E+00 0.49791086E+03</pdfrwt>
<pdfrwt beam="2">  1       -2 0.48217756E-02 0.49791086E+03</pdfrwt>
<totfact> 0.21804928E+03</totfact>
</mgrwt>
</event>
<event>
 4    1  0.5387486E-005  0.5350283E+03  0.7818608E-02  0.1005020E+00
          2   -1    0    0  501    0  0.00000000000E+00  0.00000000000E+00  0.64736924302E+03  0.64736924303E+03  0.25500000000E-02 0.  1.
         -2   -1    0    0    0  501 -0.00000000000E+00 -0.00000000000E+00 -0.11054561195E+03  0.11054561198E+03  0.25500000000E-02 0. -1.
    5000001    1    1    2    0    0  0.14064236789E+03 -0.14692625744E+03  0.34562858982E+03  0.43364930863E+03  0.16500000000E+03 0.  0.
   -5000001    1    1    2    0    0 -0.14064236789E+03  0.14692625744E+03  0.19119504124E+03  0.32426554638E+03  0.16500000000E+03 0.  0.
<mgrwt>
<rscale>  0 0.53502833E+03</rscale>
<asrwt>0</asrwt>
<pdfrwt beam="1">  1        2 0.92481321E-01 0.53502833E+03</pdfrwt>
<pdfrwt beam="2">  1       -2 0.15792230E-01 0.53502833E+03</pdfrwt>
<totfact> 0.15883604E+03</totfact>
</mgrwt>
</event>
<event>
 4    1  0.5387486E-005  0.4299859E+03  0.7818608E-02  0.1033864E+00
         -2   -1    0    0    0  501 -0.00000000000E+00  0.00000000000E+00  0.22559593181E+03  0.22559593183E+03  0.25500000000E-02 0. -1.
          2   -1    0    0  501    0  0.00000000000E+00 -0.00000000000E+00 -0.20488827599E+03  0.20488827600E+03  0.25500000000E-02 0.  1.
    5000001    1    1    2    0    0 -0.17576566374E+02  0.12927946124E+03 -0.34136923781E+02  0.21310195764E+03  0.16500000000E+03 0.  0.
   -5000001    1    1    2    0    0  0.17576566374E+02 -0.12927946124E+03  0.54844579607E+02  0.21738225019E+03  0.16500000000E+03 0.  0.
<mgrwt>
<rscale>  0 0.42998587E+03</rscale>
<asrwt>0</asrwt>
<pdfrwt beam="1">  1        2 0.29269754E-01 0.42998587E+03</pdfrwt>
<pdfrwt beam="2">  1       -2 0.32227990E-01 0.42998587E+03</pdfrwt>
<totfact> 0.16287532E+03</totfact>
</mgrwt>
</event>
<event>
 4    1  0.5387486E-005  0.7364058E+03  0.7818608E-02  0.9656922E-01
         -2   -1    0    0    0  501 -0.00000000000E+00  0.00000000000E+00  0.55653265611E+02  0.55653265670E+02  0.25500000000E-02 0. -1.
          2   -1    0    0  501    0  0.00000000000E+00 -0.00000000000E+00 -0.24360363563E+04  0.24360363563E+04  0.25500000000E-02 0.  1.
    5000001    1    1    2    0    0  0.31229774615E+03  0.86360598889E+02 -0.13863326212E+04  0.14332240481E+04  0.16500000000E+03 0.  0.
   -5000001    1    1    2    0    0 -0.31229774615E+03 -0.86360598889E+02 -0.99405046943E+03  0.10584655739E+04  0.16500000000E+03 0.  0.
<mgrwt>
<rscale>  0 0.73640581E+03</rscale>
<asrwt>0</asrwt>
<pdfrwt beam="1">  1        2 0.34800513E+00 0.73640581E+03</pdfrwt>
<pdfrwt beam="2">  1       -2 0.79504681E-02 0.73640581E+03</pdfrwt>
<totfact> 0.48852502E+02</totfact>
</mgrwt>
</event>
<event>
 4    1  0.5387486E-005  0.4653802E+03  0.7818608E-02  0.1023232E+00
         -2   -1    0    0    0  501 -0.00000000000E+00  0.00000000000E+00  0.69888284303E+02  0.69888284349E+02  0.25500000000E-02 0. -1.
          2   -1    0    0  501    0  0.00000000000E+00 -0.00000000000E+00 -0.77473176020E+03  0.77473176021E+03  0.25500000000E-02 0.  1.
    5000001    1    1    2    0    0 -0.22465663973E+02  0.79587813862E+02 -0.95238029306E+02  0.20768776661E+03  0.16500000000E+03 0.  0.
   -5000001    1    1    2    0    0  0.22465663973E+02 -0.79587813862E+02 -0.60960544659E+03  0.63693227795E+03  0.16500000000E+03 0.  0.
<mgrwt>
<rscale>  0 0.46538016E+03</rscale>
<asrwt>0</asrwt>
<pdfrwt beam="1">  1        2 0.11067596E+00 0.46538016E+03</pdfrwt>
<pdfrwt beam="2">  1       -2 0.99840411E-02 0.46538016E+03</pdfrwt>
<totfact> 0.27143689E+03</totfact>
</mgrwt>
</event>
<event>
 4    1  0.5387486E-005  0.4290477E+03  0.7818608E-02  0.1034161E+00
          2   -1    0    0  501    0  0.00000000000E+00  0.00000000000E+00  0.16534818798E+03  0.16534818800E+03  0.25500000000E-02 0.  1.
         -2   -1    0    0    0  501 -0.00000000000E+00 -0.00000000000E+00 -0.27832468084E+03  0.27832468085E+03  0.25500000000E-02 0. -1.
    5000001    1    1    2    0    0  0.73861322978E+02  0.10528997547E+03 -0.73935032067E+01  0.20933498956E+03  0.16500000000E+03 0.  0.
   -5000001    1    1    2    0    0 -0.73861322978E+02 -0.10528997547E+03 -0.10558298965E+03  0.23433787929E+03  0.16500000000E+03 0.  0.
<mgrwt>
<rscale>  0 0.42904770E+03</rscale>
<asrwt>0</asrwt>
<pdfrwt beam="1">  1        2 0.23621170E-01 0.42904770E+03</pdfrwt>
<pdfrwt beam="2">  1       -2 0.39760669E-01 0.42904770E+03</pdfrwt>
<totfact> 0.13943640E+03</totfact>
</mgrwt>
</event>
<event>
 4    1  0.5387486E-005  0.4351140E+03  0.7818608E-02  0.1032257E+00
         -2   -1    0    0    0  501 -0.00000000000E+00  0.00000000000E+00  0.73642484261E+02  0.73642484305E+02  0.25500000000E-02 0. -1.
          2   -1    0    0  501    0  0.00000000000E+00 -0.00000000000E+00 -0.64271386814E+03  0.64271386815E+03  0.25500000000E-02 0.  1.
    5000001    1    1    2    0    0  0.12507374400E+03 -0.61469870240E+02 -0.32759559281E+03  0.39238483509E+03  0.16500000000E+03 0.  0.
   -5000001    1    1    2    0    0 -0.12507374400E+03  0.61469870240E+02 -0.24147579108E+03  0.32397151736E+03  0.16500000000E+03 0.  0.
<mgrwt>
<rscale>  0 0.43511399E+03</rscale>
<asrwt>0</asrwt>
<pdfrwt beam="1">  1        2 0.91816263E-01 0.43511399E+03</pdfrwt>
<pdfrwt beam="2">  1       -2 0.10520355E-01 0.43511399E+03</pdfrwt>
<totfact> 0.31282525E+03</totfact>
</mgrwt>
</event>
<event>
 4    1  0.5387486E-005  0.5277195E+03  0.7818608E-02  0.1006787E+00
          2   -1    0    0  501    0  0.00000000000E+00  0.00000000000E+00  0.23108660093E+04  0.23108660093E+04  0.25500000000E-02 0.  1.
         -2   -1    0    0    0  501 -0.00000000000E+00 -0.00000000000E+00 -0.30128088413E+02  0.30128088521E+02  0.25500000000E-02 0. -1.
    5000001    1    1    2    0    0  0.18341609824E+02  0.17247091682E+03  0.16326383016E+04  0.16500955898E+04  0.16500000000E+03 0.  0.
   -5000001    1    1    2    0    0 -0.18341609824E+02 -0.17247091682E+03  0.64809961932E+03  0.69089850800E+03  0.16500000000E+03 0.  0.
<mgrwt>
<rscale>  0 0.52771953E+03</rscale>
<asrwt>0</asrwt>
<pdfrwt beam="1">  1        2 0.33012382E+00 0.52771953E+03</pdfrwt>
<pdfrwt beam="2">  1       -2 0.43040112E-02 0.52771953E+03</pdfrwt>
<totfact> 0.15009281E+03</totfact>
</mgrwt>
</event>
<event>
 4    1  0.5387486E-005  0.5828638E+03  0.7818608E-02  0.9941610E-01
          2   -1    0    0  501    0  0.00000000000E+00  0.00000000000E+00  0.61757948485E+03  0.61757948486E+03  0.25500000000E-02 0.  1.
         -2   -1    0    0    0  501 -0.00000000000E+00 -0.00000000000E+00 -0.13752487132E+03  0.13752487134E+03  0.25500000000E-02 0. -1.
    5000001    1    1    2    0    0  0.23817390663E+03  0.23492556300E+02  0.21319968979E+03  0.36049662652E+03  0.16500000000E+03 0.  0.
   -5000001    1    1    2    0    0 -0.23817390663E+03 -0.23492556300E+02  0.26685492374E+03  0.39460772968E+03  0.16500000000E+03 0.  0.
<mgrwt>
<rscale>  0 0.58286375E+03</rscale>
<asrwt>0</asrwt>
<pdfrwt beam="1">  1        2 0.88225645E-01 0.58286375E+03</pdfrwt>
<pdfrwt beam="2">  1       -2 0.19646409E-01 0.58286375E+03</pdfrwt>
<totfact> 0.11555604E+03</totfact>
</mgrwt>
</event>
<event>
 4    1  0.5387486E-005  0.5350957E+03  0.7818608E-02  0.1005004E+00
          2   -1    0    0  501    0  0.00000000000E+00  0.00000000000E+00  0.64904207977E+03  0.64904207977E+03  0.25500000000E-02 0.  1.
         -2   -1    0    0    0  501 -0.00000000000E+00 -0.00000000000E+00 -0.11028844457E+03  0.11028844460E+03  0.25500000000E-02 0. -1.
    5000001    1    1    2    0    0 -0.56051284766E+02  0.20286358562E+03  0.25825187755E+03  0.37177199082E+03  0.16500000000E+03 0.  0.
   -5000001    1    1    2    0    0  0.56051284766E+02 -0.20286358562E+03  0.28050175764E+03  0.38755853356E+03  0.16500000000E+03 0.  0.
<mgrwt>
<rscale>  0 0.53509566E+03</rscale>
<asrwt>0</asrwt>
<pdfrwt beam="1">  1        2 0.92720299E-01 0.53509566E+03</pdfrwt>
<pdfrwt beam="2">  1       -2 0.15755492E-01 0.53509566E+03</pdfrwt>
<totfact> 0.15897137E+03</totfact>
</mgrwt>
</event>
<event>
 4    1  0.5387486E-005  0.8245847E+03  0.7818608E-02  0.9525098E-01
         -2   -1    0    0    0  501 -0.00000000000E+00  0.00000000000E+00  0.60344910577E+03  0.60344910577E+03  0.25500000000E-02 0. -1.
          2   -1    0    0  501    0  0.00000000000E+00 -0.00000000000E+00 -0.28168898276E+03  0.28168898277E+03  0.25500000000E-02 0.  1.
    5000001    1    1    2    0    0  0.16179893574E+03  0.32960660151E+03  0.25653365131E+03  0.47734046719E+03  0.16500000000E+03 0.  0.
   -5000001    1    1    2    0    0 -0.16179893574E+03 -0.32960660151E+03  0.65226471695E+02  0.40779762135E+03  0.16500000000E+03 0.  0.
<mgrwt>
<rscale>  0 0.82458466E+03</rscale>
<asrwt>0</asrwt>
<pdfrwt beam="1">  1        2 0.40241284E-01 0.82458466E+03</pdfrwt>
<pdfrwt beam="2">  1       -2 0.86207013E-01 0.82458466E+03</pdfrwt>
<totfact> 0.15024384E+02</totfact>
</mgrwt>
</event>
<event>
 4    1  0.5387486E-005  0.7947353E+03  0.7818608E-02  0.9567669E-01
         -2   -1    0    0    0  501 -0.00000000000E+00  0.00000000000E+00  0.59084766919E+03  0.59084766920E+03  0.25500000000E-02 0. -1.
          2   -1    0    0  501    0  0.00000000000E+00 -0.00000000000E+00 -0.26724496141E+03  0.26724496142E+03  0.25500000000E-02 0.  1.
    5000001    1    1    2    0    0 -0.43321388177E+01  0.36132244087E+03  0.15082271474E+03  0.42490606608E+03  0.16500000000E+03 0.  0.
   -5000001    1    1    2    0    0  0.43321388177E+01 -0.36132244087E+03  0.17277999304E+03  0.43318656454E+03  0.16500000000E+03 0.  0.
<mgrwt>
<rscale>  0 0.79473533E+03</rscale>
<asrwt>0</asrwt>
<pdfrwt beam="1">  1        2 0.38177852E-01 0.79473533E+03</pdfrwt>
<pdfrwt beam="2">  1       -2 0.84406809E-01 0.79473533E+03</pdfrwt>
<totfact> 0.16735783E+02</totfact>
</mgrwt>
</event>
<event>
 4    1  0.5387486E-005  0.5489259E+03  0.7818608E-02  0.1001743E+00
         -2   -1    0    0    0  501 -0.00000000000E+00  0.00000000000E+00  0.79631645471E+02  0.79631645512E+02  0.25500000000E-02 0. -1.
          2   -1    0    0  501    0  0.00000000000E+00 -0.00000000000E+00 -0.94597965470E+03  0.94597965470E+03  0.25500000000E-02 0.  1.
    5000001    1    1    2    0    0 -0.43378223967E+02  0.20971102641E+03 -0.52169207133E+03  0.58757808179E+03  0.16500000000E+03 0.  0.
   -5000001    1    1    2    0    0  0.43378223967E+02 -0.20971102641E+03 -0.34465593790E+03  0.43803321842E+03  0.16500000000E+03 0.  0.
<mgrwt>
<rscale>  0 0.54892592E+03</rscale>
<asrwt>0</asrwt>
<pdfrwt beam="1">  1        2 0.13513994E+00 0.54892592E+03</pdfrwt>
<pdfrwt beam="2">  1       -2 0.11375950E-01 0.54892592E+03</pdfrwt>
<totfact> 0.16927802E+03</totfact>
</mgrwt>
</event>
<event>
 4    1  0.5387486E-005  0.4122451E+03  0.7818608E-02  0.1039620E+00
         -2   -1    0    0    0  501 -0.00000000000E+00  0.00000000000E+00  0.43777051583E+02  0.43777051657E+02  0.25500000000E-02 0. -1.
          2   -1    0    0  501    0  0.00000000000E+00 -0.00000000000E+00 -0.97052019955E+03  0.97052019956E+03  0.25500000000E-02 0.  1.
    5000001    1    1    2    0    0  0.90050083220E+02 -0.48098618315E+02 -0.29221706628E+03  0.35076816902E+03  0.16500000000E+03 0.  0.
   -5000001    1    1    2    0    0 -0.90050083220E+02  0.48098618315E+02 -0.63452608169E+03  0.66352908220E+03  0.16500000000E+03 0.  0.
<mgrwt>
<rscale>  0 0.41224514E+03</rscale>
<asrwt>0</asrwt>
<pdfrwt beam="1">  1        2 0.13864573E+00 0.41224514E+03</pdfrwt>
<pdfrwt beam="2">  1       -2 0.62538651E-02 0.41224514E+03</pdfrwt>
<totfact> 0.42358058E+03</totfact>
</mgrwt>
</event>
<event>
 4    1  0.5387486E-005  0.1282175E+04  0.7818608E-02  0.9043821E-01
          2   -1    0    0  501    0  0.00000000000E+00  0.00000000000E+00  0.83248152482E+03  0.83248152483E+03  0.25500000000E-02 0.  1.
         -2   -1    0    0    0  501 -0.00000000000E+00 -0.00000000000E+00 -0.49369649557E+03  0.49369649557E+03  0.25500000000E-02 0. -1.
    5000001    1    1    2    0    0 -0.37007759578E+03  0.35802513025E+03 -0.18685312503E+03  0.57208260865E+03  0.16500000000E+03 0.  0.
   -5000001    1    1    2    0    0  0.37007759578E+03 -0.35802513025E+03  0.52563815429E+03  0.75409541175E+03  0.16500000000E+03 0.  0.
<mgrwt>
<rscale>  0 0.12821750E+04</rscale>
<asrwt>0</asrwt>
<pdfrwt beam="1">  1        2 0.11892593E+00 0.12821750E+04</pdfrwt>
<pdfrwt beam="2">  1       -2 0.70528070E-01 0.12821750E+04</pdfrwt>
<totfact> 0.64847580E+01</totfact>
</mgrwt>
</event>
<event>
 4    1  0.5387486E-005  0.6166042E+03  0.7818608E-02  0.9871544E-01
         -2   -1    0    0    0  501 -0.00000000000E+00  0.00000000000E+00  0.88873314833E+02  0.88873314869E+02  0.25500000000E-02 0. -1.
          2   -1    0    0  501    0  0.00000000000E+00 -0.00000000000E+00 -0.10695018612E+04  0.10695018612E+04  0.25500000000E-02 0.  1.
    5000001    1    1    2    0    0 -0.39167435110E+02  0.24395249191E+03 -0.33564565835E+03  0.44825206553E+03  0.16500000000E+03 0.  0.
   -5000001    1    1    2    0    0  0.39167435110E+02 -0.24395249191E+03 -0.64498288799E+03  0.71012311051E+03  0.16500000000E+03 0.  0.
<mgrwt>
<rscale>  0 0.61660417E+03</rscale>
<asrwt>0</asrwt>
<pdfrwt beam="1">  1        2 0.15278597E+00 0.61660417E+03</pdfrwt>
<pdfrwt beam="2">  1       -2 0.12696188E-01 0.61660417E+03</pdfrwt>
<totfact> 0.11875456E+03</totfact>
</mgrwt>
</event>
<event>
 4    1  0.5387486E-005  0.5546127E+03  0.7818608E-02  0.1000432E+00
          2   -1    0    0  501    0  0.00000000000E+00  0.00000000000E+00  0.19141363042E+04  0.19141363042E+04  0.25500000000E-02 0.  1.
         -2   -1    0    0    0  501 -0.00000000000E+00 -0.00000000000E+00 -0.40174159017E+02  0.40174159098E+02  0.25500000000E-02 0. -1.
    5000001    1    1    2    0    0  0.10707337549E+03 -0.17267653317E+03  0.12597817907E+04  0.12866845196E+04  0.16500000000E+03 0.  0.
   -5000001    1    1    2    0    0 -0.10707337549E+03  0.17267653317E+03  0.61418035449E+03  0.66762594369E+03  0.16500000000E+03 0.  0.
<mgrwt>
<rscale>  0 0.55461272E+03</rscale>
<asrwt>0</asrwt>
<pdfrwt beam="1">  1        2 0.27344802E+00 0.55461272E+03</pdfrwt>
<pdfrwt beam="2">  1       -2 0.57391660E-02 0.55461272E+03</pdfrwt>
<totfact> 0.15179876E+03</totfact>
</mgrwt>
</event>
<event>
 4    1  0.5387486E-005  0.5853666E+03  0.7818608E-02  0.9936239E-01
         -2   -1    0    0    0  501 -0.00000000000E+00  0.00000000000E+00  0.19748987881E+03  0.19748987883E+03  0.25500000000E-02 0. -1.
          2   -1    0    0  501    0  0.00000000000E+00 -0.00000000000E+00 -0.43376157464E+03  0.43376157465E+03  0.25500000000E-02 0.  1.
    5000001    1    1    2    0    0  0.18304424877E+02  0.23380970524E+03 -0.54919119799E+02  0.29196427856E+03  0.16500000000E+03 0.  0.
   -5000001    1    1    2    0    0 -0.18304424877E+02 -0.23380970524E+03 -0.18135257603E+03  0.33928717492E+03  0.16500000000E+03 0.  0.
<mgrwt>
<rscale>  0 0.58536662E+03</rscale>
<asrwt>0</asrwt>
<pdfrwt beam="1">  1        2 0.61965939E-01 0.58536662E+03</pdfrwt>
<pdfrwt beam="2">  1       -2 0.28212840E-01 0.58536662E+03</pdfrwt>
<totfact> 0.90943255E+02</totfact>
</mgrwt>
</event>
<event>
 4    1  0.5387486E-005  0.5774927E+03  0.7818608E-02  0.9953234E-01
         -2   -1    0    0    0  501 -0.00000000000E+00  0.00000000000E+00  0.11897347752E+03  0.11897347755E+03  0.25500000000E-02 0. -1.
          2   -1    0    0  501    0  0.00000000000E+00 -0.00000000000E+00 -0.70078176758E+03  0.70078176758E+03  0.25500000000E-02 0.  1.
    5000001    1    1    2    0    0 -0.22938164095E+03  0.33059662267E+02 -0.36103077349E+03  0.45964888544E+03  0.16500000000E+03 0.  0.
   -5000001    1    1    2    0    0  0.22938164095E+03 -0.33059662267E+02 -0.22077751656E+03  0.36010635969E+03  0.16500000000E+03 0.  0.
<mgrwt>
<rscale>  0 0.57749266E+03</rscale>
<asrwt>0</asrwt>
<pdfrwt beam="1">  1        2 0.10011168E+00 0.57749266E+03</pdfrwt>
<pdfrwt beam="2">  1       -2 0.16996212E-01 0.57749266E+03</pdfrwt>
<totfact> 0.12738355E+03</totfact>
</mgrwt>
</event>
<event>
 4    1  0.5387486E-005  0.5563641E+03  0.7818608E-02  0.1000032E+00
          2   -1    0    0  501    0  0.00000000000E+00  0.00000000000E+00  0.13755999781E+03  0.13755999784E+03  0.25500000000E-02 0.  1.
         -2   -1    0    0    0  501 -0.00000000000E+00 -0.00000000000E+00 -0.56255630031E+03  0.56255630032E+03  0.25500000000E-02 0. -1.
    5000001    1    1    2    0    0  0.15323596130E+03 -0.59973102539E+02 -0.40368139021E+03  0.46611339571E+03  0.16500000000E+03 0.  0.
   -5000001    1    1    2    0    0 -0.15323596130E+03  0.59973102539E+02 -0.21314912293E+02  0.23400290244E+03  0.16500000000E+03 0.  0.
<mgrwt>
<rscale>  0 0.55636407E+03</rscale>
<asrwt>0</asrwt>
<pdfrwt beam="1">  1        2 0.19651428E-01 0.55636407E+03</pdfrwt>
<pdfrwt beam="2">  1       -2 0.80365185E-01 0.55636407E+03</pdfrwt>
<totfact> 0.40083735E+02</totfact>
</mgrwt>
</event>
<event>
 4    1  0.5387486E-005  0.8278873E+03  0.7818608E-02  0.9520506E-01
          2   -1    0    0  501    0  0.00000000000E+00  0.00000000000E+00  0.21062963569E+04  0.21062963569E+04  0.25500000000E-02 0.  1.
         -2   -1    0    0    0  501 -0.00000000000E+00 -0.00000000000E+00 -0.81351012074E+02  0.81351012114E+02  0.25500000000E-02 0. -1.
    5000001    1    1    2    0    0  0.26651588992E+03  0.20065178971E+03  0.14912768702E+04  0.15370177501E+04  0.16500000000E+03 0.  0.
   -5000001    1    1    2    0    0 -0.26651588992E+03 -0.20065178971E+03  0.53366847461E+03  0.65062961898E+03  0.16500000000E+03 0.  0.
<mgrwt>
<rscale>  0 0.82788729E+03</rscale>
<asrwt>0</asrwt>
<pdfrwt beam="1">  1        2 0.30089951E+00 0.82788729E+03</pdfrwt>
<pdfrwt beam="2">  1       -2 0.11621572E-01 0.82788729E+03</pdfrwt>
<totfact> 0.38580086E+02</totfact>
</mgrwt>
</event>
<event>
 4    1  0.5387486E-005  0.3972905E+03  0.7818608E-02  0.1044722E+00
          2   -1    0    0  501    0  0.00000000000E+00  0.00000000000E+00  0.30663648786E+03  0.30663648787E+03  0.25500000000E-02 0.  1.
         -2   -1    0    0    0  501 -0.00000000000E+00 -0.00000000000E+00 -0.12868637195E+03  0.12868637197E+03  0.25500000000E-02 0. -1.
    5000001    1    1    2    0    0  0.17814024921E+02 -0.61540031631E+02 -0.98255988197E+01  0.17727396134E+03  0.16500000000E+03 0.  0.
   -5000001    1    1    2    0    0 -0.17814024921E+02  0.61540031631E+02  0.18777571473E+03  0.25804889850E+03  0.16500000000E+03 0.  0.
<mgrwt>
<rscale>  0 0.39729051E+03</rscale>
<asrwt>0</asrwt>
<pdfrwt beam="1">  1        2 0.43805212E-01 0.39729051E+03</pdfrwt>
<pdfrwt beam="2">  1       -2 0.18383767E-01 0.39729051E+03</pdfrwt>
<totfact> 0.28310423E+03</totfact>
</mgrwt>
</event>
<event>
 4    1  0.5387486E-005  0.6099217E+03  0.7818608E-02  0.9885033E-01
         -2   -1    0    0    0  501 -0.00000000000E+00  0.00000000000E+00  0.56391000238E+03  0.56391000238E+03  0.25500000000E-02 0. -1.
          2   -1    0    0  501    0  0.00000000000E+00 -0.00000000000E+00 -0.16492192148E+03  0.16492192150E+03  0.25500000000E-02 0.  1.
    5000001    1    1    2    0    0  0.16674157880E+03 -0.18379818462E+03  0.12212932657E+03  0.32206381227E+03  0.16500000000E+03 0.  0.
   -5000001    1    1    2    0    0 -0.16674157880E+03  0.18379818462E+03  0.27685875433E+03  0.40676811160E+03  0.16500000000E+03 0.  0.
<mgrwt>
<rscale>  0 0.60992170E+03</rscale>
<asrwt>0</asrwt>
<pdfrwt beam="1">  1        2 0.23560274E-01 0.60992170E+03</pdfrwt>
<pdfrwt beam="2">  1       -2 0.80558573E-01 0.60992170E+03</pdfrwt>
<totfact> 0.32264347E+02</totfact>
</mgrwt>
</event>
<event>
 4    1  0.5387486E-005  0.4205674E+03  0.7818608E-02  0.1036882E+00
          2   -1    0    0  501    0  0.00000000000E+00  0.00000000000E+00  0.29529393997E+02  0.29529394107E+02  0.25500000000E-02 0.  1.
         -2   -1    0    0    0  501 -0.00000000000E+00 -0.00000000000E+00 -0.14974651659E+04  0.14974651659E+04  0.25500000000E-02 0. -1.
    5000001    1    1    2    0    0 -0.11401082216E+03  0.45652419132E+02 -0.89271416592E+03  0.91610381124E+03  0.16500000000E+03 0.  0.
   -5000001    1    1    2    0    0  0.11401082216E+03 -0.45652419132E+02 -0.57522160603E+03  0.61089074881E+03  0.16500000000E+03 0.  0.
<mgrwt>
<rscale>  0 0.42056742E+03</rscale>
<asrwt>0</asrwt>
<pdfrwt beam="1">  1        2 0.42184858E-02 0.42056742E+03</pdfrwt>
<pdfrwt beam="2">  1       -2 0.21392355E+00 0.42056742E+03</pdfrwt>
<totfact> 0.23249072E+02</totfact>
</mgrwt>
</event>
<event>
 4    1  0.5387486E-005  0.4024357E+03  0.7818608E-02  0.1042940E+00
          2   -1    0    0  501    0  0.00000000000E+00  0.00000000000E+00  0.18122676593E+04  0.18122676593E+04  0.25500000000E-02 0.  1.
         -2   -1    0    0    0  501 -0.00000000000E+00 -0.00000000000E+00 -0.22341414072E+02  0.22341414217E+02  0.25500000000E-02 0. -1.
    5000001    1    1    2    0    0  0.11628061648E+02  0.10853151406E+03  0.10624206502E+04  0.10806835519E+04  0.16500000000E+03 0.  0.
   -5000001    1    1    2    0    0 -0.11628061648E+02 -0.10853151406E+03  0.72750559506E+03  0.75392552166E+03  0.16500000000E+03 0.  0.
<mgrwt>
<rscale>  0 0.40243570E+03</rscale>
<asrwt>0</asrwt>
<pdfrwt beam="1">  1        2 0.25889550E+00 0.40243570E+03</pdfrwt>
<pdfrwt beam="2">  1       -2 0.31916291E-02 0.40243570E+03</pdfrwt>
<totfact> 0.42134480E+03</totfact>
</mgrwt>
</event>
<event>
 4    1  0.5387486E-005  0.9377913E+03  0.7818608E-02  0.9379536E-01
         -2   -1    0    0    0  501 -0.00000000000E+00  0.00000000000E+00  0.22610776669E+03  0.22610776671E+03  0.25500000000E-02 0. -1.
          2   -1    0    0  501    0  0.00000000000E+00 -0.00000000000E+00 -0.97238210945E+03  0.97238210945E+03  0.25500000000E-02 0.  1.
    5000001    1    1    2    0    0  0.43594773171E+02  0.43625994950E+03 -0.39916869214E+03  0.61545421646E+03  0.16500000000E+03 0.  0.
   -5000001    1    1    2    0    0 -0.43594773171E+02 -0.43625994950E+03 -0.34710565062E+03  0.58303565969E+03  0.16500000000E+03 0.  0.
<mgrwt>
<rscale>  0 0.93779134E+03</rscale>
<asrwt>0</asrwt>
<pdfrwt beam="1">  1        2 0.13891173E+00 0.93779134E+03</pdfrwt>
<pdfrwt beam="2">  1       -2 0.32301110E-01 0.93779134E+03</pdfrwt>
<totfact> 0.26038994E+02</totfact>
</mgrwt>
</event>
<event>
 4    1  0.5387486E-005  0.4213624E+03  0.7818608E-02  0.1036624E+00
         -2   -1    0    0    0  501 -0.00000000000E+00  0.00000000000E+00  0.21356424296E+02  0.21356424448E+02  0.25500000000E-02 0. -1.
          2   -1    0    0  501    0  0.00000000000E+00 -0.00000000000E+00 -0.20783703289E+04  0.20783703289E+04  0.25500000000E-02 0.  1.
    5000001    1    1    2    0    0 -0.39588030481E+02 -0.12474907372E+03 -0.10567027988E+04  0.10774856605E+04  0.16500000000E+03 0.  0.
   -5000001    1    1    2    0    0  0.39588030481E+02  0.12474907372E+03 -0.10003111058E+04  0.10222410929E+04  0.16500000000E+03 0.  0.
<mgrwt>
<rscale>  0 0.42136236E+03</rscale>
<asrwt>0</asrwt>
<pdfrwt beam="1">  1        2 0.29690992E+00 0.42136236E+03</pdfrwt>
<pdfrwt beam="2">  1       -2 0.30509191E-02 0.42136236E+03</pdfrwt>
<totfact> 0.33271112E+03</totfact>
</mgrwt>
</event>
<event>
 4    1  0.5387486E-005  0.5103963E+03  0.7818608E-02  0.1011100E+00
         -2   -1    0    0    0  501 -0.00000000000E+00  0.00000000000E+00  0.10048263740E+03  0.10048263743E+03  0.25500000000E-02 0. -1.
          2   -1    0    0  501    0  0.00000000000E+00 -0.00000000000E+00 -0.64813272652E+03  0.64813272653E+03  0.25500000000E-02 0.  1.
    5000001    1    1    2    0    0  0.62350113079E+02 -0.15384445613E+03 -0.42301018834E+03  0.48344417746E+03  0.16500000000E+03 0.  0.
   -5000001    1    1    2    0    0 -0.62350113079E+02  0.15384445613E+03 -0.12463990078E+03  0.26517118650E+03  0.16500000000E+03 0.  0.
<mgrwt>
<rscale>  0 0.51039626E+03</rscale>
<asrwt>0</asrwt>
<pdfrwt beam="1">  1        2 0.92590387E-01 0.51039626E+03</pdfrwt>
<pdfrwt beam="2">  1       -2 0.14354663E-01 0.51039626E+03</pdfrwt>
<totfact> 0.18617977E+03</totfact>
</mgrwt>
</event>
<event>
 4    1  0.5387486E-005  0.3660173E+03  0.7818608E-02  0.1056226E+00
         -2   -1    0    0    0  501 -0.00000000000E+00  0.00000000000E+00  0.97113473307E+02  0.97113473340E+02  0.25500000000E-02 0. -1.
          2   -1    0    0  501    0  0.00000000000E+00 -0.00000000000E+00 -0.34487670729E+03  0.34487670729E+03  0.25500000000E-02 0.  1.
    5000001    1    1    2    0    0 -0.40825472053E+02  0.67331612913E+02 -0.13375930562E+03  0.22653215468E+03  0.16500000000E+03 0.  0.
   -5000001    1    1    2    0    0  0.40825472053E+02 -0.67331612913E+02 -0.11400392836E+03  0.21545802595E+03  0.16500000000E+03 0.  0.
<mgrwt>
<rscale>  0 0.36601735E+03</rscale>
<asrwt>0</asrwt>
<pdfrwt beam="1">  1        2 0.49268101E-01 0.36601735E+03</pdfrwt>
<pdfrwt beam="2">  1       -2 0.13873353E-01 0.36601735E+03</pdfrwt>
<totfact> 0.39882016E+03</totfact>
</mgrwt>
</event>
<event>
 4    1  0.5387486E-005  0.5334259E+03  0.7818608E-02  0.1005405E+00
         -2   -1    0    0    0  501 -0.00000000000E+00  0.00000000000E+00  0.17538390877E+03  0.17538390879E+03  0.25500000000E-02 0. -1.
          2   -1    0    0  501    0  0.00000000000E+00 -0.00000000000E+00 -0.40560050006E+03  0.40560050006E+03  0.25500000000E-02 0.  1.
    5000001    1    1    2    0    0  0.39629323464E+02 -0.15568469001E+03 -0.26164984807E+03  0.34855967779E+03  0.16500000000E+03 0.  0.
   -5000001    1    1    2    0    0 -0.39629323464E+02  0.15568469001E+03  0.31433256792E+02  0.23242473107E+03  0.16500000000E+03 0.  0.
<mgrwt>
<rscale>  0 0.53342591E+03</rscale>
<asrwt>0</asrwt>
<pdfrwt beam="1">  1        2 0.57942929E-01 0.53342591E+03</pdfrwt>
<pdfrwt beam="2">  1       -2 0.25054844E-01 0.53342591E+03</pdfrwt>
<totfact> 0.12151335E+03</totfact>
</mgrwt>
</event>
<event>
 4    1  0.5387486E-005  0.5794827E+03  0.7818608E-02  0.9948911E-01
          2   -1    0    0  501    0  0.00000000000E+00  0.00000000000E+00  0.15708816000E+03  0.15708816002E+03  0.25500000000E-02 0.  1.
         -2   -1    0    0    0  501 -0.00000000000E+00 -0.00000000000E+00 -0.53441368315E+03  0.53441368316E+03  0.25500000000E-02 0. -1.
    5000001    1    1    2    0    0 -0.24956808411E+01 -0.22583773920E+03 -0.98442388773E+02  0.29652119111E+03  0.16500000000E+03 0.  0.
   -5000001    1    1    2    0    0  0.24956808411E+01  0.22583773920E+03 -0.27888313438E+03  0.39498065207E+03  0.16500000000E+03 0.  0.
<mgrwt>
<rscale>  0 0.57948274E+03</rscale>
<asrwt>0</asrwt>
<pdfrwt beam="1">  1        2 0.22441166E-01 0.57948274E+03</pdfrwt>
<pdfrwt beam="2">  1       -2 0.76344811E-01 0.57948274E+03</pdfrwt>
<totfact> 0.38490851E+02</totfact>
</mgrwt>
</event>
<event>
 4    1  0.5387486E-005  0.5464445E+03  0.7818608E-02  0.1002320E+00
          2   -1    0    0  501    0  0.00000000000E+00  0.00000000000E+00  0.87983148091E+03  0.87983148091E+03  0.25500000000E-02 0.  1.
         -2   -1    0    0    0  501 -0.00000000000E+00 -0.00000000000E+00 -0.84846247529E+02  0.84846247568E+02  0.25500000000E-02 0. -1.
    5000001    1    1    2    0    0 -0.18867182885E+03  0.65703234857E+02  0.55049470968E+03  0.60842698778E+03  0.16500000000E+03 0.  0.
   -5000001    1    1    2    0    0  0.18867182885E+03 -0.65703234857E+02  0.24449052370E+03  0.35625074070E+03  0.16500000000E+03 0.  0.
<mgrwt>
<rscale>  0 0.54644451E+03</rscale>
<asrwt>0</asrwt>
<pdfrwt beam="1">  1        2 0.12569021E+00 0.54644451E+03</pdfrwt>
<pdfrwt beam="2">  1       -2 0.12120893E-01 0.54644451E+03</pdfrwt>
<totfact> 0.16813970E+03</totfact>
</mgrwt>
</event>
<event>
 4    1  0.5387486E-005  0.9680153E+03  0.7818608E-02  0.9344338E-01
          2   -1    0    0  501    0  0.00000000000E+00  0.00000000000E+00  0.32113733808E+04  0.32113733808E+04  0.25500000000E-02 0.  1.
         -2   -1    0    0    0  501 -0.00000000000E+00 -0.00000000000E+00 -0.72948049164E+02  0.72948049209E+02  0.25500000000E-02 0. -1.
    5000001    1    1    2    0    0  0.42928261906E+03  0.13997505503E+03  0.13784324307E+04  0.14598553178E+04  0.16500000000E+03 0.  0.
   -5000001    1    1    2    0    0 -0.42928261906E+03 -0.13997505503E+03  0.17599929009E+04  0.18244661122E+04  0.16500000000E+03 0.  0.
<mgrwt>
<rscale>  0 0.96801534E+03</rscale>
<asrwt>0</asrwt>
<pdfrwt beam="1">  1        2 0.45876748E+00 0.96801534E+03</pdfrwt>
<pdfrwt beam="2">  1       -2 0.10421153E-01 0.96801534E+03</pdfrwt>
<totfact> 0.11810149E+02</totfact>
</mgrwt>
</event>
<event>
 4    1  0.5387486E-005  0.4898678E+03  0.7818608E-02  0.1016458E+00
          2   -1    0    0  501    0  0.00000000000E+00  0.00000000000E+00  0.28864611038E+03  0.28864611039E+03  0.25500000000E-02 0.  1.
         -2   -1    0    0    0  501 -0.00000000000E+00 -0.00000000000E+00 -0.20784142919E+03  0.20784142921E+03  0.25500000000E-02 0. -1.
    5000001    1    1    2    0    0 -0.10485162922E+03 -0.14457596073E+03  0.10481417688E+02  0.24337405919E+03  0.16500000000E+03 0.  0.
   -5000001    1    1    2    0    0  0.10485162922E+03  0.14457596073E+03  0.70323263501E+02  0.25311348040E+03  0.16500000000E+03 0.  0.
<mgrwt>
<rscale>  0 0.48986782E+03</rscale>
<asrwt>0</asrwt>
<pdfrwt beam="1">  1        2 0.41235158E-01 0.48986782E+03</pdfrwt>
<pdfrwt beam="2">  1       -2 0.29691633E-01 0.48986782E+03</pdfrwt>
<totfact> 0.12985204E+03</totfact>
</mgrwt>
</event>
<event>
 4    1  0.5387486E-005  0.8986818E+03  0.7818608E-02  0.9427231E-01
         -2   -1    0    0    0  501 -0.00000000000E+00  0.00000000000E+00  0.67853770704E+03  0.67853770705E+03  0.25500000000E-02 0. -1.
          2   -1    0    0  501    0  0.00000000000E+00 -0.00000000000E+00 -0.29756231380E+03  0.29756231381E+03  0.25500000000E-02 0.  1.
    5000001    1    1    2    0    0 -0.26114333756E+03  0.25990775111E+03 -0.23828471499E+02  0.40440162944E+03  0.16500000000E+03 0.  0.
   -5000001    1    1    2    0    0  0.26114333756E+03 -0.25990775111E+03  0.40480386474E+03  0.57169839142E+03  0.16500000000E+03 0.  0.
<mgrwt>
<rscale>  0 0.89868181E+03</rscale>
<asrwt>0</asrwt>
<pdfrwt beam="1">  1        2 0.42508902E-01 0.89868181E+03</pdfrwt>
<pdfrwt beam="2">  1       -2 0.96933957E-01 0.89868181E+03</pdfrwt>
<totfact> 0.10738159E+02</totfact>
</mgrwt>
</event>
<event>
 4    1  0.5387486E-005  0.5245251E+03  0.7818608E-02  0.1007569E+00
         -2   -1    0    0    0  501 -0.00000000000E+00  0.00000000000E+00  0.22087918469E+02  0.22087918616E+02  0.25500000000E-02 0. -1.
          2   -1    0    0  501    0  0.00000000000E+00 -0.00000000000E+00 -0.31139934849E+04  0.31139934849E+04  0.25500000000E-02 0.  1.
    5000001    1    1    2    0    0  0.22172962825E+02  0.19974984258E+03 -0.13418809658E+04  0.13668435046E+04  0.16500000000E+03 0.  0.
   -5000001    1    1    2    0    0 -0.22172962825E+02 -0.19974984258E+03 -0.17500246007E+04  0.17692378989E+04  0.16500000000E+03 0.  0.
<mgrwt>
<rscale>  0 0.52452506E+03</rscale>
<asrwt>0</asrwt>
<pdfrwt beam="1">  1        2 0.44485593E+00 0.52452506E+03</pdfrwt>
<pdfrwt beam="2">  1       -2 0.31554189E-02 0.52452506E+03</pdfrwt>
<totfact> 0.91544877E+02</totfact>
</mgrwt>
</event>
<event>
 4    1  0.5387486E-005  0.3593818E+03  0.7818608E-02  0.1058829E+00
          2   -1    0    0  501    0  0.00000000000E+00  0.00000000000E+00  0.10508478023E+04  0.10508478023E+04  0.25500000000E-02 0.  1.
         -2   -1    0    0    0  501 -0.00000000000E+00 -0.00000000000E+00 -0.30726446061E+02  0.30726446167E+02  0.25500000000E-02 0. -1.
    5000001    1    1    2    0    0  0.61497006255E+02 -0.27348719779E+02  0.57960544217E+03  0.60638049346E+03  0.16500000000E+03 0.  0.
   -5000001    1    1    2    0    0 -0.61497006255E+02  0.27348719779E+02  0.44051591402E+03  0.47519375496E+03  0.16500000000E+03 0.  0.
<mgrwt>
<rscale>  0 0.35938179E+03</rscale>
<asrwt>0</asrwt>
<pdfrwt beam="1">  1        2 0.15012114E+00 0.35938179E+03</pdfrwt>
<pdfrwt beam="2">  1       -2 0.43894917E-02 0.35938179E+03</pdfrwt>
<totfact> 0.65252408E+03</totfact>
</mgrwt>
</event>
<event>
 4    1  0.5387486E-005  0.4956431E+03  0.7818608E-02  0.1014922E+00
          2   -1    0    0  501    0  0.00000000000E+00  0.00000000000E+00  0.52648975123E+03  0.52648975123E+03  0.25500000000E-02 0.  1.
         -2   -1    0    0    0  501 -0.00000000000E+00 -0.00000000000E+00 -0.11665093469E+03  0.11665093472E+03  0.25500000000E-02 0. -1.
    5000001    1    1    2    0    0 -0.15432510150E+03  0.35027064753E+02  0.80815488254E+02  0.24248561887E+03  0.16500000000E+03 0.  0.
   -5000001    1    1    2    0    0  0.15432510150E+03 -0.35027064753E+02  0.32902332828E+03  0.40065506708E+03  0.16500000000E+03 0.  0.
<mgrwt>
<rscale>  0 0.49564310E+03</rscale>
<asrwt>0</asrwt>
<pdfrwt beam="1">  1        2 0.75212823E-01 0.49564310E+03</pdfrwt>
<pdfrwt beam="2">  1       -2 0.16664419E-01 0.49564310E+03</pdfrwt>
<totfact> 0.18447736E+03</totfact>
</mgrwt>
</event>
<event>
 4    1  0.5387486E-005  0.1012114E+04  0.7818608E-02  0.9295357E-01
         -2   -1    0    0    0  501 -0.00000000000E+00  0.00000000000E+00  0.32901997476E+03  0.32901997477E+03  0.25500000000E-02 0. -1.
          2   -1    0    0  501    0  0.00000000000E+00 -0.00000000000E+00 -0.77835368378E+03  0.77835368378E+03  0.25500000000E-02 0.  1.
    5000001    1    1    2    0    0  0.17896731356E+03 -0.40689370041E+03 -0.31168180948E+02  0.47517179868E+03  0.16500000000E+03 0.  0.
   -5000001    1    1    2    0    0 -0.17896731356E+03  0.40689370041E+03 -0.41816552807E+03  0.63220185987E+03  0.16500000000E+03 0.  0.
<mgrwt>
<rscale>  0 0.10121144E+04</rscale>
<asrwt>0</asrwt>
<pdfrwt beam="1">  1        2 0.11119338E+00 0.10121144E+04</pdfrwt>
<pdfrwt beam="2">  1       -2 0.47002854E-01 0.10121144E+04</pdfrwt>
<totfact> 0.16847359E+02</totfact>
</mgrwt>
</event>
<event>
 4    1  0.5387486E-005  0.5716713E+03  0.7818608E-02  0.9965987E-01
         -2   -1    0    0    0  501 -0.00000000000E+00  0.00000000000E+00  0.23554428042E+04  0.23554428042E+04  0.25500000000E-02 0. -1.
          2   -1    0    0  501    0  0.00000000000E+00 -0.00000000000E+00 -0.34686482571E+02  0.34686482665E+02  0.25500000000E-02 0.  1.
    5000001    1    1    2    0    0 -0.15318925701E+03 -0.98498992321E+02  0.55007363097E+03  0.60247406537E+03  0.16500000000E+03 0.  0.
   -5000001    1    1    2    0    0  0.15318925701E+03  0.98498992321E+02  0.17706826906E+04  0.17876552215E+04  0.16500000000E+03 0.  0.
<mgrwt>
<rscale>  0 0.57167132E+03</rscale>
<asrwt>0</asrwt>
<pdfrwt beam="1">  1        2 0.49552077E-02 0.57167132E+03</pdfrwt>
<pdfrwt beam="2">  1       -2 0.33649211E+00 0.57167132E+03</pdfrwt>
<totfact> 0.33947313E+01</totfact>
</mgrwt>
</event>
<event>
 4    1  0.5387486E-005  0.6157616E+03  0.7818608E-02  0.9873235E-01
         -2   -1    0    0    0  501 -0.00000000000E+00  0.00000000000E+00  0.10669036826E+03  0.10669036829E+03  0.25500000000E-02 0. -1.
          2   -1    0    0  501    0  0.00000000000E+00 -0.00000000000E+00 -0.88846429483E+03  0.88846429483E+03  0.25500000000E-02 0.  1.
    5000001    1    1    2    0    0  0.23146814678E+03  0.48047641947E+02 -0.21622827719E+03  0.36036890367E+03  0.16500000000E+03 0.  0.
   -5000001    1    1    2    0    0 -0.23146814678E+03 -0.48047641947E+02 -0.56554564938E+03  0.63478575945E+03  0.16500000000E+03 0.  0.
<mgrwt>
<rscale>  0 0.61576159E+03</rscale>
<asrwt>0</asrwt>
<pdfrwt beam="1">  1        2 0.12692347E+00 0.61576159E+03</pdfrwt>
<pdfrwt beam="2">  1       -2 0.15241482E-01 0.61576159E+03</pdfrwt>
<totfact> 0.11321729E+03</totfact>
</mgrwt>
</event>
<event>
 4    1  0.5387486E-005  0.9454155E+03  0.7818608E-02  0.9370525E-01
         -2   -1    0    0    0  501 -0.00000000000E+00  0.00000000000E+00  0.18183458068E+03  0.18183458070E+03  0.25500000000E-02 0. -1.
          2   -1    0    0  501    0  0.00000000000E+00 -0.00000000000E+00 -0.12288785257E+04  0.12288785257E+04  0.25500000000E-02 0.  1.
    5000001    1    1    2    0    0  0.33057586367E+03 -0.27395367685E+03 -0.68627432903E+03  0.82615281479E+03  0.16500000000E+03 0.  0.
   -5000001    1    1    2    0    0 -0.33057586367E+03  0.27395367685E+03 -0.36076961595E+03  0.58456029158E+03  0.16500000000E+03 0.  0.
<mgrwt>
<rscale>  0 0.94541549E+03</rscale>
<asrwt>0</asrwt>
<pdfrwt beam="1">  1        2 0.17555407E+00 0.94541549E+03</pdfrwt>
<pdfrwt beam="2">  1       -2 0.25976369E-01 0.94541549E+03</pdfrwt>
<totfact> 0.27465059E+02</totfact>
</mgrwt>
</event>
<event>
 4    1  0.5387486E-005  0.4871989E+03  0.7818608E-02  0.1017175E+00
         -2   -1    0    0    0  501 -0.00000000000E+00  0.00000000000E+00  0.60109252059E+02  0.60109252113E+02  0.25500000000E-02 0. -1.
          2   -1    0    0  501    0  0.00000000000E+00 -0.00000000000E+00 -0.98721396097E+03  0.98721396097E+03  0.25500000000E-02 0.  1.
    5000001    1    1    2    0    0  0.14481760124E+03  0.10127773434E+03 -0.39955185563E+03  0.46700749720E+03  0.16500000000E+03 0.  0.
   -5000001    1    1    2    0    0 -0.14481760124E+03 -0.10127773434E+03 -0.52755285328E+03  0.58031571588E+03  0.16500000000E+03 0.  0.
<mgrwt>
<rscale>  0 0.48719890E+03</rscale>
<asrwt>0</asrwt>
<pdfrwt beam="1">  1        2 0.14103056E+00 0.48719890E+03</pdfrwt>
<pdfrwt beam="2">  1       -2 0.85870366E-02 0.48719890E+03</pdfrwt>
<totfact> 0.25145586E+03</totfact>
</mgrwt>
</event>
<event>
 4    1  0.5387486E-005  0.5701258E+03  0.7818608E-02  0.9969400E-01
          2   -1    0    0  501    0  0.00000000000E+00  0.00000000000E+00  0.16890210509E+04  0.16890210509E+04  0.25500000000E-02 0.  1.
         -2   -1    0    0    0  501 -0.00000000000E+00 -0.00000000000E+00 -0.48111223254E+02  0.48111223321E+02  0.25500000000E-02 0. -1.
    5000001    1    1    2    0    0 -0.22857719248E+03  0.25126595164E+02  0.71681500903E+03  0.77066700713E+03  0.16500000000E+03 0.  0.
   -5000001    1    1    2    0    0  0.22857719248E+03 -0.25126595164E+02  0.92409481862E+03  0.96646526710E+03  0.16500000000E+03 0.  0.
<mgrwt>
<rscale>  0 0.57012584E+03</rscale>
<asrwt>0</asrwt>
<pdfrwt beam="1">  1        2 0.24128873E+00 0.57012584E+03</pdfrwt>
<pdfrwt beam="2">  1       -2 0.68730317E-02 0.57012584E+03</pdfrwt>
<totfact> 0.14849270E+03</totfact>
</mgrwt>
</event>
<event>
 4    1  0.5387486E-005  0.3724317E+03  0.7818608E-02  0.1053767E+00
          2   -1    0    0  501    0  0.00000000000E+00  0.00000000000E+00  0.68955259518E+03  0.68955259518E+03  0.25500000000E-02 0.  1.
         -2   -1    0    0    0  501 -0.00000000000E+00 -0.00000000000E+00 -0.50288185657E+02  0.50288185721E+02  0.25500000000E-02 0. -1.
    5000001    1    1    2    0    0 -0.30934836338E+02 -0.80582654565E+02  0.31783264238E+03  0.36836546646E+03  0.16500000000E+03 0.  0.
   -5000001    1    1    2    0    0  0.30934836338E+02  0.80582654565E+02  0.32143176714E+03  0.37147531445E+03  0.16500000000E+03 0.  0.
<mgrwt>
<rscale>  0 0.37243173E+03</rscale>
<asrwt>0</asrwt>
<pdfrwt beam="1">  1        2 0.98507506E-01 0.37243173E+03</pdfrwt>
<pdfrwt beam="2">  1       -2 0.71840271E-02 0.37243173E+03</pdfrwt>
<totfact> 0.52602319E+03</totfact>
</mgrwt>
</event>
<event>
 4    1  0.5387486E-005  0.3822481E+03  0.7818608E-02  0.1050106E+00
         -2   -1    0    0    0  501 -0.00000000000E+00  0.00000000000E+00  0.34368636916E+02  0.34368637010E+02  0.25500000000E-02 0. -1.
          2   -1    0    0  501    0  0.00000000000E+00 -0.00000000000E+00 -0.10628410513E+04  0.10628410513E+04  0.25500000000E-02 0.  1.
    5000001    1    1    2    0    0 -0.88025710398E+02 -0.33671782515E+02 -0.45533441684E+03  0.49339309459E+03  0.16500000000E+03 0.  0.
   -5000001    1    1    2    0    0  0.88025710398E+02  0.33671782515E+02 -0.57313799755E+03  0.60381659373E+03  0.16500000000E+03 0.  0.
<mgrwt>
<rscale>  0 0.38224808E+03</rscale>
<asrwt>0</asrwt>
<pdfrwt beam="1">  1        2 0.15183441E+00 0.38224808E+03</pdfrwt>
<pdfrwt beam="2">  1       -2 0.49098060E-02 0.38224808E+03</pdfrwt>
<totfact> 0.54171399E+03</totfact>
</mgrwt>
</event>
<event>
 4    1  0.5387486E-005  0.7211093E+03  0.7818608E-02  0.9681798E-01
          2   -1    0    0  501    0  0.00000000000E+00  0.00000000000E+00  0.13235582902E+04  0.13235582902E+04  0.25500000000E-02 0.  1.
         -2   -1    0    0    0  501 -0.00000000000E+00 -0.00000000000E+00 -0.98219817874E+02  0.98219817908E+02  0.25500000000E-02 0. -1.
    5000001    1    1    2    0    0 -0.19028442384E+03 -0.24237464538E+03  0.43830294679E+03  0.56061404178E+03  0.16500000000E+03 0.  0.
   -5000001    1    1    2    0    0  0.19028442384E+03  0.24237464538E+03  0.78703552552E+03  0.86116406632E+03  0.16500000000E+03 0.  0.
<mgrwt>
<rscale>  0 0.72110930E+03</rscale>
<asrwt>0</asrwt>
<pdfrwt beam="1">  1        2 0.18907974E+00 0.72110930E+03</pdfrwt>
<pdfrwt beam="2">  1       -2 0.14031404E-01 0.72110930E+03</pdfrwt>
<totfact> 0.71994440E+02</totfact>
</mgrwt>
</event>
<event>
 4    1  0.5387486E-005  0.3672566E+03  0.7818608E-02  0.1055747E+00
         -2   -1    0    0    0  501 -0.00000000000E+00  0.00000000000E+00  0.23256283256E+02  0.23256283395E+02  0.25500000000E-02 0. -1.
          2   -1    0    0  501    0  0.00000000000E+00 -0.00000000000E+00 -0.14499030557E+04  0.14499030557E+04  0.25500000000E-02 0.  1.
    5000001    1    1    2    0    0 -0.15626458974E+02 -0.63977671998E+02 -0.52702549719E+03  0.55616382786E+03  0.16500000000E+03 0.  0.
   -5000001    1    1    2    0    0  0.15626458974E+02  0.63977671998E+02 -0.89962127525E+03  0.91699551123E+03  0.16500000000E+03 0.  0.
<mgrwt>
<rscale>  0 0.36725662E+03</rscale>
<asrwt>0</asrwt>
<pdfrwt beam="1">  1        2 0.20712895E+00 0.36725662E+03</pdfrwt>
<pdfrwt beam="2">  1       -2 0.33223271E-02 0.36725662E+03</pdfrwt>
<totfact> 0.60394911E+03</totfact>
</mgrwt>
</event>
<event>
 4    1  0.5387486E-005  0.5883113E+03  0.7818608E-02  0.9929958E-01
          2   -1    0    0  501    0  0.00000000000E+00  0.00000000000E+00  0.19805771580E+04  0.19805771580E+04  0.25500000000E-02 0.  1.
         -2   -1    0    0    0  501 -0.00000000000E+00 -0.00000000000E+00 -0.43688041936E+02  0.43688042010E+02  0.25500000000E-02 0. -1.
    5000001    1    1    2    0    0  0.20916485992E+03 -0.27430677789E+02  0.54985016611E+03  0.61160656134E+03  0.16500000000E+03 0.  0.
   -5000001    1    1    2    0    0 -0.20916485992E+03  0.27430677789E+02  0.13870389499E+04  0.14126586386E+04  0.16500000000E+03 0.  0.
<mgrwt>
<rscale>  0 0.58831127E+03</rscale>
<asrwt>0</asrwt>
<pdfrwt beam="1">  1        2 0.28293953E+00 0.58831127E+03</pdfrwt>
<pdfrwt beam="2">  1       -2 0.62411503E-02 0.58831127E+03</pdfrwt>
<totfact> 0.12310096E+03</totfact>
</mgrwt>
</event>
<event>
 4    1  0.5387486E-005  0.6492320E+03  0.7818608E-02  0.9808221E-01
          2   -1    0    0  501    0  0.00000000000E+00  0.00000000000E+00  0.10456988222E+03  0.10456988225E+03  0.25500000000E-02 0.  1.
         -2   -1    0    0    0  501 -0.00000000000E+00 -0.00000000000E+00 -0.10077047126E+04  0.10077047126E+04  0.25500000000E-02 0. -1.
    5000001    1    1    2    0    0 -0.14920919870E+03 -0.80474118849E+02 -0.83239140971E+03  0.86535537656E+03  0.16500000000E+03 0.  0.
   -5000001    1    1    2    0    0  0.14920919870E+03  0.80474118849E+02 -0.70743420636E+02  0.24691921826E+03  0.16500000000E+03 0.  0.
<mgrwt>
<rscale>  0 0.64923205E+03</rscale>
<asrwt>0</asrwt>
<pdfrwt beam="1">  1        2 0.14938555E-01 0.64923205E+03</pdfrwt>
<pdfrwt beam="2">  1       -2 0.14395781E+00 0.64923205E+03</pdfrwt>
<totfact> 0.13651734E+02</totfact>
</mgrwt>
</event>
<event>
 4    1  0.5387486E-005  0.3715511E+03  0.7818608E-02  0.1054101E+00
          2   -1    0    0  501    0  0.00000000000E+00  0.00000000000E+00  0.43964275961E+03  0.43964275962E+03  0.25500000000E-02 0.  1.
         -2   -1    0    0    0  501 -0.00000000000E+00 -0.00000000000E+00 -0.78501355794E+02  0.78501355835E+02  0.25500000000E-02 0. -1.
    5000001    1    1    2    0    0  0.66599656381E+02 -0.29012924680E+02  0.24309678833E+03  0.30265213121E+03  0.16500000000E+03 0.  0.
   -5000001    1    1    2    0    0 -0.66599656381E+02  0.29012924680E+02  0.11804461549E+03  0.21549198425E+03  0.16500000000E+03 0.  0.
<mgrwt>
<rscale>  0 0.37155109E+03</rscale>
<asrwt>0</asrwt>
<pdfrwt beam="1">  1        2 0.62806107E-01 0.37155109E+03</pdfrwt>
<pdfrwt beam="2">  1       -2 0.11214480E-01 0.37155109E+03</pdfrwt>
<totfact> 0.43311458E+03</totfact>
</mgrwt>
</event>
<event>
 4    1  0.5387486E-005  0.5008143E+03  0.7818608E-02  0.1013567E+00
         -2   -1    0    0    0  501 -0.00000000000E+00  0.00000000000E+00  0.13606020765E+03  0.13606020767E+03  0.25500000000E-02 0. -1.
          2   -1    0    0  501    0  0.00000000000E+00 -0.00000000000E+00 -0.46085298821E+03  0.46085298821E+03  0.25500000000E-02 0.  1.
    5000001    1    1    2    0    0  0.17639554950E+03 -0.52182475724E+02 -0.21066924963E+03  0.32472285629E+03  0.16500000000E+03 0.  0.
   -5000001    1    1    2    0    0 -0.17639554950E+03  0.52182475724E+02 -0.11412353093E+03  0.27219033959E+03  0.16500000000E+03 0.  0.
<mgrwt>
<rscale>  0 0.50081435E+03</rscale>
<asrwt>0</asrwt>
<pdfrwt beam="1">  1        2 0.65836140E-01 0.50081435E+03</pdfrwt>
<pdfrwt beam="2">  1       -2 0.19437173E-01 0.50081435E+03</pdfrwt>
<totfact> 0.16475276E+03</totfact>
</mgrwt>
</event>
<event>
 4    1  0.5387486E-005  0.4910754E+03  0.7818608E-02  0.1016135E+00
         -2   -1    0    0    0  501 -0.00000000000E+00  0.00000000000E+00  0.60715801492E+02  0.60715801545E+02  0.25500000000E-02 0. -1.
          2   -1    0    0  501    0  0.00000000000E+00 -0.00000000000E+00 -0.99296671082E+03  0.99296671082E+03  0.25500000000E-02 0.  1.
    5000001    1    1    2    0    0  0.49531543131E+02 -0.17446667045E+03 -0.49424730588E+03  0.55172220567E+03  0.16500000000E+03 0.  0.
   -5000001    1    1    2    0    0 -0.49531543131E+02  0.17446667045E+03 -0.43800360345E+03  0.50196030670E+03  0.16500000000E+03 0.  0.
<mgrwt>
<rscale>  0 0.49107543E+03</rscale>
<asrwt>0</asrwt>
<pdfrwt beam="1">  1        2 0.14185238E+00 0.49107543E+03</pdfrwt>
<pdfrwt beam="2">  1       -2 0.86736865E-02 0.49107543E+03</pdfrwt>
<totfact> 0.24547920E+03</totfact>
</mgrwt>
</event>
<event>
 4    1  0.5387486E-005  0.5275300E+03  0.7818608E-02  0.1006833E+00
          2   -1    0    0  501    0  0.00000000000E+00  0.00000000000E+00  0.54485954617E+03  0.54485954617E+03  0.25500000000E-02 0.  1.
         -2   -1    0    0    0  501 -0.00000000000E+00 -0.00000000000E+00 -0.12768788782E+03  0.12768788784E+03  0.25500000000E-02 0. -1.
    5000001    1    1    2    0    0  0.18975963962E+03 -0.27640979275E+02  0.11340097578E+03  0.27723189909E+03  0.16500000000E+03 0.  0.
   -5000001    1    1    2    0    0 -0.18975963962E+03  0.27640979275E+02  0.30377068257E+03  0.39531553493E+03  0.16500000000E+03 0.  0.
<mgrwt>
<rscale>  0 0.52752996E+03</rscale>
<asrwt>0</asrwt>
<pdfrwt beam="1">  1        2 0.77837079E-01 0.52752996E+03</pdfrwt>
<pdfrwt beam="2">  1       -2 0.18241127E-01 0.52752996E+03</pdfrwt>
<totfact> 0.15204398E+03</totfact>
</mgrwt>
</event>
<event>
 4    1  0.5387486E-005  0.5136103E+03  0.7818608E-02  0.1010286E+00
          2   -1    0    0  501    0  0.00000000000E+00  0.00000000000E+00  0.23882838316E+04  0.23882838316E+04  0.25500000000E-02 0.  1.
         -2   -1    0    0    0  501 -0.00000000000E+00 -0.00000000000E+00 -0.27613501789E+02  0.27613501906E+02  0.25500000000E-02 0. -1.
    5000001    1    1    2    0    0 -0.19359958758E+03 -0.34924400175E+02  0.12030723448E+04  0.12301660785E+04  0.16500000000E+03 0.  0.
   -5000001    1    1    2    0    0  0.19359958758E+03  0.34924400175E+02  0.11575979850E+04  0.11857312550E+04  0.16500000000E+03 0.  0.
<mgrwt>
<rscale>  0 0.51361028E+03</rscale>
<asrwt>0</asrwt>
<pdfrwt beam="1">  1        2 0.34118325E+00 0.51361028E+03</pdfrwt>
<pdfrwt beam="2">  1       -2 0.39447878E-02 0.51361028E+03</pdfrwt>
<totfact> 0.15690897E+03</totfact>
</mgrwt>
</event>
<event>
 4    1  0.5387486E-005  0.1325406E+04  0.7818608E-02  0.9009657E-01
          2   -1    0    0  501    0  0.00000000000E+00  0.00000000000E+00  0.17087237430E+04  0.17087237430E+04  0.25500000000E-02 0.  1.
         -2   -1    0    0    0  501 -0.00000000000E+00 -0.00000000000E+00 -0.25701946166E+03  0.25701946168E+03  0.25500000000E-02 0. -1.
    5000001    1    1    2    0    0 -0.60185632488E+03 -0.22012896959E+03  0.77854918332E+03  0.10217884467E+04  0.16500000000E+03 0.  0.
   -5000001    1    1    2    0    0  0.60185632488E+03  0.22012896959E+03  0.67315509800E+03  0.94395475793E+03  0.16500000000E+03 0.  0.
<mgrwt>
<rscale>  0 0.13254060E+04</rscale>
<asrwt>0</asrwt>
<pdfrwt beam="1">  1        2 0.24410341E+00 0.13254060E+04</pdfrwt>
<pdfrwt beam="2">  1       -2 0.36717063E-01 0.13254060E+04</pdfrwt>
<totfact> 0.77607342E+01</totfact>
</mgrwt>
</event>
<event>
 4    1  0.5387486E-005  0.1147612E+04  0.7818608E-02  0.9159990E-01
          2   -1    0    0  501    0  0.00000000000E+00  0.00000000000E+00  0.41909943819E+03  0.41909943820E+03  0.25500000000E-02 0.  1.
         -2   -1    0    0    0  501 -0.00000000000E+00 -0.00000000000E+00 -0.78562065747E+03  0.78562065747E+03  0.25500000000E-02 0. -1.
    5000001    1    1    2    0    0  0.27776974343E+03  0.46191752904E+03 -0.70664841555E+02  0.56810417516E+03  0.16500000000E+03 0.  0.
   -5000001    1    1    2    0    0 -0.27776974343E+03 -0.46191752904E+03 -0.29585637773E+03  0.63661592051E+03  0.16500000000E+03 0.  0.
<mgrwt>
<rscale>  0 0.11476117E+04</rscale>
<asrwt>0</asrwt>
<pdfrwt beam="1">  1        2 0.59871349E-01 0.11476117E+04</pdfrwt>
<pdfrwt beam="2">  1       -2 0.11223152E+00 0.11476117E+04</pdfrwt>
<totfact> 0.50876498E+01</totfact>
</mgrwt>
</event>
<event>
 4    1  0.5387486E-005  0.4447913E+03  0.7818608E-02  0.1029287E+00
          2   -1    0    0  501    0  0.00000000000E+00  0.00000000000E+00  0.63664360560E+03  0.63664360561E+03  0.25500000000E-02 0.  1.
         -2   -1    0    0    0  501 -0.00000000000E+00 -0.00000000000E+00 -0.77688416396E+02  0.77688416438E+02  0.25500000000E-02 0. -1.
    5000001    1    1    2    0    0 -0.98108269748E+02 -0.10740550154E+03  0.22685442277E+03  0.31598908760E+03  0.16500000000E+03 0.  0.
   -5000001    1    1    2    0    0  0.98108269748E+02  0.10740550154E+03  0.33210076643E+03  0.39834293444E+03  0.16500000000E+03 0.  0.
<mgrwt>
<rscale>  0 0.44479134E+03</rscale>
<asrwt>0</asrwt>
<pdfrwt beam="1">  1        2 0.90949089E-01 0.44479134E+03</pdfrwt>
<pdfrwt beam="2">  1       -2 0.11098345E-01 0.44479134E+03</pdfrwt>
<totfact> 0.29017555E+03</totfact>
</mgrwt>
</event>
<event>
 4    1  0.5387486E-005  0.1169858E+04  0.7818608E-02  0.9139657E-01
          2   -1    0    0  501    0  0.00000000000E+00  0.00000000000E+00  0.87788102548E+03  0.87788102549E+03  0.25500000000E-02 0.  1.
         -2   -1    0    0    0  501 -0.00000000000E+00 -0.00000000000E+00 -0.38973592262E+03  0.38973592263E+03  0.25500000000E-02 0. -1.
    5000001    1    1    2    0    0  0.44005869717E+03  0.29967648184E+03  0.51883660109E+02  0.55979868248E+03  0.16500000000E+03 0.  0.
   -5000001    1    1    2    0    0 -0.44005869717E+03 -0.29967648184E+03  0.43626144276E+03  0.70781826563E+03  0.16500000000E+03 0.  0.
<mgrwt>
<rscale>  0 0.11698577E+04</rscale>
<asrwt>0</asrwt>
<pdfrwt beam="1">  1        2 0.12541157E+00 0.11698577E+04</pdfrwt>
<pdfrwt beam="2">  1       -2 0.55676562E-01 0.11698577E+04</pdfrwt>
<totfact> 0.10080695E+02</totfact>
</mgrwt>
</event>
<event>
 4    1  0.5387486E-005  0.5662548E+03  0.7818608E-02  0.9978001E-01
          2   -1    0    0  501    0  0.00000000000E+00  0.00000000000E+00  0.48356393234E+03  0.48356393234E+03  0.25500000000E-02 0.  1.
         -2   -1    0    0    0  501 -0.00000000000E+00 -0.00000000000E+00 -0.16577151634E+03  0.16577151635E+03  0.25500000000E-02 0. -1.
    5000001    1    1    2    0    0 -0.62857080840E+02 -0.19473600797E+03  0.38283328582E+02  0.26563836067E+03  0.16500000000E+03 0.  0.
   -5000001    1    1    2    0    0  0.62857080840E+02  0.19473600797E+03  0.27950908742E+03  0.38369708803E+03  0.16500000000E+03 0.  0.
<mgrwt>
<rscale>  0 0.56625481E+03</rscale>
<asrwt>0</asrwt>
<pdfrwt beam="1">  1        2 0.69080563E-01 0.56625481E+03</pdfrwt>
<pdfrwt beam="2">  1       -2 0.23681645E-01 0.56625481E+03</pdfrwt>
<totfact> 0.11038282E+03</totfact>
</mgrwt>
</event>
<event>
 4    1  0.5387486E-005  0.5976322E+03  0.7818608E-02  0.9910331E-01
         -2   -1    0    0    0  501 -0.00000000000E+00  0.00000000000E+00  0.65416750293E+02  0.65416750343E+02  0.25500000000E-02 0. -1.
          2   -1    0    0  501    0  0.00000000000E+00 -0.00000000000E+00 -0.13649572133E+04  0.13649572133E+04  0.25500000000E-02 0.  1.
    5000001    1    1    2    0    0  0.76841787645E+02  0.22110459398E+03 -0.44564009537E+03  0.52972822882E+03  0.16500000000E+03 0.  0.
   -5000001    1    1    2    0    0 -0.76841787645E+02 -0.22110459398E+03 -0.85390036761E+03  0.90064573480E+03  0.16500000000E+03 0.  0.
<mgrwt>
<rscale>  0 0.59763221E+03</rscale>
<asrwt>0</asrwt>
<pdfrwt beam="1">  1        2 0.19499387E+00 0.59763221E+03</pdfrwt>
<pdfrwt beam="2">  1       -2 0.93452509E-02 0.59763221E+03</pdfrwt>
<totfact> 0.13397048E+03</totfact>
</mgrwt>
</event>
<event>
 4    1  0.5387486E-005  0.3557668E+03  0.7818608E-02  0.1060273E+00
          2   -1    0    0  501    0  0.00000000000E+00  0.00000000000E+00  0.74891321669E+03  0.74891321669E+03  0.25500000000E-02 0.  1.
         -2   -1    0    0    0  501 -0.00000000000E+00 -0.00000000000E+00 -0.42251232320E+02  0.42251232397E+02  0.25500000000E-02 0. -1.
    5000001    1    1    2    0    0  0.51279439731E+02  0.16218498917E+02  0.44017102426E+03  0.47314707147E+03  0.16500000000E+03 0.  0.
   -5000001    1    1    2    0    0 -0.51279439731E+02 -0.16218498917E+02  0.26649096011E+03  0.31801737762E+03  0.16500000000E+03 0.  0.
<mgrwt>
<rscale>  0 0.35576681E+03</rscale>
<asrwt>0</asrwt>
<pdfrwt beam="1">  1        2 0.10698760E+00 0.35576681E+03</pdfrwt>
<pdfrwt beam="2">  1       -2 0.60358905E-02 0.35576681E+03</pdfrwt>
<totfact> 0.62337072E+03</totfact>
</mgrwt>
</event>
<event>
 4    1  0.5387486E-005  0.4762041E+03  0.7818608E-02  0.1020184E+00
          2   -1    0    0  501    0  0.00000000000E+00  0.00000000000E+00  0.95664431469E+03  0.95664431469E+03  0.25500000000E-02 0.  1.
         -2   -1    0    0    0  501 -0.00000000000E+00 -0.00000000000E+00 -0.59261920032E+02  0.59261920087E+02  0.25500000000E-02 0. -1.
    5000001    1    1    2    0    0  0.15672806503E+03 -0.61441759476E+02  0.37701589242E+03  0.44464003341E+03  0.16500000000E+03 0.  0.
   -5000001    1    1    2    0    0 -0.15672806503E+03  0.61441759476E+02  0.52036650224E+03  0.57126620137E+03  0.16500000000E+03 0.  0.
<mgrwt>
<rscale>  0 0.47620407E+03</rscale>
<asrwt>0</asrwt>
<pdfrwt beam="1">  1        2 0.13666346E+00 0.47620407E+03</pdfrwt>
<pdfrwt beam="2">  1       -2 0.84659893E-02 0.47620407E+03</pdfrwt>
<totfact> 0.26854373E+03</totfact>
</mgrwt>
</event>
<event>
 4    1  0.5387486E-005  0.5232616E+03  0.7818608E-02  0.1007880E+00
         -2   -1    0    0    0  501 -0.00000000000E+00  0.00000000000E+00  0.63429817542E+03  0.63429817542E+03  0.25500000000E-02 0. -1.
          2   -1    0    0  501    0  0.00000000000E+00 -0.00000000000E+00 -0.10791559374E+03  0.10791559377E+03  0.25500000000E-02 0.  1.
    5000001    1    1    2    0    0  0.16023283203E+03 -0.94222185962E+02  0.37906368043E+03  0.45328429777E+03  0.16500000000E+03 0.  0.
   -5000001    1    1    2    0    0 -0.16023283203E+03  0.94222185962E+02  0.14731890125E+03  0.28892947142E+03  0.16500000000E+03 0.  0.
<mgrwt>
<rscale>  0 0.52326156E+03</rscale>
<asrwt>0</asrwt>
<pdfrwt beam="1">  1        2 0.15416514E-01 0.52326156E+03</pdfrwt>
<pdfrwt beam="2">  1       -2 0.90614023E-01 0.52326156E+03</pdfrwt>
<totfact> 0.40762921E+02</totfact>
</mgrwt>
</event>
<event>
 4    1  0.5387486E-005  0.4519114E+03  0.7818608E-02  0.1027154E+00
         -2   -1    0    0    0  501 -0.00000000000E+00  0.00000000000E+00  0.19883789354E+02  0.19883789517E+02  0.25500000000E-02 0. -1.
          2   -1    0    0  501    0  0.00000000000E+00 -0.00000000000E+00 -0.25677186051E+04  0.25677186051E+04  0.25500000000E-02 0.  1.
    5000001    1    1    2    0    0 -0.13915474804E+03  0.35188973713E+02 -0.15992712742E+04  0.16141548613E+04  0.16500000000E+03 0.  0.
   -5000001    1    1    2    0    0  0.13915474804E+03 -0.35188973713E+02 -0.94856354151E+03  0.97344753328E+03  0.16500000000E+03 0.  0.
<mgrwt>
<rscale>  0 0.45191139E+03</rscale>
<asrwt>0</asrwt>
<pdfrwt beam="1">  1        2 0.36681673E+00 0.45191139E+03</pdfrwt>
<pdfrwt beam="2">  1       -2 0.28405430E-02 0.45191139E+03</pdfrwt>
<totfact> 0.21018300E+03</totfact>
</mgrwt>
</event>
<event>
 4    1  0.5387486E-005  0.6269509E+03  0.7818608E-02  0.9851017E-01
         -2   -1    0    0    0  501 -0.00000000000E+00  0.00000000000E+00  0.62229390305E+02  0.62229390358E+02  0.25500000000E-02 0. -1.
          2   -1    0    0  501    0  0.00000000000E+00 -0.00000000000E+00 -0.15791071090E+04  0.15791071090E+04  0.25500000000E-02 0.  1.
    5000001    1    1    2    0    0 -0.36862592540E+02  0.24791789607E+03 -0.99579095536E+03  0.10400224809E+04  0.16500000000E+03 0.  0.
   -5000001    1    1    2    0    0  0.36862592540E+02 -0.24791789607E+03 -0.52108676334E+03  0.60131401851E+03  0.16500000000E+03 0.  0.
<mgrwt>
<rscale>  0 0.62695095E+03</rscale>
<asrwt>0</asrwt>
<pdfrwt beam="1">  1        2 0.22558671E+00 0.62695095E+03</pdfrwt>
<pdfrwt beam="2">  1       -2 0.88899138E-02 0.62695095E+03</pdfrwt>
<totfact> 0.11197537E+03</totfact>
</mgrwt>
</event>
<event>
 4    1  0.5387486E-005  0.5561463E+03  0.7818608E-02  0.1000081E+00
          2   -1    0    0  501    0  0.00000000000E+00  0.00000000000E+00  0.10161607954E+04  0.10161607954E+04  0.25500000000E-02 0. -1.
         -2   -1    0    0    0  501 -0.00000000000E+00 -0.00000000000E+00 -0.76094915186E+02  0.76094915229E+02  0.25500000000E-02 0.  1.
    5000001    1    1    2    0    0 -0.12981861689E+03  0.17452476519E+03  0.36633405408E+03  0.45687788974E+03  0.16500000000E+03 0.  0.
   -5000001    1    1    2    0    0  0.12981861689E+03 -0.17452476519E+03  0.57373182615E+03  0.63537782090E+03  0.16500000000E+03 0.  0.
<mgrwt>
<rscale>  0 0.55614627E+03</rscale>
<asrwt>0</asrwt>
<pdfrwt beam="1">  1        2 0.14516583E+00 0.55614627E+03</pdfrwt>
<pdfrwt beam="2">  1       -2 0.10870702E-01 0.55614627E+03</pdfrwt>
<totfact> 0.16507664E+03</totfact>
</mgrwt>
</event>
<event>
 4    1  0.5387486E-005  0.4762894E+03  0.7818608E-02  0.1020160E+00
          2   -1    0    0  501    0  0.00000000000E+00  0.00000000000E+00  0.18322655215E+04  0.18322655215E+04  0.25500000000E-02 0.  1.
         -2   -1    0    0    0  501 -0.00000000000E+00 -0.00000000000E+00 -0.30952334967E+02  0.30952335072E+02  0.25500000000E-02 0. -1.
    5000001    1    1    2    0    0 -0.12107867380E+03 -0.31469237279E+02  0.13608306639E+04  0.13764938990E+04  0.16500000000E+03 0.  0.
   -5000001    1    1    2    0    0  0.12107867380E+03  0.31469237279E+02  0.44048252265E+03  0.48672395761E+03  0.16500000000E+03 0.  0.
<mgrwt>
<rscale>  0 0.47628939E+03</rscale>
<asrwt>0</asrwt>
<pdfrwt beam="1">  1        2 0.26175223E+00 0.47628939E+03</pdfrwt>
<pdfrwt beam="2">  1       -2 0.44217619E-02 0.47628939E+03</pdfrwt>
<totfact> 0.25044835E+03</totfact>
</mgrwt>
</event>
<event>
 4    1  0.5387486E-005  0.8483291E+03  0.7818608E-02  0.9492582E-01
          2   -1    0    0  501    0  0.00000000000E+00  0.00000000000E+00  0.11423654614E+04  0.11423654615E+04  0.25500000000E-02 0.  1.
         -2   -1    0    0    0  501 -0.00000000000E+00 -0.00000000000E+00 -0.15749387438E+03  0.15749387440E+03  0.25500000000E-02 0. -1.
    5000001    1    1    2    0    0  0.15865750776E+03 -0.33454539735E+03  0.30107068187E+03  0.50493700908E+03  0.16500000000E+03 0.  0.
   -5000001    1    1    2    0    0 -0.15865750776E+03  0.33454539735E+03  0.68380090520E+03  0.79492232677E+03  0.16500000000E+03 0.  0.
<mgrwt>
<rscale>  0 0.84832909E+03</rscale>
<asrwt>0</asrwt>
<pdfrwt beam="1">  1        2 0.16319506E+00 0.84832909E+03</pdfrwt>
<pdfrwt beam="2">  1       -2 0.22499125E-01 0.84832909E+03</pdfrwt>
<totfact> 0.40038098E+02</totfact>
</mgrwt>
</event>
<event>
 4    1  0.5387486E-005  0.5172842E+03  0.7818608E-02  0.1009363E+00
         -2   -1    0    0    0  501 -0.00000000000E+00  0.00000000000E+00  0.26560428872E+03  0.26560428873E+03  0.25500000000E-02 0. -1.
          2   -1    0    0  501    0  0.00000000000E+00 -0.00000000000E+00 -0.25186239963E+03  0.25186239965E+03  0.25500000000E-02 0.  1.
    5000001    1    1    2    0    0  0.12539291538E+03 -0.98578757967E+02 -0.11245893819E+03  0.25556440974E+03  0.16500000000E+03 0.  0.
   -5000001    1    1    2    0    0 -0.12539291538E+03  0.98578757967E+02  0.12620082727E+03  0.26190227863E+03  0.16500000000E+03 0.  0.
<mgrwt>
<rscale>  0 0.51728419E+03</rscale>
<asrwt>0</asrwt>
<pdfrwt beam="1">  1        2 0.35980343E-01 0.51728419E+03</pdfrwt>
<pdfrwt beam="2">  1       -2 0.37943470E-01 0.51728419E+03</pdfrwt>
<totfact> 0.95269045E+02</totfact>
</mgrwt>
</event>
<event>
 4    1  0.5387486E-005  0.4400775E+03  0.7818608E-02  0.1030723E+00
          2   -1    0    0  501    0  0.00000000000E+00  0.00000000000E+00  0.12882246712E+04  0.12882246712E+04  0.25500000000E-02 0.  1.
         -2   -1    0    0    0  501 -0.00000000000E+00 -0.00000000000E+00 -0.37584323457E+02  0.37584323544E+02  0.25500000000E-02 0. -1.
    5000001    1    1    2    0    0  0.13287269367E+03 -0.32034190976E+02  0.47436426238E+03  0.52050724830E+03  0.16500000000E+03 0.  0.
   -5000001    1    1    2    0    0 -0.13287269367E+03  0.32034190976E+02  0.77627608539E+03  0.80530174647E+03  0.16500000000E+03 0.  0.
<mgrwt>
<rscale>  0 0.44007751E+03</rscale>
<asrwt>0</asrwt>
<pdfrwt beam="1">  1        2 0.18403210E+00 0.44007751E+03</pdfrwt>
<pdfrwt beam="2">  1       -2 0.53691891E-02 0.44007751E+03</pdfrwt>
<totfact> 0.35381638E+03</totfact>
</mgrwt>
</event>
<event>
 4    1  0.5387486E-005  0.3705492E+03  0.7818608E-02  0.1054483E+00
          2   -1    0    0  501    0  0.00000000000E+00  0.00000000000E+00  0.30006647983E+04  0.30006647983E+04  0.25500000000E-02 0.  1.
         -2   -1    0    0    0  501 -0.00000000000E+00 -0.00000000000E+00 -0.11439690592E+02  0.11439690876E+02  0.25500000000E-02 0. -1.
    5000001    1    1    2    0    0 -0.70970815665E+02 -0.81629551038E+01  0.18579768024E+04  0.18666564464E+04  0.16500000000E+03 0.  0.
   -5000001    1    1    2    0    0  0.70970815665E+02  0.81629551038E+01  0.11312483053E+04  0.11454480428E+04  0.16500000000E+03 0.  0.
<mgrwt>
<rscale>  0 0.37054920E+03</rscale>
<asrwt>0</asrwt>
<pdfrwt beam="1">  1        2 0.42866669E+00 0.37054920E+03</pdfrwt>
<pdfrwt beam="2">  1       -2 0.16342404E-02 0.37054920E+03</pdfrwt>
<totfact> 0.28640210E+03</totfact>
</mgrwt>
</event>
<event>
 4    1  0.5387486E-005  0.5803716E+03  0.7818608E-02  0.9946987E-01
         -2   -1    0    0    0  501 -0.00000000000E+00  0.00000000000E+00  0.66042924942E+02  0.66042924991E+02  0.25500000000E-02 0. -1.
          2   -1    0    0  501    0  0.00000000000E+00 -0.00000000000E+00 -0.12750464533E+04  0.12750464533E+04  0.25500000000E-02 0.  1.
    5000001    1    1    2    0    0  0.65105604254E+02 -0.30430264339E+01 -0.73861482128E+02  0.19216794285E+03  0.16500000000E+03 0.  0.
   -5000001    1    1    2    0    0 -0.65105604254E+02  0.30430264339E+01 -0.11351420462E+04  0.11489214355E+04  0.16500000000E+03 0.  0.
<mgrwt>
<rscale>  0 0.58037160E+03</rscale>
<asrwt>0</asrwt>
<pdfrwt beam="1">  1        2 0.18214948E+00 0.58037160E+03</pdfrwt>
<pdfrwt beam="2">  1       -2 0.94347043E-02 0.58037160E+03</pdfrwt>
<totfact> 0.14763015E+03</totfact>
</mgrwt>
</event>
<event>
 4    1  0.5387486E-005  0.6710881E+03  0.7818608E-02  0.9767994E-01
         -2   -1    0    0    0  501 -0.00000000000E+00  0.00000000000E+00  0.15584837469E+03  0.15584837471E+03  0.25500000000E-02 0. -1.
          2   -1    0    0  501    0  0.00000000000E+00 -0.00000000000E+00 -0.72243182422E+03  0.72243182422E+03  0.25500000000E-02 0.  1.
    5000001    1    1    2    0    0  0.18480362650E+03 -0.21008317621E+03 -0.17319013370E+03  0.36811294966E+03  0.16500000000E+03 0.  0.
   -5000001    1    1    2    0    0 -0.18480362650E+03  0.21008317621E+03 -0.39339331583E+03  0.51016724928E+03  0.16500000000E+03 0.  0.
<mgrwt>
<rscale>  0 0.67108815E+03</rscale>
<asrwt>0</asrwt>
<pdfrwt beam="1">  1        2 0.10320454E+00 0.67108815E+03</pdfrwt>
<pdfrwt beam="2">  1       -2 0.22264054E-01 0.67108815E+03</pdfrwt>
<totfact> 0.76638153E+02</totfact>
</mgrwt>
</event>
<event>
 4    1  0.5387486E-005  0.4343777E+03  0.7818608E-02  0.1032486E+00
         -2   -1    0    0    0  501 -0.00000000000E+00  0.00000000000E+00  0.40747828164E+02  0.40747828244E+02  0.25500000000E-02 0. -1.
          2   -1    0    0  501    0  0.00000000000E+00 -0.00000000000E+00 -0.11576322947E+04  0.11576322947E+04  0.25500000000E-02 0.  1.
    5000001    1    1    2    0    0  0.94787542029E+02  0.86482264289E+02 -0.72124068550E+03  0.75091742994E+03  0.16500000000E+03 0.  0.
   -5000001    1    1    2    0    0 -0.94787542029E+02 -0.86482264289E+02 -0.39564378100E+03  0.44746269297E+03  0.16500000000E+03 0.  0.
<mgrwt>
<rscale>  0 0.43437772E+03</rscale>
<asrwt>0</asrwt>
<pdfrwt beam="1">  1        2 0.16537602E+00 0.43437772E+03</pdfrwt>
<pdfrwt beam="2">  1       -2 0.58211190E-02 0.43437772E+03</pdfrwt>
<totfact> 0.36831871E+03</totfact>
</mgrwt>
</event>
<event>
 4    1  0.5387486E-005  0.4053055E+03  0.7818608E-02  0.1041958E+00
          2   -1    0    0  501    0  0.00000000000E+00  0.00000000000E+00  0.10102202915E+04  0.10102202915E+04  0.25500000000E-02 0.  1.
         -2   -1    0    0    0  501 -0.00000000000E+00 -0.00000000000E+00 -0.40652648905E+02  0.40652648985E+02  0.25500000000E-02 0. -1.
    5000001    1    1    2    0    0  0.11668403265E+03 -0.17073938752E+00  0.44563881707E+03  0.48932008737E+03  0.16500000000E+03 0.  0.
   -5000001    1    1    2    0    0 -0.11668403265E+03  0.17073938752E+00  0.52392882556E+03  0.56155285315E+03  0.16500000000E+03 0.  0.
<mgrwt>
<rscale>  0 0.40530547E+03</rscale>
<asrwt>0</asrwt>
<pdfrwt beam="1">  1        2 0.14431721E+00 0.40530547E+03</pdfrwt>
<pdfrwt beam="2">  1       -2 0.58075204E-02 0.40530547E+03</pdfrwt>
<totfact> 0.44955775E+03</totfact>
</mgrwt>
</event>
<event>
 4    1  0.5387486E-005  0.4940763E+03  0.7818608E-02  0.1015337E+00
         -2   -1    0    0    0  501 -0.00000000000E+00  0.00000000000E+00  0.28598783556E+02  0.28598783669E+02  0.25500000000E-02 0. -1.
          2   -1    0    0  501    0  0.00000000000E+00 -0.00000000000E+00 -0.21339317128E+04  0.21339317128E+04  0.25500000000E-02 0.  1.
    5000001    1    1    2    0    0  0.15331946403E+03  0.93281709839E+02 -0.87789013009E+03  0.91111163748E+03  0.16500000000E+03 0.  0.
   -5000001    1    1    2    0    0 -0.15331946403E+03 -0.93281709839E+02 -0.12274427991E+04  0.12514188590E+04  0.16500000000E+03 0.  0.
<mgrwt>
<rscale>  0 0.49407632E+03</rscale>
<asrwt>0</asrwt>
<pdfrwt beam="1">  1        2 0.30484729E+00 0.49407632E+03</pdfrwt>
<pdfrwt beam="2">  1       -2 0.40855418E-02 0.49407632E+03</pdfrwt>
<totfact> 0.19978728E+03</totfact>
</mgrwt>
</event>
<event>
 4    1  0.5387486E-005  0.6717066E+03  0.7818608E-02  0.9766880E-01
          2   -1    0    0  501    0  0.00000000000E+00  0.00000000000E+00  0.50669316349E+03  0.50669316350E+03  0.25500000000E-02 0.  1.
         -2   -1    0    0    0  501 -0.00000000000E+00 -0.00000000000E+00 -0.22261489886E+03  0.22261489888E+03  0.25500000000E-02 0. -1.
    5000001    1    1    2    0    0 -0.64190018500E+02  0.23326106205E+03 -0.36505046347E+02  0.29510794627E+03  0.16500000000E+03 0.  0.
   -5000001    1    1    2    0    0  0.64190018500E+02 -0.23326106205E+03  0.32058331098E+03  0.43420011610E+03  0.16500000000E+03 0.  0.
<mgrwt>
<rscale>  0 0.67170662E+03</rscale>
<asrwt>0</asrwt>
<pdfrwt beam="1">  1        2 0.72384738E-01 0.67170662E+03</pdfrwt>
<pdfrwt beam="2">  1       -2 0.31802128E-01 0.67170662E+03</pdfrwt>
<totfact> 0.61056838E+02</totfact>
</mgrwt>
</event>
<event>
 4    1  0.5387486E-005  0.9709569E+03  0.7818608E-02  0.9340985E-01
         -2   -1    0    0    0  501 -0.00000000000E+00  0.00000000000E+00  0.93583758506E+02  0.93583758541E+02  0.25500000000E-02 0. -1.
          2   -1    0    0  501    0  0.00000000000E+00 -0.00000000000E+00 -0.25184853544E+04  0.25184853544E+04  0.25500000000E-02 0.  1.
    5000001    1    1    2    0    0  0.33702047205E+03 -0.28923814465E+03 -0.14974448235E+04  0.15706073673E+04  0.16500000000E+03 0.  0.
   -5000001    1    1    2    0    0 -0.33702047205E+03  0.28923814465E+03 -0.92745677238E+03  0.10414617456E+04  0.16500000000E+03 0.  0.
<mgrwt>
<rscale>  0 0.97095690E+03</rscale>
<asrwt>0</asrwt>
<pdfrwt beam="1">  1        2 0.35978358E+00 0.97095690E+03</pdfrwt>
<pdfrwt beam="2">  1       -2 0.13369110E-01 0.97095690E+03</pdfrwt>
<totfact> 0.18572773E+02</totfact>
</mgrwt>
</event>
<event>
 4    1  0.5387486E-005  0.4862450E+03  0.7818608E-02  0.1017433E+00
         -2   -1    0    0    0  501 -0.00000000000E+00  0.00000000000E+00  0.85074576171E+02  0.85074576209E+02  0.25500000000E-02 0. -1.
          2   -1    0    0  501    0  0.00000000000E+00 -0.00000000000E+00 -0.69478511897E+03  0.69478511897E+03  0.25500000000E-02 0.  1.
    5000001    1    1    2    0    0  0.16247764085E+03 -0.12486459869E+02 -0.42193186907E+03  0.48146276865E+03  0.16500000000E+03 0.  0.
   -5000001    1    1    2    0    0 -0.16247764085E+03  0.12486459869E+02 -0.18777867372E+03  0.29839692653E+03  0.16500000000E+03 0.  0.
<mgrwt>
<rscale>  0 0.48624500E+03</rscale>
<asrwt>0</asrwt>
<pdfrwt beam="1">  1        2 0.99255014E-01 0.48624500E+03</pdfrwt>
<pdfrwt beam="2">  1       -2 0.12153511E-01 0.48624500E+03</pdfrwt>
<totfact> 0.22554008E+03</totfact>
</mgrwt>
</event>
<event>
 4    1  0.5387486E-005  0.7631637E+03  0.7818608E-02  0.9614922E-01
          2   -1    0    0  501    0  0.00000000000E+00  0.00000000000E+00  0.20391260646E+04  0.20391260646E+04  0.25500000000E-02 0.  1.
         -2   -1    0    0    0  501 -0.00000000000E+00 -0.00000000000E+00 -0.71405453471E+02  0.71405453516E+02  0.25500000000E-02 0. -1.
    5000001    1    1    2    0    0 -0.27928621512E+03 -0.20078858660E+03  0.10057890015E+04  0.10757106312E+04  0.16500000000E+03 0.  0.
   -5000001    1    1    2    0    0  0.27928621512E+03  0.20078858660E+03  0.96193160955E+03  0.10348208869E+04  0.16500000000E+03 0.  0.
<mgrwt>
<rscale>  0 0.76316373E+03</rscale>
<asrwt>0</asrwt>
<pdfrwt beam="1">  1        2 0.29130375E+00 0.76316373E+03</pdfrwt>
<pdfrwt beam="2">  1       -2 0.10200778E-01 0.76316373E+03</pdfrwt>
<totfact> 0.51906276E+02</totfact>
</mgrwt>
</event>
<event>
 4    1  0.5387486E-005  0.7672879E+03  0.7818608E-02  0.9608612E-01
         -2   -1    0    0    0  501 -0.00000000000E+00  0.00000000000E+00  0.55470125121E+03  0.55470125122E+03  0.25500000000E-02 0. -1.
          2   -1    0    0  501    0  0.00000000000E+00 -0.00000000000E+00 -0.26533682893E+03  0.26533682894E+03  0.25500000000E-02 0.  1.
    5000001    1    1    2    0    0  0.32278917838E+03  0.10175224627E+03  0.22330100890E+03  0.43776102371E+03  0.16500000000E+03 0.  0.
   -5000001    1    1    2    0    0 -0.32278917838E+03 -0.10175224627E+03  0.66063413388E+02  0.38227705645E+03  0.16500000000E+03 0.  0.
<mgrwt>
<rscale>  0 0.76728788E+03</rscale>
<asrwt>0</asrwt>
<pdfrwt beam="1">  1        2 0.37905261E-01 0.76728788E+03</pdfrwt>
<pdfrwt beam="2">  1       -2 0.79243035E-01 0.76728788E+03</pdfrwt>
<totfact> 0.19473627E+02</totfact>
</mgrwt>
</event>
<event>
 4    1  0.5387486E-005  0.3718150E+03  0.7818608E-02  0.1054001E+00
         -2   -1    0    0    0  501 -0.00000000000E+00  0.00000000000E+00  0.12066457065E+03  0.12066457067E+03  0.25500000000E-02 0. -1.
          2   -1    0    0  501    0  0.00000000000E+00 -0.00000000000E+00 -0.28642707312E+03  0.28642707313E+03  0.25500000000E-02 0.  1.
    5000001    1    1    2    0    0  0.26189617189E+02  0.67782817281E+02 -0.33233765663E+02  0.18333000177E+03  0.16500000000E+03 0.  0.
   -5000001    1    1    2    0    0 -0.26189617189E+02 -0.67782817281E+02 -0.13252873681E+03  0.22376164204E+03  0.16500000000E+03 0.  0.
<mgrwt>
<rscale>  0 0.37181501E+03</rscale>
<asrwt>0</asrwt>
<pdfrwt beam="1">  1        2 0.40918153E-01 0.37181501E+03</pdfrwt>
<pdfrwt beam="2">  1       -2 0.17237796E-01 0.37181501E+03</pdfrwt>
<totfact> 0.33970430E+03</totfact>
</mgrwt>
</event>
<event>
 4    1  0.5387486E-005  0.8448515E+03  0.7818608E-02  0.9497273E-01
         -2   -1    0    0    0  501 -0.00000000000E+00  0.00000000000E+00  0.39320366623E+03  0.39320366624E+03  0.25500000000E-02 0. -1.
          2   -1    0    0  501    0  0.00000000000E+00 -0.00000000000E+00 -0.45381958796E+03  0.45381958797E+03  0.25500000000E-02 0.  1.
    5000001    1    1    2    0    0  0.27105994017E+03  0.24552341758E+03 -0.16279638185E+03  0.43299295801E+03  0.16500000000E+03 0.  0.
   -5000001    1    1    2    0    0 -0.27105994017E+03 -0.24552341758E+03  0.10218046011E+03  0.41403029620E+03  0.16500000000E+03 0.  0.
<mgrwt>
<rscale>  0 0.84485153E+03</rscale>
<asrwt>0</asrwt>
<pdfrwt beam="1">  1        2 0.64831369E-01 0.84485153E+03</pdfrwt>
<pdfrwt beam="2">  1       -2 0.56171953E-01 0.84485153E+03</pdfrwt>
<totfact> 0.22435265E+02</totfact>
</mgrwt>
</event>
<event>
 4    1  0.5387486E-005  0.4476075E+03  0.7818608E-02  0.1028438E+00
          2   -1    0    0  501    0  0.00000000000E+00  0.00000000000E+00  0.12640084130E+04  0.12640084130E+04  0.25500000000E-02 0.  1.
         -2   -1    0    0    0  501 -0.00000000000E+00 -0.00000000000E+00 -0.39626405947E+02  0.39626406029E+02  0.25500000000E-02 0. -1.
    5000001    1    1    2    0    0  0.37963307337E+02 -0.13202155428E+03  0.42817094692E+03  0.47898461696E+03  0.16500000000E+03 0.  0.
   -5000001    1    1    2    0    0 -0.37963307337E+02  0.13202155428E+03  0.79621106015E+03  0.82465020209E+03  0.16500000000E+03 0.  0.
<mgrwt>
<rscale>  0 0.44760746E+03</rscale>
<asrwt>0</asrwt>
<pdfrwt beam="1">  1        2 0.18057264E+00 0.44760746E+03</pdfrwt>
<pdfrwt beam="2">  1       -2 0.56609150E-02 0.44760746E+03</pdfrwt>
<totfact> 0.33599680E+03</totfact>
</mgrwt>
</event>
<event>
 4    1  0.5387486E-005  0.4859874E+03  0.7818608E-02  0.1017503E+00
          2   -1    0    0  501    0  0.00000000000E+00  0.00000000000E+00  0.62715504113E+03  0.62715504113E+03  0.25500000000E-02 0. -1.
         -2   -1    0    0    0  501 -0.00000000000E+00 -0.00000000000E+00 -0.94148864853E+02  0.94148864887E+02  0.25500000000E-02 0.  1.
    5000001    1    1    2    0    0 -0.40266186250E+02 -0.17319910330E+03  0.28757877418E+03  0.37622579191E+03  0.16500000000E+03 0.  0.
   -5000001    1    1    2    0    0  0.40266186250E+02  0.17319910330E+03  0.24542740210E+03  0.34507811411E+03  0.16500000000E+03 0.  0.
<mgrwt>
<rscale>  0 0.48598739E+03</rscale>
<asrwt>0</asrwt>
<pdfrwt beam="1">  1        2 0.89593579E-01 0.48598739E+03</pdfrwt>
<pdfrwt beam="2">  1       -2 0.13449838E-01 0.48598739E+03</pdfrwt>
<totfact> 0.21569151E+03</totfact>
</mgrwt>
</event>
<event>
 4    1  0.5387486E-005  0.5732555E+03  0.7818608E-02  0.9962500E-01
         -2   -1    0    0    0  501 -0.00000000000E+00  0.00000000000E+00  0.66837009118E+02  0.66837009166E+02  0.25500000000E-02 0. -1.
          2   -1    0    0  501    0  0.00000000000E+00 -0.00000000000E+00 -0.12291912581E+04  0.12291912581E+04  0.25500000000E-02 0.  1.
    5000001    1    1    2    0    0 -0.21392299326E+03 -0.93593269428E+02 -0.53552643181E+03  0.60707191197E+03  0.16500000000E+03 0.  0.
   -5000001    1    1    2    0    0  0.21392299326E+03  0.93593269428E+02 -0.62682781712E+03  0.68895635526E+03  0.16500000000E+03 0.  0.
<mgrwt>
<rscale>  0 0.57325550E+03</rscale>
<asrwt>0</asrwt>
<pdfrwt beam="1">  1        2 0.17559874E+00 0.57325550E+03</pdfrwt>
<pdfrwt beam="2">  1       -2 0.95481449E-02 0.57325550E+03</pdfrwt>
<totfact> 0.15350481E+03</totfact>
</mgrwt>
</event>
<event>
 4    1  0.5387486E-005  0.7434925E+03  0.7818608E-02  0.9645615E-01
          2   -1    0    0  501    0  0.00000000000E+00  0.00000000000E+00  0.12604169985E+04  0.12604169985E+04  0.25500000000E-02 0.  1.
         -2   -1    0    0    0  501 -0.00000000000E+00 -0.00000000000E+00 -0.10964251729E+03  0.10964251732E+03  0.25500000000E-02 0. -1.
    5000001    1    1    2    0    0  0.31043081660E+03  0.11963580751E+03  0.54399176525E+03  0.65865928901E+03  0.16500000000E+03 0.  0.
   -5000001    1    1    2    0    0 -0.31043081660E+03 -0.11963580751E+03  0.60678271598E+03  0.71140022684E+03  0.16500000000E+03 0.  0.
<mgrwt>
<rscale>  0 0.74349255E+03</rscale>
<asrwt>0</asrwt>
<pdfrwt beam="1">  1        2 0.18005957E+00 0.74349255E+03</pdfrwt>
<pdfrwt beam="2">  1       -2 0.15663216E-01 0.74349255E+03</pdfrwt>
<totfact> 0.64699708E+02</totfact>
</mgrwt>
</event>
<event>
 4    1  0.5387486E-005  0.4287770E+03  0.7818608E-02  0.1034247E+00
         -2   -1    0    0    0  501 -0.00000000000E+00  0.00000000000E+00  0.27417590246E+03  0.27417590247E+03  0.25500000000E-02 0. -1.
          2   -1    0    0  501    0  0.00000000000E+00 -0.00000000000E+00 -0.16763843580E+03  0.16763843582E+03  0.25500000000E-02 0.  1.
    5000001    1    1    2    0    0  0.55391196919E+02  0.11112394216E+03 -0.61089796448E+01  0.20658904823E+03  0.16500000000E+03 0.  0.
   -5000001    1    1    2    0    0 -0.55391196919E+02 -0.11112394216E+03  0.11264644630E+03  0.23522529006E+03  0.16500000000E+03 0.  0.
<mgrwt>
<rscale>  0 0.42877696E+03</rscale>
<asrwt>0</asrwt>
<pdfrwt beam="1">  1        2 0.23948348E-01 0.42877696E+03</pdfrwt>
<pdfrwt beam="2">  1       -2 0.39167986E-01 0.42877696E+03</pdfrwt>
<totfact> 0.14129170E+03</totfact>
</mgrwt>
</event>
<event>
 4    1  0.5387486E-005  0.7332168E+03  0.7818608E-02  0.9662055E-01
          2   -1    0    0  501    0  0.00000000000E+00  0.00000000000E+00  0.21586016605E+04  0.21586016605E+04  0.25500000000E-02 0.  1.
         -2   -1    0    0    0  501 -0.00000000000E+00 -0.00000000000E+00 -0.62263328835E+02  0.62263328887E+02  0.25500000000E-02 0. -1.
    5000001    1    1    2    0    0 -0.25098443510E+03 -0.20435706346E+03  0.11972262132E+04  0.12511317283E+04  0.16500000000E+03 0.  0.
   -5000001    1    1    2    0    0  0.25098443510E+03  0.20435706346E+03  0.89911211855E+03  0.96973326114E+03  0.16500000000E+03 0.  0.
<mgrwt>
<rscale>  0 0.73321682E+03</rscale>
<asrwt>0</asrwt>
<pdfrwt beam="1">  1        2 0.30837158E+00 0.73321682E+03</pdfrwt>
<pdfrwt beam="2">  1       -2 0.88947637E-02 0.73321682E+03</pdfrwt>
<totfact> 0.56505793E+02</totfact>
</mgrwt>
</event>
<event>
 4    1  0.5387486E-005  0.6979631E+03  0.7818608E-02  0.9720722E-01
          2   -1    0    0  501    0  0.00000000000E+00  0.00000000000E+00  0.33177856281E+03  0.33177856282E+03  0.25500000000E-02 0.  1.
         -2   -1    0    0    0  501 -0.00000000000E+00 -0.00000000000E+00 -0.36707653234E+03  0.36707653235E+03  0.25500000000E-02 0. -1.
    5000001    1    1    2    0    0  0.56227581488E+02  0.26078968440E+03  0.13548542447E+03  0.34169299181E+03  0.16500000000E+03 0.  0.
   -5000001    1    1    2    0    0 -0.56227581488E+02 -0.26078968440E+03 -0.17078339400E+03  0.35716210336E+03  0.16500000000E+03 0.  0.
<mgrwt>
<rscale>  0 0.69796311E+03</rscale>
<asrwt>0</asrwt>
<pdfrwt beam="1">  1        2 0.47396937E-01 0.69796311E+03</pdfrwt>
<pdfrwt beam="2">  1       -2 0.52439505E-01 0.69796311E+03</pdfrwt>
<totfact> 0.36887665E+02</totfact>
</mgrwt>
</event>
<event>
 4    1  0.5387486E-005  0.5895915E+03  0.7818608E-02  0.9927239E-01
         -2   -1    0    0    0  501 -0.00000000000E+00  0.00000000000E+00  0.54726527407E+02  0.54726527467E+02  0.25500000000E-02 0.  1.
          2   -1    0    0  501    0  0.00000000000E+00 -0.00000000000E+00 -0.15879779849E+04  0.15879779849E+04  0.25500000000E-02 0. -1.
    5000001    1    1    2    0    0  0.20737311551E+03  0.10797894817E+03 -0.96396198317E+03  0.10055400376E+04  0.16500000000E+03 0.  0.
   -5000001    1    1    2    0    0 -0.20737311551E+03 -0.10797894817E+03 -0.56928947428E+03  0.63716447470E+03  0.16500000000E+03 0.  0.
<mgrwt>
<rscale>  0 0.58959145E+03</rscale>
<asrwt>0</asrwt>
<pdfrwt beam="1">  1        2 0.22685397E+00 0.58959145E+03</pdfrwt>
<pdfrwt beam="2">  1       -2 0.78180763E-02 0.58959145E+03</pdfrwt>
<totfact> 0.13627411E+03</totfact>
</mgrwt>
</event>
<event>
 4    1  0.5387486E-005  0.4816283E+03  0.7818608E-02  0.1018689E+00
         -2   -1    0    0    0  501 -0.00000000000E+00  0.00000000000E+00  0.22196982268E+04  0.22196982268E+04  0.25500000000E-02 0. -1.
          2   -1    0    0  501    0  0.00000000000E+00 -0.00000000000E+00 -0.26125827340E+02  0.26125827464E+02  0.25500000000E-02 0.  1.
    5000001    1    1    2    0    0 -0.14748076392E+03 -0.92384951163E+02  0.99452988200E+03  0.10230348191E+04  0.16500000000E+03 0.  0.
   -5000001    1    1    2    0    0  0.14748076392E+03  0.92384951163E+02  0.11990425175E+04  0.12227892352E+04  0.16500000000E+03 0.  0.
<mgrwt>
<rscale>  0 0.48162829E+03</rscale>
<asrwt>0</asrwt>
<pdfrwt beam="1">  1        2 0.37322609E-02 0.48162829E+03</pdfrwt>
<pdfrwt beam="2">  1       -2 0.31709976E+00 0.48162829E+03</pdfrwt>
<totfact> 0.66002735E+01</totfact>
</mgrwt>
</event>
<event>
 4    1  0.5387486E-005  0.4568253E+03  0.7818608E-02  0.1025706E+00
          2   -1    0    0  501    0  0.00000000000E+00  0.00000000000E+00  0.11500883384E+04  0.11500883384E+04  0.25500000000E-02 0.  1.
         -2   -1    0    0    0  501 -0.00000000000E+00 -0.00000000000E+00 -0.45363757269E+02  0.45363757341E+02  0.25500000000E-02 0. -1.
    5000001    1    1    2    0    0 -0.15623847567E+03 -0.22070502612E+02  0.53390271010E+03  0.58066743685E+03  0.16500000000E+03 0.  0.
   -5000001    1    1    2    0    0  0.15623847567E+03  0.22070502612E+02  0.57082187107E+03  0.61478465893E+03  0.16500000000E+03 0.  0.
<mgrwt>
<rscale>  0 0.45682525E+03</rscale>
<asrwt>0</asrwt>
<pdfrwt beam="1">  1        2 0.16429831E+00 0.45682525E+03</pdfrwt>
<pdfrwt beam="2">  1       -2 0.64805378E-02 0.45682525E+03</pdfrwt>
<totfact> 0.31477036E+03</totfact>
</mgrwt>
</event>
<event>
 4    1  0.5387486E-005  0.5538146E+03  0.7818608E-02  0.1000615E+00
         -2   -1    0    0    0  501 -0.00000000000E+00  0.00000000000E+00  0.80158966473E+02  0.80158966513E+02  0.25500000000E-02 0. -1.
          2   -1    0    0  501    0  0.00000000000E+00 -0.00000000000E+00 -0.95657000891E+03  0.95657000891E+03  0.25500000000E-02 0.  1.
    5000001    1    1    2    0    0  0.31080601719E+02  0.14443206661E+03 -0.12706247034E+03  0.25533604727E+03  0.16500000000E+03 0.  0.
   -5000001    1    1    2    0    0 -0.31080601719E+02 -0.14443206661E+03 -0.74934857209E+03  0.78139292815E+03  0.16500000000E+03 0.  0.
<mgrwt>
<rscale>  0 0.55381464E+03</rscale>
<asrwt>0</asrwt>
<pdfrwt beam="1">  1        2 0.13665285E+00 0.55381464E+03</pdfrwt>
<pdfrwt beam="2">  1       -2 0.11451281E-01 0.55381464E+03</pdfrwt>
<totfact> 0.16492294E+03</totfact>
</mgrwt>
</event>
<event>
 4    1  0.5387486E-005  0.7211273E+03  0.7818608E-02  0.9681769E-01
          2   -1    0    0  501    0  0.00000000000E+00  0.00000000000E+00  0.76910277153E+03  0.76910277153E+03  0.25500000000E-02 0.  1.
         -2   -1    0    0    0  501 -0.00000000000E+00 -0.00000000000E+00 -0.16903609688E+03  0.16903609690E+03  0.25500000000E-02 0. -1.
    5000001    1    1    2    0    0 -0.26671658411E+03 -0.11761230526E+03  0.47365191740E+03  0.58012199531E+03  0.16500000000E+03 0.  0.
   -5000001    1    1    2    0    0  0.26671658411E+03  0.11761230526E+03  0.12641475724E+03  0.35801687312E+03  0.16500000000E+03 0.  0.
<mgrwt>
<rscale>  0 0.72112726E+03</rscale>
<asrwt>0</asrwt>
<pdfrwt beam="1">  1        2 0.10987182E+00 0.72112726E+03</pdfrwt>
<pdfrwt beam="2">  1       -2 0.24148014E-01 0.72112726E+03</pdfrwt>
<totfact> 0.61226581E+02</totfact>
</mgrwt>
</event>
<event>
 4    1  0.5387486E-005  0.4327649E+03  0.7818608E-02  0.1032990E+00
         -2   -1    0    0    0  501 -0.00000000000E+00  0.00000000000E+00  0.15011191560E+02  0.15011191777E+02  0.25500000000E-02 0. -1.
          2   -1    0    0  501    0  0.00000000000E+00 -0.00000000000E+00 -0.31190976833E+04  0.31190976833E+04  0.25500000000E-02 0.  1.
    5000001    1    1    2    0    0  0.13010033255E+03  0.15033140528E+02 -0.11939982532E+04  0.12124392440E+04  0.16500000000E+03 0.  0.
   -5000001    1    1    2    0    0 -0.13010033255E+03 -0.15033140528E+02 -0.19100882385E+04  0.19216696310E+04  0.16500000000E+03 0.  0.
<mgrwt>
<rscale>  0 0.43276494E+03</rscale>
<asrwt>0</asrwt>
<pdfrwt beam="1">  1        2 0.44558497E+00 0.43276494E+03</pdfrwt>
<pdfrwt beam="2">  1       -2 0.21444579E-02 0.43276494E+03</pdfrwt>
<totfact> 0.16413421E+03</totfact>
</mgrwt>
</event>
<event>
 4    1  0.5387486E-005  0.3704990E+03  0.7818608E-02  0.1054502E+00
         -2   -1    0    0    0  501 -0.00000000000E+00  0.00000000000E+00  0.68131986007E+03  0.68131986007E+03  0.25500000000E-02 0. -1.
          2   -1    0    0  501    0  0.00000000000E+00 -0.00000000000E+00 -0.50368965101E+02  0.50368965166E+02  0.25500000000E-02 0.  1.
    5000001    1    1    2    0    0  0.17243277541E+02  0.80763213705E+02  0.34806679058E+03  0.39394862357E+03  0.16500000000E+03 0.  0.
   -5000001    1    1    2    0    0 -0.17243277541E+02 -0.80763213705E+02  0.28288410439E+03  0.33774020167E+03  0.16500000000E+03 0.  0.
<mgrwt>
<rscale>  0 0.37049899E+03</rscale>
<asrwt>0</asrwt>
<pdfrwt beam="1">  1        2 0.71955667E-02 0.37049899E+03</pdfrwt>
<pdfrwt beam="2">  1       -2 0.97331405E-01 0.37049899E+03</pdfrwt>
<totfact> 0.89642800E+02</totfact>
</mgrwt>
</event>
<event>
 4    1  0.5387486E-005  0.5676458E+03  0.7818608E-02  0.9974902E-01
          2   -1    0    0  501    0  0.00000000000E+00  0.00000000000E+00  0.14105971259E+03  0.14105971262E+03  0.25500000000E-02 0.  1.
         -2   -1    0    0    0  501 -0.00000000000E+00 -0.00000000000E+00 -0.57107331022E+03  0.57107331023E+03  0.25500000000E-02 0. -1.
    5000001    1    1    2    0    0 -0.20726473119E+03  0.71728720822E+02 -0.12430833498E+03  0.30129925378E+03  0.16500000000E+03 0.  0.
   -5000001    1    1    2    0    0  0.20726473119E+03 -0.71728720822E+02 -0.30570526265E+03  0.41083376906E+03  0.16500000000E+03 0.  0.
<mgrwt>
<rscale>  0 0.56764579E+03</rscale>
<asrwt>0</asrwt>
<pdfrwt beam="1">  1        2 0.20151388E-01 0.56764579E+03</pdfrwt>
<pdfrwt beam="2">  1       -2 0.81581900E-01 0.56764579E+03</pdfrwt>
<totfact> 0.37626167E+02</totfact>
</mgrwt>
</event>
<event>
 4    1  0.5387486E-005  0.4298953E+03  0.7818608E-02  0.1033893E+00
         -2   -1    0    0    0  501 -0.00000000000E+00  0.00000000000E+00  0.34740000782E+02  0.34740000876E+02  0.25500000000E-02 0.  1.
          2   -1    0    0  501    0  0.00000000000E+00 -0.00000000000E+00 -0.13299507872E+04  0.13299507872E+04  0.25500000000E-02 0. -1.
    5000001    1    1    2    0    0  0.78188538184E+02 -0.88425115884E+02 -0.42212748590E+03  0.46834716074E+03  0.16500000000E+03 0.  0.
   -5000001    1    1    2    0    0 -0.78188538184E+02  0.88425115884E+02 -0.87308330049E+03  0.89634362730E+03  0.16500000000E+03 0.  0.
<mgrwt>
<rscale>  0 0.42989530E+03</rscale>
<asrwt>0</asrwt>
<pdfrwt beam="1">  1        2 0.18999294E+00 0.42989530E+03</pdfrwt>
<pdfrwt beam="2">  1       -2 0.49628581E-02 0.42989530E+03</pdfrwt>
<totfact> 0.37938798E+03</totfact>
</mgrwt>
</event>
<event>
 4    1  0.5387486E-005  0.5196455E+03  0.7818608E-02  0.1008775E+00
          2   -1    0    0  501    0  0.00000000000E+00  0.00000000000E+00  0.11300787646E+04  0.11300787646E+04  0.25500000000E-02 0.  1.
         -2   -1    0    0    0  501 -0.00000000000E+00 -0.00000000000E+00 -0.59737305652E+02  0.59737305706E+02  0.25500000000E-02 0. -1.
    5000001    1    1    2    0    0 -0.17813326514E+03 -0.44797153936E+02  0.72040218065E+03  0.76153958993E+03  0.16500000000E+03 0.  0.
   -5000001    1    1    2    0    0  0.17813326514E+03  0.44797153936E+02  0.34993927830E+03  0.42827648038E+03  0.16500000000E+03 0.  0.
<mgrwt>
<rscale>  0 0.51964550E+03</rscale>
<asrwt>0</asrwt>
<pdfrwt beam="1">  1        2 0.16143983E+00 0.51964550E+03</pdfrwt>
<pdfrwt beam="2">  1       -2 0.85339004E-02 0.51964550E+03</pdfrwt>
<totfact> 0.20918986E+03</totfact>
</mgrwt>
</event>
<event>
 4    1  0.5387486E-005  0.4152329E+03  0.7818608E-02  0.1038629E+00
          2   -1    0    0  501    0  0.00000000000E+00  0.00000000000E+00  0.31257047366E+03  0.31257047367E+03  0.25500000000E-02 0.  1.
         -2   -1    0    0    0  501 -0.00000000000E+00 -0.00000000000E+00 -0.13790356748E+03  0.13790356751E+03  0.25500000000E-02 0. -1.
    5000001    1    1    2    0    0  0.12523308949E+03  0.87961606260E+01  0.99162241010E+02  0.22982351748E+03  0.16500000000E+03 0.  0.
   -5000001    1    1    2    0    0 -0.12523308949E+03 -0.87961606260E+01  0.75504665162E+02  0.22065052369E+03  0.16500000000E+03 0.  0.
<mgrwt>
<rscale>  0 0.41523287E+03</rscale>
<asrwt>0</asrwt>
<pdfrwt beam="1">  1        2 0.44652925E-01 0.41523287E+03</pdfrwt>
<pdfrwt beam="2">  1       -2 0.19700509E-01 0.41523287E+03</pdfrwt>
<totfact> 0.24640079E+03</totfact>
</mgrwt>
</event>
<event>
 4    1  0.5387486E-005  0.4034768E+03  0.7818608E-02  0.1042582E+00
         -2   -1    0    0    0  501 -0.00000000000E+00  0.00000000000E+00  0.43352722456E+02  0.43352722531E+02  0.25500000000E-02 0. -1.
          2   -1    0    0  501    0  0.00000000000E+00 -0.00000000000E+00 -0.93877343688E+03  0.93877343688E+03  0.25500000000E-02 0.  1.
    5000001    1    1    2    0    0 -0.11119595503E+03  0.31400123407E+02 -0.47469287458E+03  0.51566348847E+03  0.16500000000E+03 0.  0.
   -5000001    1    1    2    0    0  0.11119595503E+03 -0.31400123407E+02 -0.42072783984E+03  0.46646267094E+03  0.16500000000E+03 0.  0.
<mgrwt>
<rscale>  0 0.40347681E+03</rscale>
<asrwt>0</asrwt>
<pdfrwt beam="1">  1        2 0.13411048E+00 0.40347681E+03</pdfrwt>
<pdfrwt beam="2">  1       -2 0.61932466E-02 0.40347681E+03</pdfrwt>
<totfact> 0.44970589E+03</totfact>
</mgrwt>
</event>
<event>
 4    1  0.5387486E-005  0.4670913E+03  0.7818608E-02  0.1022744E+00
          2   -1    0    0  501    0  0.00000000000E+00  0.00000000000E+00  0.32381701665E+03  0.32381701666E+03  0.25500000000E-02 0.  1.
         -2   -1    0    0    0  501 -0.00000000000E+00 -0.00000000000E+00 -0.16843945701E+03  0.16843945703E+03  0.25500000000E-02 0. -1.
    5000001    1    1    2    0    0 -0.77467382861E+02  0.14600185997E+03  0.78645395523E+02  0.24643018638E+03  0.16500000000E+03 0.  0.
   -5000001    1    1    2    0    0  0.77467382861E+02 -0.14600185997E+03  0.76732164121E+02  0.24582628731E+03  0.16500000000E+03 0.  0.
<mgrwt>
<rscale>  0 0.46709127E+03</rscale>
<asrwt>0</asrwt>
<pdfrwt beam="1">  1        2 0.46259573E-01 0.46709127E+03</pdfrwt>
<pdfrwt beam="2">  1       -2 0.24062780E-01 0.46709127E+03</pdfrwt>
<totfact> 0.16726789E+03</totfact>
</mgrwt>
</event>
<event>
 4    1  0.5387486E-005  0.4127893E+03  0.7818608E-02  0.1039439E+00
          2   -1    0    0  501    0  0.00000000000E+00  0.00000000000E+00  0.16755788779E+04  0.16755788779E+04  0.25500000000E-02 0.  1.
         -2   -1    0    0    0  501 -0.00000000000E+00 -0.00000000000E+00 -0.25423304588E+02  0.25423304716E+02  0.25500000000E-02 0. -1.
    5000001    1    1    2    0    0  0.82406931302E+02  0.13909677039E+02  0.44764368909E+03  0.48434930972E+03  0.16500000000E+03 0.  0.
   -5000001    1    1    2    0    0 -0.82406931302E+02 -0.13909677039E+02  0.12025118842E+04  0.12166528729E+04  0.16500000000E+03 0.  0.
<mgrwt>
<rscale>  0 0.41278930E+03</rscale>
<asrwt>0</asrwt>
<pdfrwt beam="1">  1        2 0.23936852E+00 0.41278930E+03</pdfrwt>
<pdfrwt beam="2">  1       -2 0.36318991E-02 0.41278930E+03</pdfrwt>
<totfact> 0.40554707E+03</totfact>
</mgrwt>
</event>
<event>
 4    1  0.5387486E-005  0.9180920E+03  0.7818608E-02  0.9403244E-01
         -2   -1    0    0    0  501 -0.00000000000E+00  0.00000000000E+00  0.44428149142E+03  0.44428149143E+03  0.25500000000E-02 0. -1.
          2   -1    0    0  501    0  0.00000000000E+00 -0.00000000000E+00 -0.47430111836E+03  0.47430111837E+03  0.25500000000E-02 0.  1.
    5000001    1    1    2    0    0  0.39196992392E+02 -0.22798468736E+03  0.34571689676E+03  0.44750261964E+03  0.16500000000E+03 0.  0.
   -5000001    1    1    2    0    0 -0.39196992392E+02  0.22798468736E+03 -0.37573652370E+03  0.47107999016E+03  0.16500000000E+03 0.  0.
<mgrwt>
<rscale>  0 0.91809195E+03</rscale>
<asrwt>0</asrwt>
<pdfrwt beam="1">  1        2 0.67757302E-01 0.91809195E+03</pdfrwt>
<pdfrwt beam="2">  1       -2 0.63468785E-01 0.91809195E+03</pdfrwt>
<totfact> 0.16437727E+02</totfact>
</mgrwt>
</event>
<event>
 4    1  0.5387486E-005  0.1015321E+04  0.7818608E-02  0.9291899E-01
         -2   -1    0    0    0  501 -0.00000000000E+00  0.00000000000E+00  0.54400917154E+03  0.54400917155E+03  0.25500000000E-02 0. -1.
          2   -1    0    0  501    0  0.00000000000E+00 -0.00000000000E+00 -0.47374066580E+03  0.47374066581E+03  0.25500000000E-02 0.  1.
    5000001    1    1    2    0    0 -0.30516731401E+03 -0.33675404815E+03  0.19030728575E+03  0.51958853096E+03  0.16500000000E+03 0.  0.
   -5000001    1    1    2    0    0  0.30516731401E+03  0.33675404815E+03 -0.12003878001E+03  0.49816130640E+03  0.16500000000E+03 0.  0.
<mgrwt>
<rscale>  0 0.10153212E+04</rscale>
<asrwt>0</asrwt>
<pdfrwt beam="1">  1        2 0.67677238E-01 0.10153212E+04</pdfrwt>
<pdfrwt beam="2">  1       -2 0.77715596E-01 0.10153212E+04</pdfrwt>
<totfact> 0.10521077E+02</totfact>
</mgrwt>
</event>
<event>
 4    1  0.5387486E-005  0.4659992E+03  0.7818608E-02  0.1023056E+00
         -2   -1    0    0    0  501 -0.00000000000E+00  0.00000000000E+00  0.96738255616E+02  0.96738255649E+02  0.25500000000E-02 0. -1.
          2   -1    0    0  501    0  0.00000000000E+00 -0.00000000000E+00 -0.56119272742E+03  0.56119272742E+03  0.25500000000E-02 0.  1.
    5000001    1    1    2    0    0 -0.77829675255E+02 -0.13692259278E+03 -0.29932532129E+03  0.37633217073E+03  0.16500000000E+03 0.  0.
   -5000001    1    1    2    0    0  0.77829675255E+02  0.13692259278E+03 -0.16512915051E+03  0.28159881234E+03  0.16500000000E+03 0.  0.
<mgrwt>
<rscale>  0 0.46599917E+03</rscale>
<asrwt>0</asrwt>
<pdfrwt beam="1">  1        2 0.80170388E-01 0.46599917E+03</pdfrwt>
<pdfrwt beam="2">  1       -2 0.13819751E-01 0.46599917E+03</pdfrwt>
<totfact> 0.23462013E+03</totfact>
</mgrwt>
</event>
<event>
 4    1  0.5387486E-005  0.1194268E+04  0.7818608E-02  0.9117888E-01
          2   -1    0    0  501    0  0.00000000000E+00  0.00000000000E+00  0.95512552386E+03  0.95512552386E+03  0.25500000000E-02 0.  1.
         -2   -1    0    0    0  501 -0.00000000000E+00 -0.00000000000E+00 -0.37332189460E+03  0.37332189461E+03  0.25500000000E-02 0. -1.
    5000001    1    1    2    0    0 -0.37608769789E+03  0.39681642461E+03  0.48497158172E+03  0.74921803664E+03  0.16500000000E+03 0.  0.
   -5000001    1    1    2    0    0  0.37608769789E+03 -0.39681642461E+03  0.96832047538E+02  0.57922938183E+03  0.16500000000E+03 0.  0.
<mgrwt>
<rscale>  0 0.11942684E+04</rscale>
<asrwt>0</asrwt>
<pdfrwt beam="1">  1        2 0.13644650E+00 0.11942684E+04</pdfrwt>
<pdfrwt beam="2">  1       -2 0.53331700E-01 0.11942684E+04</pdfrwt>
<totfact> 0.98055384E+01</totfact>
</mgrwt>
</event>
<event>
 4    1  0.5387486E-005  0.1017319E+04  0.7818608E-02  0.9289751E-01
         -2   -1    0    0    0  501 -0.00000000000E+00  0.00000000000E+00  0.88884797063E+02  0.88884797100E+02  0.25500000000E-02 0. -1.
          2   -1    0    0  501    0  0.00000000000E+00 -0.00000000000E+00 -0.29108955458E+04  0.29108955458E+04  0.25500000000E-02 0.  1.
    5000001    1    1    2    0    0 -0.20078803579E+03  0.41972198102E+03 -0.17724720850E+04  0.18399360502E+04  0.16500000000E+03 0.  0.
   -5000001    1    1    2    0    0  0.20078803579E+03 -0.41972198102E+03 -0.10495386638E+04  0.11598442928E+04  0.16500000000E+03 0.  0.
<mgrwt>
<rscale>  0 0.10173188E+04</rscale>
<asrwt>0</asrwt>
<pdfrwt beam="1">  1        2 0.41584216E+00 0.10173188E+04</pdfrwt>
<pdfrwt beam="2">  1       -2 0.12697830E-01 0.10173188E+04</pdfrwt>
<totfact> 0.12464614E+02</totfact>
</mgrwt>
</event>
<event>
 4    1  0.5387486E-005  0.4193734E+03  0.7818608E-02  0.1037270E+00
         -2   -1    0    0    0  501 -0.00000000000E+00  0.00000000000E+00  0.21270601215E+02  0.21270601368E+02  0.25500000000E-02 0. -1.
          2   -1    0    0  501    0  0.00000000000E+00 -0.00000000000E+00 -0.20671021830E+04  0.20671021830E+04  0.25500000000E-02 0.  1.
    5000001    1    1    2    0    0  0.30321764701E+02 -0.12429357607E+03 -0.92645721506E+03  0.94969272599E+03  0.16500000000E+03 0.  0.
   -5000001    1    1    2    0    0 -0.30321764701E+02  0.12429357607E+03 -0.11193743667E+04  0.11386800584E+04  0.16500000000E+03 0.  0.
<mgrwt>
<rscale>  0 0.41937337E+03</rscale>
<asrwt>0</asrwt>
<pdfrwt beam="1">  1        2 0.29530019E+00 0.41937337E+03</pdfrwt>
<pdfrwt beam="2">  1       -2 0.30386586E-02 0.41937337E+03</pdfrwt>
<totfact> 0.33908992E+03</totfact>
</mgrwt>
</event>
<event>
 4    1  0.5387486E-005  0.5278887E+03  0.7818608E-02  0.1006745E+00
         -2   -1    0    0    0  501 -0.00000000000E+00  0.00000000000E+00  0.52738962242E+02  0.52738962304E+02  0.25500000000E-02 0. -1.
          2   -1    0    0  501    0  0.00000000000E+00 -0.00000000000E+00 -0.13209707500E+04  0.13209707500E+04  0.25500000000E-02 0.  1.
    5000001    1    1    2    0    0 -0.49914553827E+02  0.87049098503E+02 -0.16590501979E+03  0.25459474430E+03  0.16500000000E+03 0.  0.
   -5000001    1    1    2    0    0  0.49914553827E+02 -0.87049098503E+02 -0.11023267679E+04  0.11191149680E+04  0.16500000000E+03 0.  0.
<mgrwt>
<rscale>  0 0.52788873E+03</rscale>
<asrwt>0</asrwt>
<pdfrwt beam="1">  1        2 0.18871009E+00 0.52788873E+03</pdfrwt>
<pdfrwt beam="2">  1       -2 0.75341383E-02 0.52788873E+03</pdfrwt>
<totfact> 0.19989538E+03</totfact>
</mgrwt>
</event>
<event>
 4    1  0.5387486E-005  0.7385337E+03  0.7818608E-02  0.9653513E-01
         -2   -1    0    0    0  501 -0.00000000000E+00  0.00000000000E+00  0.19806741449E+03  0.19806741451E+03  0.25500000000E-02 0. -1.
          2   -1    0    0  501    0  0.00000000000E+00 -0.00000000000E+00 -0.68844232416E+03  0.68844232416E+03  0.25500000000E-02 0.  1.
    5000001    1    1    2    0    0  0.18280045568E+02  0.12293455034E+03 -0.61259696887E+03  0.64648829069E+03  0.16500000000E+03 0.  0.
   -5000001    1    1    2    0    0 -0.18280045568E+02 -0.12293455034E+03  0.12222205920E+03  0.24002144798E+03  0.16500000000E+03 0.  0.
<mgrwt>
<rscale>  0 0.73853366E+03</rscale>
<asrwt>0</asrwt>
<pdfrwt beam="1">  1        2 0.98348902E-01 0.73853366E+03</pdfrwt>
<pdfrwt beam="2">  1       -2 0.28295345E-01 0.73853366E+03</pdfrwt>
<totfact> 0.52699220E+02</totfact>
</mgrwt>
</event>
<event>
 4    1  0.5387486E-005  0.4706193E+03  0.7818608E-02  0.1021746E+00
          2   -1    0    0  501    0  0.00000000000E+00  0.00000000000E+00  0.70737659135E+03  0.70737659135E+03  0.25500000000E-02 0.  1.
         -2   -1    0    0    0  501 -0.00000000000E+00 -0.00000000000E+00 -0.78276038339E+02  0.78276038380E+02  0.25500000000E-02 0. -1.
    5000001    1    1    2    0    0 -0.12799490232E+03 -0.43799122374E+02  0.14891250161E+03  0.26019414151E+03  0.16500000000E+03 0.  0.
   -5000001    1    1    2    0    0  0.12799490232E+03  0.43799122374E+02  0.48018805140E+03  0.52545848822E+03  0.16500000000E+03 0.  0.
<mgrwt>
<rscale>  0 0.47061932E+03</rscale>
<asrwt>0</asrwt>
<pdfrwt beam="1">  1        2 0.10105380E+00 0.47061932E+03</pdfrwt>
<pdfrwt beam="2">  1       -2 0.11182291E-01 0.47061932E+03</pdfrwt>
<totfact> 0.25278315E+03</totfact>
</mgrwt>
</event>
<event>
 4    1  0.5387486E-005  0.6157020E+03  0.7818608E-02  0.9873354E-01
         -2   -1    0    0    0  501 -0.00000000000E+00  0.00000000000E+00  0.12352113135E+03  0.12352113138E+03  0.25500000000E-02 0.  1.
          2   -1    0    0  501    0  0.00000000000E+00 -0.00000000000E+00 -0.76725519882E+03  0.76725519883E+03  0.25500000000E-02 0. -1.
    5000001    1    1    2    0    0 -0.15935981239E+03 -0.13803100769E+03 -0.10198190796E+03  0.28648458674E+03  0.16500000000E+03 0.  0.
   -5000001    1    1    2    0    0  0.15935981239E+03  0.13803100769E+03 -0.54175215951E+03  0.60429174347E+03  0.16500000000E+03 0.  0.
<mgrwt>
<rscale>  0 0.61570197E+03</rscale>
<asrwt>0</asrwt>
<pdfrwt beam="1">  1        2 0.10960788E+00 0.61570197E+03</pdfrwt>
<pdfrwt beam="2">  1       -2 0.17645876E-01 0.61570197E+03</pdfrwt>
<totfact> 0.10670150E+03</totfact>
</mgrwt>
</event>
<event>
 4    1  0.5387486E-005  0.1115486E+04  0.7818608E-02  0.9190228E-01
         -2   -1    0    0    0  501 -0.00000000000E+00  0.00000000000E+00  0.90745995176E+02  0.90745995212E+02  0.25500000000E-02 0. -1.
          2   -1    0    0  501    0  0.00000000000E+00 -0.00000000000E+00 -0.34280008849E+04  0.34280008849E+04  0.25500000000E-02 0.  1.
    5000001    1    1    2    0    0 -0.50015914151E+03 -0.14307719637E+03 -0.20313495872E+04  0.21033868870E+04  0.16500000000E+03 0.  0.
   -5000001    1    1    2    0    0  0.50015914151E+03  0.14307719637E+03 -0.13059053024E+04  0.14153599930E+04  0.16500000000E+03 0.  0.
<mgrwt>
<rscale>  0 0.11154862E+04</rscale>
<asrwt>0</asrwt>
<pdfrwt beam="1">  1        2 0.48971433E+00 0.11154862E+04</pdfrwt>
<pdfrwt beam="2">  1       -2 0.12963716E-01 0.11154862E+04</pdfrwt>
<totfact> 0.60627820E+01</totfact>
</mgrwt>
</event>
<event>
 4    1  0.5387486E-005  0.4743272E+03  0.7818608E-02  0.1020706E+00
         -2   -1    0    0    0  501 -0.00000000000E+00  0.00000000000E+00  0.22482682239E+03  0.22482682240E+03  0.25500000000E-02 0. -1.
          2   -1    0    0  501    0  0.00000000000E+00 -0.00000000000E+00 -0.25017735575E+03  0.25017735576E+03  0.25500000000E-02 0.  1.
    5000001    1    1    2    0    0  0.12218446444E+03 -0.95906114435E+02 -0.82736201380E+02  0.24124117632E+03  0.16500000000E+03 0.  0.
   -5000001    1    1    2    0    0 -0.12218446444E+03  0.95906114435E+02  0.57385668015E+02  0.23376300184E+03  0.16500000000E+03 0.  0.
<mgrwt>
<rscale>  0 0.47432723E+03</rscale>
<asrwt>0</asrwt>
<pdfrwt beam="1">  1        2 0.35739622E-01 0.47432723E+03</pdfrwt>
<pdfrwt beam="2">  1       -2 0.32118118E-01 0.47432723E+03</pdfrwt>
<totfact> 0.13143902E+03</totfact>
</mgrwt>
</event>
<event>
 4    1  0.5387486E-005  0.5858465E+03  0.7818608E-02  0.9935213E-01
          2   -1    0    0  501    0  0.00000000000E+00  0.00000000000E+00  0.10400413827E+04  0.10400413827E+04  0.25500000000E-02 0.  1.
         -2   -1    0    0    0  501 -0.00000000000E+00 -0.00000000000E+00 -0.82500594030E+02  0.82500594070E+02  0.25500000000E-02 0. -1.
    5000001    1    1    2    0    0 -0.24476440271E+02 -0.24052592193E+03  0.50038218489E+03  0.57970608605E+03  0.16500000000E+03 0.  0.
   -5000001    1    1    2    0    0  0.24476440271E+02  0.24052592193E+03  0.45715860378E+03  0.54283589073E+03  0.16500000000E+03 0.  0.
<mgrwt>
<rscale>  0 0.58584651E+03</rscale>
<asrwt>0</asrwt>
<pdfrwt beam="1">  1        2 0.14857734E+00 0.58584651E+03</pdfrwt>
<pdfrwt beam="2">  1       -2 0.11785799E-01 0.58584651E+03</pdfrwt>
<totfact> 0.13987002E+03</totfact>
</mgrwt>
</event>
<event>
 4    1  0.5387486E-005  0.6590159E+03  0.7818608E-02  0.9790007E-01
          2   -1    0    0  501    0  0.00000000000E+00  0.00000000000E+00  0.11299170241E+03  0.11299170244E+03  0.25500000000E-02 0.  1.
         -2   -1    0    0    0  501 -0.00000000000E+00 -0.00000000000E+00 -0.96091546905E+03  0.96091546905E+03  0.25500000000E-02 0. -1.
    5000001    1    1    2    0    0 -0.25830330439E+03 -0.72075733323E+02 -0.58224735551E+03  0.66193088113E+03  0.16500000000E+03 0.  0.
   -5000001    1    1    2    0    0  0.25830330439E+03  0.72075733323E+02 -0.26567641113E+03  0.41197629036E+03  0.16500000000E+03 0.  0.
<mgrwt>
<rscale>  0 0.65901586E+03</rscale>
<asrwt>0</asrwt>
<pdfrwt beam="1">  1        2 0.16141672E-01 0.65901586E+03</pdfrwt>
<pdfrwt beam="2">  1       -2 0.13727363E+00 0.65901586E+03</pdfrwt>
<totfact> 0.14052426E+02</totfact>
</mgrwt>
</event>
<event>
 4    1  0.5387486E-005  0.3730445E+03  0.7818608E-02  0.1053535E+00
          2   -1    0    0  501    0  0.00000000000E+00  0.00000000000E+00  0.42900596857E+03  0.42900596858E+03  0.25500000000E-02 0.  1.
         -2   -1    0    0    0  501 -0.00000000000E+00 -0.00000000000E+00 -0.81095721713E+02  0.81095721753E+02  0.25500000000E-02 0. -1.
    5000001    1    1    2    0    0  0.37159123033E+02 -0.65871665063E+02  0.11520978820E+03  0.21498412029E+03  0.16500000000E+03 0.  0.
   -5000001    1    1    2    0    0 -0.37159123033E+02  0.65871665063E+02  0.23270045866E+03  0.29511757004E+03  0.16500000000E+03 0.  0.
<mgrwt>
<rscale>  0 0.37304449E+03</rscale>
<asrwt>0</asrwt>
<pdfrwt beam="1">  1        2 0.61286567E-01 0.37304449E+03</pdfrwt>
<pdfrwt beam="2">  1       -2 0.11585103E-01 0.37304449E+03</pdfrwt>
<totfact> 0.42215557E+03</totfact>
</mgrwt>
</event>
<event>
 4    1  0.5387486E-005  0.7778335E+03  0.7818608E-02  0.9592668E-01
         -2   -1    0    0    0  501 -0.00000000000E+00  0.00000000000E+00  0.54111342684E+02  0.54111342744E+02  0.25500000000E-02 0. -1.
          2   -1    0    0  501    0  0.00000000000E+00 -0.00000000000E+00 -0.27952776314E+04  0.27952776314E+04  0.25500000000E-02 0.  1.
    5000001    1    1    2    0    0 -0.80306663326E+02  0.34175173815E+03 -0.14734030710E+04  0.15236092086E+04  0.16500000000E+03 0.  0.
   -5000001    1    1    2    0    0  0.80306663326E+02 -0.34175173815E+03 -0.12677632176E+04  0.13257797655E+04  0.16500000000E+03 0.  0.
<mgrwt>
<rscale>  0 0.77783347E+03</rscale>
<asrwt>0</asrwt>
<pdfrwt beam="1">  1        2 0.39932529E+00 0.77783347E+03</pdfrwt>
<pdfrwt beam="2">  1       -2 0.77301936E-02 0.77783347E+03</pdfrwt>
<totfact> 0.33045727E+02</totfact>
</mgrwt>
</event>
<event>
 4    1  0.5387486E-005  0.7534134E+03  0.7818608E-02  0.9630010E-01
         -2   -1    0    0    0  501 -0.00000000000E+00  0.00000000000E+00  0.50447914638E+03  0.50447914638E+03  0.25500000000E-02 0. -1.
          2   -1    0    0  501    0  0.00000000000E+00 -0.00000000000E+00 -0.28129594948E+03  0.28129594949E+03  0.25500000000E-02 0.  1.
    5000001    1    1    2    0    0 -0.89102047407E+02  0.32543950794E+03  0.81492094398E+02  0.38433840509E+03  0.16500000000E+03 0.  0.
   -5000001    1    1    2    0    0  0.89102047407E+02 -0.32543950794E+03  0.14169110250E+03  0.40143669078E+03  0.16500000000E+03 0.  0.
<mgrwt>
<rscale>  0 0.75341341E+03</rscale>
<asrwt>0</asrwt>
<pdfrwt beam="1">  1        2 0.40185136E-01 0.75341341E+03</pdfrwt>
<pdfrwt beam="2">  1       -2 0.72068449E-01 0.75341341E+03</pdfrwt>
<totfact> 0.22534087E+02</totfact>
</mgrwt>
</event>
<event>
 4    1  0.5387486E-005  0.4539259E+03  0.7818608E-02  0.1026558E+00
         -2   -1    0    0    0  501 -0.00000000000E+00  0.00000000000E+00  0.65943010256E+02  0.65943010305E+02  0.25500000000E-02 0. -1.
          2   -1    0    0  501    0  0.00000000000E+00 -0.00000000000E+00 -0.78116193420E+03  0.78116193421E+03  0.25500000000E-02 0.  1.
    5000001    1    1    2    0    0  0.98479015668E+02 -0.11829183192E+03 -0.31204668368E+03  0.38508337645E+03  0.16500000000E+03 0.  0.
   -5000001    1    1    2    0    0 -0.98479015668E+02  0.11829183192E+03 -0.40317224027E+03  0.46202156806E+03  0.16500000000E+03 0.  0.
<mgrwt>
<rscale>  0 0.45392585E+03</rscale>
<asrwt>0</asrwt>
<pdfrwt beam="1">  1        2 0.11159456E+00 0.45392585E+03</pdfrwt>
<pdfrwt beam="2">  1       -2 0.94204305E-02 0.45392585E+03</pdfrwt>
<totfact> 0.29487863E+03</totfact>
</mgrwt>
</event>
<event>
 4    1  0.5387486E-005  0.4580904E+03  0.7818608E-02  0.1025337E+00
         -2   -1    0    0    0  501 -0.00000000000E+00  0.00000000000E+00  0.31088932562E+03  0.31088932563E+03  0.25500000000E-02 0. -1.
          2   -1    0    0  501    0  0.00000000000E+00 -0.00000000000E+00 -0.16874720730E+03  0.16874720732E+03  0.25500000000E-02 0.  1.
    5000001    1    1    2    0    0  0.10979409434E+03 -0.52325790570E+02 -0.35931446428E+02  0.20810766529E+03  0.16500000000E+03 0.  0.
   -5000001    1    1    2    0    0 -0.10979409434E+03  0.52325790570E+02  0.17807356475E+03  0.27152886766E+03  0.16500000000E+03 0.  0.
<mgrwt>
<rscale>  0 0.45809041E+03</rscale>
<asrwt>0</asrwt>
<pdfrwt beam="1">  1        2 0.24106744E-01 0.45809041E+03</pdfrwt>
<pdfrwt beam="2">  1       -2 0.44412761E-01 0.45809041E+03</pdfrwt>
<totfact> 0.10987512E+03</totfact>
</mgrwt>
</event>
<event>
 4    1  0.5387486E-005  0.9775956E+03  0.7818608E-02  0.9333465E-01
         -2   -1    0    0    0  501 -0.00000000000E+00  0.00000000000E+00  0.51314719244E+02  0.51314719307E+02  0.25500000000E-02 0. -1.
          2   -1    0    0  501    0  0.00000000000E+00 -0.00000000000E+00 -0.46560382895E+04  0.46560382895E+04  0.25500000000E-02 0.  1.
    5000001    1    1    2    0    0 -0.13679756176E+03  0.43476619766E+03 -0.19992283474E+04  0.20571519644E+04  0.16500000000E+03 0.  0.
   -5000001    1    1    2    0    0  0.13679756176E+03 -0.43476619766E+03 -0.26054952229E+04  0.26502010445E+04  0.16500000000E+03 0.  0.
<mgrwt>
<rscale>  0 0.97759562E+03</rscale>
<asrwt>0</asrwt>
<pdfrwt beam="1">  1        2 0.66514806E+00 0.97759562E+03</pdfrwt>
<pdfrwt beam="2">  1       -2 0.73306771E-02 0.97759562E+03</pdfrwt>
<totfact> 0.22051870E+01</totfact>
</mgrwt>
</event>
<event>
 4    1  0.5387486E-005  0.4877575E+03  0.7818608E-02  0.1017025E+00
         -2   -1    0    0    0  501 -0.00000000000E+00  0.00000000000E+00  0.26674978391E+02  0.26674978513E+02  0.25500000000E-02 0. -1.
          2   -1    0    0  501    0  0.00000000000E+00 -0.00000000000E+00 -0.22296868388E+04  0.22296868388E+04  0.25500000000E-02 0.  1.
    5000001    1    1    2    0    0 -0.23499409846E+02 -0.14761485328E+03 -0.15620065634E+04  0.15777933551E+04  0.16500000000E+03 0.  0.
   -5000001    1    1    2    0    0  0.23499409846E+02  0.14761485328E+03 -0.64100529702E+03  0.67856846226E+03  0.16500000000E+03 0.  0.
<mgrwt>
<rscale>  0 0.48775752E+03</rscale>
<asrwt>0</asrwt>
<pdfrwt beam="1">  1        2 0.31852657E+00 0.48775752E+03</pdfrwt>
<pdfrwt beam="2">  1       -2 0.38107126E-02 0.48775752E+03</pdfrwt>
<totfact> 0.19908472E+03</totfact>
</mgrwt>
</event>
<event>
 4    1  0.5387486E-005  0.6729091E+03  0.7818608E-02  0.9764717E-01
         -2   -1    0    0    0  501 -0.00000000000E+00  0.00000000000E+00  0.71260318921E+02  0.71260318966E+02  0.25500000000E-02 0. -1.
          2   -1    0    0  501    0  0.00000000000E+00 -0.00000000000E+00 -0.15885653632E+04  0.15885653632E+04  0.25500000000E-02 0.  1.
    5000001    1    1    2    0    0 -0.16792715153E+03  0.23761872088E+03 -0.66922222887E+03  0.74816146409E+03  0.16500000000E+03 0.  0.
   -5000001    1    1    2    0    0  0.16792715153E+03 -0.23761872088E+03 -0.84808281545E+03  0.91166421812E+03  0.16500000000E+03 0.  0.
<mgrwt>
<rscale>  0 0.67290913E+03</rscale>
<asrwt>0</asrwt>
<pdfrwt beam="1">  1        2 0.22693789E+00 0.67290913E+03</pdfrwt>
<pdfrwt beam="2">  1       -2 0.10180047E-01 0.67290913E+03</pdfrwt>
<totfact> 0.88752489E+02</totfact>
</mgrwt>
</event>
<event>
 4    1  0.5387486E-005  0.4062207E+03  0.7818608E-02  0.1041647E+00
          2   -1    0    0  501    0  0.00000000000E+00  0.00000000000E+00  0.80898160852E+02  0.80898160892E+02  0.25500000000E-02 0.  1.
         -2   -1    0    0    0  501 -0.00000000000E+00 -0.00000000000E+00 -0.50994740180E+03  0.50994740181E+03  0.25500000000E-02 0. -1.
    5000001    1    1    2    0    0 -0.53323051680E+02 -0.69238078358E+02 -0.33080728667E+03  0.37986276502E+03  0.16500000000E+03 0.  0.
   -5000001    1    1    2    0    0  0.53323051680E+02  0.69238078358E+02 -0.98241954277E+02  0.21098279768E+03  0.16500000000E+03 0.  0.
<mgrwt>
<rscale>  0 0.40622066E+03</rscale>
<asrwt>0</asrwt>
<pdfrwt beam="1">  1        2 0.11556880E-01 0.40622066E+03</pdfrwt>
<pdfrwt beam="2">  1       -2 0.72849627E-01 0.40622066E+03</pdfrwt>
<totfact> 0.94367933E+02</totfact>
</mgrwt>
</event>
<event>
 4    1  0.5387486E-005  0.4746865E+03  0.7818608E-02  0.1020606E+00
          2   -1    0    0  501    0  0.00000000000E+00  0.00000000000E+00  0.97474044212E+03  0.97474044212E+03  0.25500000000E-02 0.  1.
         -2   -1    0    0    0  501 -0.00000000000E+00 -0.00000000000E+00 -0.57791610137E+02  0.57791610193E+02  0.25500000000E-02 0. -1.
    5000001    1    1    2    0    0 -0.13904310129E+03  0.44617353252E+02  0.65037386446E+03  0.68668395627E+03  0.16500000000E+03 0.  0.
   -5000001    1    1    2    0    0  0.13904310129E+03 -0.44617353252E+02  0.26657496752E+03  0.34584809604E+03  0.16500000000E+03 0.  0.
<mgrwt>
<rscale>  0 0.47468651E+03</rscale>
<asrwt>0</asrwt>
<pdfrwt beam="1">  1        2 0.13924863E+00 0.47468651E+03</pdfrwt>
<pdfrwt beam="2">  1       -2 0.82559444E-02 0.47468651E+03</pdfrwt>
<totfact> 0.27241136E+03</totfact>
</mgrwt>
</event>
<event>
 4    1  0.5387486E-005  0.9797179E+03  0.7818608E-02  0.9331074E-01
          2   -1    0    0  501    0  0.00000000000E+00  0.00000000000E+00  0.38694462355E+03  0.38694462356E+03  0.25500000000E-02 0.  1.
         -2   -1    0    0    0  501 -0.00000000000E+00 -0.00000000000E+00 -0.62014505775E+03  0.62014505776E+03  0.25500000000E-02 0. -1.
    5000001    1    1    2    0    0 -0.26691248229E+03 -0.12906733138E+03  0.24659262116E+03  0.41944435869E+03  0.16500000000E+03 0.  0.
   -5000001    1    1    2    0    0  0.26691248229E+03  0.12906733138E+03 -0.47979305536E+03  0.58764532262E+03  0.16500000000E+03 0.  0.
<mgrwt>
<rscale>  0 0.97971791E+03</rscale>
<asrwt>0</asrwt>
<pdfrwt beam="1">  1        2 0.55277804E-01 0.97971791E+03</pdfrwt>
<pdfrwt beam="2">  1       -2 0.88592151E-01 0.97971791E+03</pdfrwt>
<totfact> 0.98398430E+01</totfact>
</mgrwt>
</event>
<event>
 4    1  0.5387486E-005  0.5221060E+03  0.7818608E-02  0.1008165E+00
         -2   -1    0    0    0  501 -0.00000000000E+00  0.00000000000E+00  0.65049201504E+02  0.65049201554E+02  0.25500000000E-02 0. -1.
          2   -1    0    0  501    0  0.00000000000E+00 -0.00000000000E+00 -0.10476479549E+04  0.10476479549E+04  0.25500000000E-02 0.  1.
    5000001    1    1    2    0    0  0.17734111772E+03 -0.97330915226E+02 -0.48981693297E+03  0.55503946429E+03  0.16500000000E+03 0.  0.
   -5000001    1    1    2    0    0 -0.17734111772E+03  0.97330915226E+02 -0.49278182040E+03  0.55765769214E+03  0.16500000000E+03 0.  0.
<mgrwt>
<rscale>  0 0.52210598E+03</rscale>
<asrwt>0</asrwt>
<pdfrwt beam="1">  1        2 0.14966398E+00 0.52210598E+03</pdfrwt>
<pdfrwt beam="2">  1       -2 0.92927437E-02 0.52210598E+03</pdfrwt>
<totfact> 0.20381455E+03</totfact>
</mgrwt>
</event>
<event>
 4    1  0.5387486E-005  0.5381758E+03  0.7818608E-02  0.1004268E+00
          2   -1    0    0  501    0  0.00000000000E+00  0.00000000000E+00  0.86165473799E+03  0.86165473799E+03  0.25500000000E-02 0.  1.
         -2   -1    0    0    0  501 -0.00000000000E+00 -0.00000000000E+00 -0.84033990685E+02  0.84033990724E+02  0.25500000000E-02 0. -1.
    5000001    1    1    2    0    0  0.31344161218E+02  0.18287212347E+03  0.20654578845E+03  0.32297187604E+03  0.16500000000E+03 0.  0.
   -5000001    1    1    2    0    0 -0.31344161218E+02 -0.18287212347E+03  0.57107495885E+03  0.62271685268E+03  0.16500000000E+03 0.  0.
<mgrwt>
<rscale>  0 0.53817576E+03</rscale>
<asrwt>0</asrwt>
<pdfrwt beam="1">  1        2 0.12309353E+00 0.53817576E+03</pdfrwt>
<pdfrwt beam="2">  1       -2 0.12004856E-01 0.53817576E+03</pdfrwt>
<totfact> 0.17558346E+03</totfact>
</mgrwt>
</event>
<event>
 4    1  0.5387486E-005  0.5869052E+03  0.7818608E-02  0.9932952E-01
         -2   -1    0    0    0  501 -0.00000000000E+00  0.00000000000E+00  0.61092343951E+02  0.61092344004E+02  0.25500000000E-02 0. -1.
          2   -1    0    0  501    0  0.00000000000E+00 -0.00000000000E+00 -0.14095781263E+04  0.14095781263E+04  0.25500000000E-02 0.  1.
    5000001    1    1    2    0    0 -0.19894466256E+03  0.13612871093E+03 -0.60428525199E+03  0.67118974252E+03  0.16500000000E+03 0.  0.
   -5000001    1    1    2    0    0  0.19894466256E+03 -0.13612871093E+03 -0.74420053034E+03  0.79948072776E+03  0.16500000000E+03 0.  0.
<mgrwt>
<rscale>  0 0.58690521E+03</rscale>
<asrwt>0</asrwt>
<pdfrwt beam="1">  1        2 0.20136828E+00 0.58690521E+03</pdfrwt>
<pdfrwt beam="2">  1       -2 0.87274786E-02 0.58690521E+03</pdfrwt>
<totfact> 0.14162915E+03</totfact>
</mgrwt>
</event>
<event>
 4    1  0.5387486E-005  0.6371146E+03  0.7818608E-02  0.9831263E-01
         -2   -1    0    0    0  501 -0.00000000000E+00  0.00000000000E+00  0.47820002082E+03  0.47820002083E+03  0.25500000000E-02 0. -1.
          2   -1    0    0  501    0  0.00000000000E+00 -0.00000000000E+00 -0.21220982057E+03  0.21220982058E+03  0.25500000000E-02 0.  1.
    5000001    1    1    2    0    0 -0.96695251671E+02  0.24345279815E+03  0.51652642638E+02  0.31386658330E+03  0.16500000000E+03 0.  0.
   -5000001    1    1    2    0    0  0.96695251671E+02 -0.24345279815E+03  0.21433755762E+03  0.37654325811E+03  0.16500000000E+03 0.  0.
<mgrwt>
<rscale>  0 0.63711456E+03</rscale>
<asrwt>0</asrwt>
<pdfrwt beam="1">  1        2 0.30315689E-01 0.63711456E+03</pdfrwt>
<pdfrwt beam="2">  1       -2 0.68314288E-01 0.63711456E+03</pdfrwt>
<totfact> 0.34806795E+02</totfact>
</mgrwt>
</event>
<event>
 4    1  0.5387486E-005  0.5275803E+03  0.7818608E-02  0.1006821E+00
         -2   -1    0    0    0  501 -0.00000000000E+00  0.00000000000E+00  0.74312435304E+02  0.74312435348E+02  0.25500000000E-02 0. -1.
          2   -1    0    0  501    0  0.00000000000E+00 -0.00000000000E+00 -0.93638768529E+03  0.93638768530E+03  0.25500000000E-02 0.  1.
    5000001    1    1    2    0    0  0.13100714239E+03  0.12312264983E+03 -0.23909940780E+03  0.34163662724E+03  0.16500000000E+03 0.  0.
   -5000001    1    1    2    0    0 -0.13100714239E+03 -0.12312264983E+03 -0.62297584219E+03  0.66906349341E+03  0.16500000000E+03 0.  0.
<mgrwt>
<rscale>  0 0.52758032E+03</rscale>
<asrwt>0</asrwt>
<pdfrwt beam="1">  1        2 0.13376966E+00 0.52758032E+03</pdfrwt>
<pdfrwt beam="2">  1       -2 0.10616063E-01 0.52758032E+03</pdfrwt>
<totfact> 0.19214209E+03</totfact>
</mgrwt>
</event>
<event>
 4    1  0.5387486E-005  0.4372984E+03  0.7818608E-02  0.1031579E+00
         -2   -1    0    0    0  501 -0.00000000000E+00  0.00000000000E+00  0.28853215500E+03  0.28853215501E+03  0.25500000000E-02 0. -1.
          2   -1    0    0  501    0  0.00000000000E+00 -0.00000000000E+00 -0.16569198287E+03  0.16569198289E+03  0.25500000000E-02 0.  1.
    5000001    1    1    2    0    0 -0.31028005134E+02 -0.14003782637E+03  0.58280690755E+02  0.22626305229E+03  0.16500000000E+03 0.  0.
   -5000001    1    1    2    0    0  0.31028005134E+02  0.14003782637E+03  0.64559481372E+02  0.22796108561E+03  0.16500000000E+03 0.  0.
<mgrwt>
<rscale>  0 0.43729836E+03</rscale>
<asrwt>0</asrwt>
<pdfrwt beam="1">  1        2 0.23670283E-01 0.43729836E+03</pdfrwt>
<pdfrwt beam="2">  1       -2 0.41218879E-01 0.43729836E+03</pdfrwt>
<totfact> 0.12976967E+03</totfact>
</mgrwt>
</event>
<event>
 4    1  0.5387486E-005  0.4595190E+03  0.7818608E-02  0.1024921E+00
          2   -1    0    0  501    0  0.00000000000E+00  0.00000000000E+00  0.18055169294E+04  0.18055169294E+04  0.25500000000E-02 0.  1.
         -2   -1    0    0    0  501 -0.00000000000E+00 -0.00000000000E+00 -0.29237844074E+02  0.29237844185E+02  0.25500000000E-02 0. -1.
    5000001    1    1    2    0    0 -0.13449331812E+03  0.85223583193E+02  0.82987914717E+03  0.86097381531E+03  0.16500000000E+03 0.  0.
   -5000001    1    1    2    0    0  0.13449331812E+03 -0.85223583193E+02  0.94639993818E+03  0.97378095829E+03  0.16500000000E+03 0.  0.
<mgrwt>
<rscale>  0 0.45951898E+03</rscale>
<asrwt>0</asrwt>
<pdfrwt beam="1">  1        2 0.25793105E+00 0.45951898E+03</pdfrwt>
<pdfrwt beam="2">  1       -2 0.41768340E-02 0.45951898E+03</pdfrwt>
<totfact> 0.28196691E+03</totfact>
</mgrwt>
</event>
<event>
 4    1  0.5387486E-005  0.4887545E+03  0.7818608E-02  0.1016757E+00
         -2   -1    0    0    0  501 -0.00000000000E+00  0.00000000000E+00  0.13171187182E+04  0.13171187182E+04  0.25500000000E-02 0. -1.
          2   -1    0    0  501    0  0.00000000000E+00 -0.00000000000E+00 -0.45341576899E+02  0.45341576971E+02  0.25500000000E-02 0.  1.
    5000001    1    1    2    0    0  0.81388514373E+02  0.15129749663E+03  0.48370876409E+03  0.53917918285E+03  0.16500000000E+03 0.  0.
   -5000001    1    1    2    0    0 -0.81388514373E+02 -0.15129749663E+03  0.78806837724E+03  0.82328111236E+03  0.16500000000E+03 0.  0.
<mgrwt>
<rscale>  0 0.48875450E+03</rscale>
<asrwt>0</asrwt>
<pdfrwt beam="1">  1        2 0.64773680E-02 0.48875450E+03</pdfrwt>
<pdfrwt beam="2">  1       -2 0.18815982E+00 0.48875450E+03</pdfrwt>
<totfact> 0.19120654E+02</totfact>
</mgrwt>
</event>
<event>
 4    1  0.5387486E-005  0.4307511E+03  0.7818608E-02  0.1033623E+00
          2   -1    0    0  501    0  0.00000000000E+00  0.00000000000E+00  0.47486757704E+03  0.47486757705E+03  0.25500000000E-02 0.  1.
         -2   -1    0    0    0  501 -0.00000000000E+00 -0.00000000000E+00 -0.97683284510E+02  0.97683284544E+02  0.25500000000E-02 0. -1.
    5000001    1    1    2    0    0  0.85808513008E+02  0.73708108827E+02  0.82542634243E+02  0.21641227479E+03  0.16500000000E+03 0.  0.
   -5000001    1    1    2    0    0 -0.85808513008E+02 -0.73708108827E+02  0.29464165829E+03  0.35613858680E+03  0.16500000000E+03 0.  0.
<mgrwt>
<rscale>  0 0.43075109E+03</rscale>
<asrwt>0</asrwt>
<pdfrwt beam="1">  1        2 0.67838227E-01 0.43075109E+03</pdfrwt>
<pdfrwt beam="2">  1       -2 0.13954755E-01 0.43075109E+03</pdfrwt>
<totfact> 0.27872567E+03</totfact>
</mgrwt>
</event>
<event>
 4    1  0.5387486E-005  0.8752635E+03  0.7818608E-02  0.9457043E-01
         -2   -1    0    0    0  501 -0.00000000000E+00  0.00000000000E+00  0.37445543422E+03  0.37445543423E+03  0.25500000000E-02 0. -1.
          2   -1    0    0  501    0  0.00000000000E+00 -0.00000000000E+00 -0.51146684065E+03  0.51146684066E+03  0.25500000000E-02 0.  1.
    5000001    1    1    2    0    0  0.34784468696E+03  0.15906158880E+03  0.67292286542E+02  0.42195943775E+03  0.16500000000E+03 0.  0.
   -5000001    1    1    2    0    0 -0.34784468696E+03 -0.15906158880E+03 -0.20430369298E+03  0.46396283714E+03  0.16500000000E+03 0.  0.
<mgrwt>
<rscale>  0 0.87526348E+03</rscale>
<asrwt>0</asrwt>
<pdfrwt beam="1">  1        2 0.73066692E-01 0.87526348E+03</pdfrwt>
<pdfrwt beam="2">  1       -2 0.53493633E-01 0.87526348E+03</pdfrwt>
<totfact> 0.21631845E+02</totfact>
</mgrwt>
</event>
<event>
 4    1  0.5387486E-005  0.4933411E+03  0.7818608E-02  0.1015532E+00
          2   -1    0    0  501    0  0.00000000000E+00  0.00000000000E+00  0.17717885347E+03  0.17717885349E+03  0.25500000000E-02 0.  1.
         -2   -1    0    0    0  501 -0.00000000000E+00 -0.00000000000E+00 -0.34341778343E+03  0.34341778344E+03  0.25500000000E-02 0. -1.
    5000001    1    1    2    0    0 -0.92289193932E+01 -0.16515088891E+03  0.38103233066E+00  0.23363461697E+03  0.16500000000E+03 0.  0.
   -5000001    1    1    2    0    0  0.92289193932E+01  0.16515088891E+03 -0.16661996229E+03  0.28696201995E+03  0.16500000000E+03 0.  0.
<mgrwt>
<rscale>  0 0.49334114E+03</rscale>
<asrwt>0</asrwt>
<pdfrwt beam="1">  1        2 0.25311265E-01 0.49334114E+03</pdfrwt>
<pdfrwt beam="2">  1       -2 0.49059683E-01 0.49334114E+03</pdfrwt>
<totfact> 0.85289738E+02</totfact>
</mgrwt>
</event>
<event>
 4    1  0.5387486E-005  0.4279194E+03  0.7818608E-02  0.1034519E+00
         -2   -1    0    0    0  501 -0.00000000000E+00  0.00000000000E+00  0.40415846761E+02  0.40415846842E+02  0.25500000000E-02 0. -1.
          2   -1    0    0  501    0  0.00000000000E+00 -0.00000000000E+00 -0.11326931058E+04  0.11326931058E+04  0.25500000000E-02 0.  1.
    5000001    1    1    2    0    0  0.11539671544E+03 -0.15087611259E+02 -0.35210240718E+03  0.40588809183E+03  0.16500000000E+03 0.  0.
   -5000001    1    1    2    0    0 -0.11539671544E+03  0.15087611259E+02 -0.74017485189E+03  0.76722086085E+03  0.16500000000E+03 0.  0.
<mgrwt>
<rscale>  0 0.42791939E+03</rscale>
<asrwt>0</asrwt>
<pdfrwt beam="1">  1        2 0.16181328E+00 0.42791939E+03</pdfrwt>
<pdfrwt beam="2">  1       -2 0.57736931E-02 0.42791939E+03</pdfrwt>
<totfact> 0.38527036E+03</totfact>
</mgrwt>
</event>
<event>
 4    1  0.5387486E-005  0.4061082E+03  0.7818608E-02  0.1041685E+00
         -2   -1    0    0    0  501 -0.00000000000E+00  0.00000000000E+00  0.24285717155E+02  0.24285717289E+02  0.25500000000E-02 0. -1.
          2   -1    0    0  501    0  0.00000000000E+00 -0.00000000000E+00 -0.16977458847E+04  0.16977458847E+04  0.25500000000E-02 0.  1.
    5000001    1    1    2    0    0 -0.12473212719E+02  0.11344626913E+03 -0.70396387528E+03  0.73199438162E+03  0.16500000000E+03 0.  0.
   -5000001    1    1    2    0    0  0.12473212719E+02 -0.11344626913E+03 -0.96949629231E+03  0.99003722042E+03  0.16500000000E+03 0.  0.
<mgrwt>
<rscale>  0 0.40610824E+03</rscale>
<asrwt>0</asrwt>
<pdfrwt beam="1">  1        2 0.24253505E+00 0.40610824E+03</pdfrwt>
<pdfrwt beam="2">  1       -2 0.34693892E-02 0.40610824E+03</pdfrwt>
<totfact> 0.42367957E+03</totfact>
</mgrwt>
</event>
<event>
 4    1  0.5387486E-005  0.4305459E+03  0.7818608E-02  0.1033688E+00
          2   -1    0    0  501    0  0.00000000000E+00  0.00000000000E+00  0.50884805321E+03  0.50884805321E+03  0.25500000000E-02 0.  1.
         -2   -1    0    0    0  501 -0.00000000000E+00 -0.00000000000E+00 -0.91073231434E+02  0.91073231469E+02  0.25500000000E-02 0. -1.
    5000001    1    1    2    0    0  0.40706732500E+02 -0.17592185540E+02  0.39136875487E+03  0.42703749877E+03  0.16500000000E+03 0.  0.
   -5000001    1    1    2    0    0 -0.40706732500E+02  0.17592185540E+02  0.26406066899E+02  0.17288378591E+03  0.16500000000E+03 0.  0.
<mgrwt>
<rscale>  0 0.43054587E+03</rscale>
<asrwt>0</asrwt>
<pdfrwt beam="1">  1        2 0.72692581E-01 0.43054587E+03</pdfrwt>
<pdfrwt beam="2">  1       -2 0.13010461E-01 0.43054587E+03</pdfrwt>
<totfact> 0.28957459E+03</totfact>
</mgrwt>
</event>
<event>
 4    1  0.5387486E-005  0.5726041E+03  0.7818608E-02  0.9963933E-01
          2   -1    0    0  501    0  0.00000000000E+00  0.00000000000E+00  0.93934227860E+03  0.93934227861E+03  0.25500000000E-02 0.  1.
         -2   -1    0    0    0  501 -0.00000000000E+00 -0.00000000000E+00 -0.87261981907E+02  0.87261981944E+02  0.25500000000E-02 0. -1.
    5000001    1    1    2    0    0  0.22177018386E+03  0.33888293955E+02  0.54514710050E+03  0.61216075675E+03  0.16500000000E+03 0.  0.
   -5000001    1    1    2    0    0 -0.22177018386E+03 -0.33888293955E+02  0.30693319619E+03  0.41444350380E+03  0.16500000000E+03 0.  0.
<mgrwt>
<rscale>  0 0.57260412E+03</rscale>
<asrwt>0</asrwt>
<pdfrwt beam="1">  1        2 0.13419176E+00 0.57260412E+03</pdfrwt>
<pdfrwt beam="2">  1       -2 0.12465997E-01 0.57260412E+03</pdfrwt>
<totfact> 0.14701351E+03</totfact>
</mgrwt>
</event>
<event>
 4    1  0.5387486E-005  0.4312390E+03  0.7818608E-02  0.1033469E+00
         -2   -1    0    0    0  501 -0.00000000000E+00  0.00000000000E+00  0.45950389966E+03  0.45950389966E+03  0.25500000000E-02 0. -1.
          2   -1    0    0  501    0  0.00000000000E+00 -0.00000000000E+00 -0.10117819733E+03  0.10117819736E+03  0.25500000000E-02 0.  1.
    5000001    1    1    2    0    0  0.12719913290E+03 -0.12895771979E+02  0.10889548268E+03  0.23543395357E+03  0.16500000000E+03 0.  0.
   -5000001    1    1    2    0    0 -0.12719913290E+03  0.12895771979E+02  0.24943021966E+03  0.32524814346E+03  0.16500000000E+03 0.  0.
<mgrwt>
<rscale>  0 0.43123903E+03</rscale>
<asrwt>0</asrwt>
<pdfrwt beam="1">  1        2 0.14454028E-01 0.43123903E+03</pdfrwt>
<pdfrwt beam="2">  1       -2 0.65643416E-01 0.43123903E+03</pdfrwt>
<totfact> 0.89887449E+02</totfact>
</mgrwt>
</event>
<event>
 4    1  0.5387486E-005  0.4883913E+03  0.7818608E-02  0.1016854E+00
          2   -1    0    0  501    0  0.00000000000E+00  0.00000000000E+00  0.77400699155E+02  0.77400699197E+02  0.25500000000E-02 0.  1.
         -2   -1    0    0    0  501 -0.00000000000E+00 -0.00000000000E+00 -0.77042590388E+03  0.77042590388E+03  0.25500000000E-02 0. -1.
    5000001    1    1    2    0    0 -0.80744929366E+02 -0.96474149430E+02 -0.12298824303E+03  0.24120139521E+03  0.16500000000E+03 0.  0.
   -5000001    1    1    2    0    0  0.80744929366E+02  0.96474149430E+02 -0.57003696170E+03  0.60662520788E+03  0.16500000000E+03 0.  0.
<mgrwt>
<rscale>  0 0.48839125E+03</rscale>
<asrwt>0</asrwt>
<pdfrwt beam="1">  1        2 0.11057243E-01 0.48839125E+03</pdfrwt>
<pdfrwt beam="2">  1       -2 0.11006084E+00 0.48839125E+03</pdfrwt>
<totfact> 0.38822068E+02</totfact>
</mgrwt>
</event>
<event>
 4    1  0.5387486E-005  0.4727436E+03  0.7818608E-02  0.1021149E+00
          2   -1    0    0  501    0  0.00000000000E+00  0.00000000000E+00  0.32565595351E+04  0.32565595351E+04  0.25500000000E-02 0.  1.
         -2   -1    0    0    0  501 -0.00000000000E+00 -0.00000000000E+00 -0.17156640428E+02  0.17156640618E+02  0.25500000000E-02 0. -1.
    5000001    1    1    2    0    0 -0.16792062066E+03 -0.12685284237E+02  0.17372968753E+04  0.17532209456E+04  0.16500000000E+03 0.  0.
   -5000001    1    1    2    0    0  0.16792062066E+03  0.12685284237E+02  0.15021060194E+04  0.15204952301E+04  0.16500000000E+03 0.  0.
<mgrwt>
<rscale>  0 0.47274357E+03</rscale>
<asrwt>0</asrwt>
<pdfrwt beam="1">  1        2 0.46522278E+00 0.47274357E+03</pdfrwt>
<pdfrwt beam="2">  1       -2 0.24509487E-02 0.47274357E+03</pdfrwt>
<totfact> 0.11225009E+03</totfact>
</mgrwt>
</event>
<event>
 4    1  0.5387486E-005  0.1146238E+04  0.7818608E-02  0.9161261E-01
         -2   -1    0    0    0  501 -0.00000000000E+00  0.00000000000E+00  0.12116690482E+03  0.12116690485E+03  0.25500000000E-02 0. -1.
          2   -1    0    0  501    0  0.00000000000E+00 -0.00000000000E+00 -0.27108528611E+04  0.27108528611E+04  0.25500000000E-02 0.  1.
    5000001    1    1    2    0    0 -0.39086426954E+03 -0.35133494244E+03 -0.90395918298E+03  0.10585737213E+04  0.16500000000E+03 0.  0.
   -5000001    1    1    2    0    0  0.39086426954E+03  0.35133494244E+03 -0.16857267733E+04  0.17734460446E+04  0.16500000000E+03 0.  0.
<mgrwt>
<rscale>  0 0.11462385E+04</rscale>
<asrwt>0</asrwt>
<pdfrwt beam="1">  1        2 0.38726466E+00 0.11462385E+04</pdfrwt>
<pdfrwt beam="2">  1       -2 0.17309560E-01 0.11462385E+04</pdfrwt>
<totfact> 0.93389477E+01</totfact>
</mgrwt>
</event>
<event>
 4    1  0.5387486E-005  0.1117935E+04  0.7818608E-02  0.9187885E-01
         -2   -1    0    0    0  501 -0.00000000000E+00  0.00000000000E+00  0.39202099063E+03  0.39202099064E+03  0.25500000000E-02 0. -1.
          2   -1    0    0  501    0  0.00000000000E+00 -0.00000000000E+00 -0.79701042620E+03  0.79701042621E+03  0.25500000000E-02 0.  1.
    5000001    1    1    2    0    0 -0.27922144405E+03 -0.20951992217E+03 -0.63237252050E+03  0.74093401682E+03  0.16500000000E+03 0.  0.
   -5000001    1    1    2    0    0  0.27922144405E+03  0.20951992217E+03  0.22738308493E+03  0.44809740003E+03  0.16500000000E+03 0.  0.
<mgrwt>
<rscale>  0 0.11179353E+04</rscale>
<asrwt>0</asrwt>
<pdfrwt beam="1">  1        2 0.11385863E+00 0.11179353E+04</pdfrwt>
<pdfrwt beam="2">  1       -2 0.56002999E-01 0.11179353E+04</pdfrwt>
<totfact> 0.11346213E+02</totfact>
</mgrwt>
</event>
<event>
 4    1  0.5387486E-005  0.4182593E+03  0.7818608E-02  0.1037634E+00
          2   -1    0    0  501    0  0.00000000000E+00  0.00000000000E+00  0.10548526381E+04  0.10548526381E+04  0.25500000000E-02 0.  1.
         -2   -1    0    0    0  501 -0.00000000000E+00 -0.00000000000E+00 -0.41460971046E+02  0.41460971124E+02  0.25500000000E-02 0. -1.
    5000001    1    1    2    0    0 -0.12731469672E+03  0.13377380008E+02  0.53567429330E+03  0.57494341878E+03  0.16500000000E+03 0.  0.
   -5000001    1    1    2    0    0  0.12731469672E+03 -0.13377380008E+02  0.47771737372E+03  0.52137019041E+03  0.16500000000E+03 0.  0.
<mgrwt>
<rscale>  0 0.41825932E+03</rscale>
<asrwt>0</asrwt>
<pdfrwt beam="1">  1        2 0.15069324E+00 0.41825932E+03</pdfrwt>
<pdfrwt beam="2">  1       -2 0.59229958E-02 0.41825932E+03</pdfrwt>
<totfact> 0.41049155E+03</totfact>
</mgrwt>
</event>
<event>
 4    1  0.5387486E-005  0.5312607E+03  0.7818608E-02  0.1005927E+00
          2   -1    0    0  501    0  0.00000000000E+00  0.00000000000E+00  0.13491806639E+04  0.13491806639E+04  0.25500000000E-02 0.  1.
         -2   -1    0    0    0  501 -0.00000000000E+00 -0.00000000000E+00 -0.52298020755E+02  0.52298020817E+02  0.25500000000E-02 0. -1.
    5000001    1    1    2    0    0  0.11055436417E+03  0.12948923326E+03  0.33248626971E+03  0.40836484730E+03  0.16500000000E+03 0.  0.
   -5000001    1    1    2    0    0 -0.11055436417E+03 -0.12948923326E+03  0.96439637342E+03  0.99311383740E+03  0.16500000000E+03 0.  0.
<mgrwt>
<rscale>  0 0.53126068E+03</rscale>
<asrwt>0</asrwt>
<pdfrwt beam="1">  1        2 0.19274008E+00 0.53126068E+03</pdfrwt>
<pdfrwt beam="2">  1       -2 0.74711463E-02 0.53126068E+03</pdfrwt>
<totfact> 0.19561854E+03</totfact>
</mgrwt>
</event>
<event>
 4    1  0.5387486E-005  0.3944862E+03  0.7818608E-02  0.1045706E+00
         -2   -1    0    0    0  501 -0.00000000000E+00  0.00000000000E+00  0.25259416047E+03  0.25259416048E+03  0.25500000000E-02 0. -1.
          2   -1    0    0  501    0  0.00000000000E+00 -0.00000000000E+00 -0.15402117802E+03  0.15402117804E+03  0.25500000000E-02 0.  1.
    5000001    1    1    2    0    0 -0.36681606017E+02 -0.80847969733E+02 -0.14235565366E+02  0.18790845045E+03  0.16500000000E+03 0.  0.
   -5000001    1    1    2    0    0  0.36681606017E+02  0.80847969733E+02  0.11280854781E+03  0.21870688807E+03  0.16500000000E+03 0.  0.
<mgrwt>
<rscale>  0 0.39448625E+03</rscale>
<asrwt>0</asrwt>
<pdfrwt beam="1">  1        2 0.22003026E-01 0.39448625E+03</pdfrwt>
<pdfrwt beam="2">  1       -2 0.36084880E-01 0.39448625E+03</pdfrwt>
<totfact> 0.18177654E+03</totfact>
</mgrwt>
</event>
<event>
 4    1  0.5387486E-005  0.4481563E+03  0.7818608E-02  0.1028273E+00
          2   -1    0    0  501    0  0.00000000000E+00  0.00000000000E+00  0.63701546977E+03  0.63701546978E+03  0.25500000000E-02 0.  1.
         -2   -1    0    0    0  501 -0.00000000000E+00 -0.00000000000E+00 -0.78822294868E+02  0.78822294909E+02  0.25500000000E-02 0. -1.
    5000001    1    1    2    0    0  0.14775457644E+03  0.33814961763E+02  0.28443134011E+03  0.36207879493E+03  0.16500000000E+03 0.  0.
   -5000001    1    1    2    0    0 -0.14775457644E+03 -0.33814961763E+02  0.27376183479E+03  0.35375896976E+03  0.16500000000E+03 0.  0.
<mgrwt>
<rscale>  0 0.44815632E+03</rscale>
<asrwt>0</asrwt>
<pdfrwt beam="1">  1        2 0.91002219E-01 0.44815632E+03</pdfrwt>
<pdfrwt beam="2">  1       -2 0.11260327E-01 0.44815632E+03</pdfrwt>
<totfact> 0.28325107E+03</totfact>
</mgrwt>
</event>
<event>
 4    1  0.5387486E-005  0.5364096E+03  0.7818608E-02  0.1004689E+00
         -2   -1    0    0    0  501 -0.00000000000E+00  0.00000000000E+00  0.64441416930E+02  0.64441416980E+02  0.25500000000E-02 0. -1.
          2   -1    0    0  501    0  0.00000000000E+00 -0.00000000000E+00 -0.11162669997E+04  0.11162669997E+04  0.25500000000E-02 0.  1.
    5000001    1    1    2    0    0  0.49088975774E+02 -0.11655664611E+03 -0.15292873745E+03  0.25808405227E+03  0.16500000000E+03 0.  0.
   -5000001    1    1    2    0    0 -0.49088975774E+02  0.11655664611E+03 -0.89889684533E+03  0.92262436443E+03  0.16500000000E+03 0.  0.
<mgrwt>
<rscale>  0 0.53640965E+03</rscale>
<asrwt>0</asrwt>
<pdfrwt beam="1">  1        2 0.15946670E+00 0.53640965E+03</pdfrwt>
<pdfrwt beam="2">  1       -2 0.92059174E-02 0.53640965E+03</pdfrwt>
<totfact> 0.18865446E+03</totfact>
</mgrwt>
</event>
<event>
 4    1  0.5387486E-005  0.4862187E+03  0.7818608E-02  0.1017440E+00
          2   -1    0    0  501    0  0.00000000000E+00  0.00000000000E+00  0.32984020326E+04  0.32984020326E+04  0.25500000000E-02 0.  1.
         -2   -1    0    0    0  501 -0.00000000000E+00 -0.00000000000E+00 -0.17918417483E+02  0.17918417664E+02  0.25500000000E-02 0. -1.
    5000001    1    1    2    0    0 -0.42373079959E+02 -0.14581697883E+03  0.99971633140E+03  0.10245563979E+04  0.16500000000E+03 0.  0.
   -5000001    1    1    2    0    0  0.42373079959E+02  0.14581697883E+03  0.22807672837E+04  0.22917640523E+04  0.16500000000E+03 0.  0.
<mgrwt>
<rscale>  0 0.48621865E+03</rscale>
<asrwt>0</asrwt>
<pdfrwt beam="1">  1        2 0.47120083E+00 0.48621865E+03</pdfrwt>
<pdfrwt beam="2">  1       -2 0.25597710E-02 0.48621865E+03</pdfrwt>
<totfact> 0.99430171E+02</totfact>
</mgrwt>
</event>
<event>
 4    1  0.5387486E-005  0.8537256E+03  0.7818608E-02  0.9485350E-01
         -2   -1    0    0    0  501 -0.00000000000E+00  0.00000000000E+00  0.92106690511E+02  0.92106690546E+02  0.25500000000E-02 0. -1.
          2   -1    0    0  501    0  0.00000000000E+00 -0.00000000000E+00 -0.19782695849E+04  0.19782695849E+04  0.25500000000E-02 0.  1.
    5000001    1    1    2    0    0  0.31120479757E+03  0.23395277686E+03 -0.10845825957E+04  0.11640991086E+04  0.16500000000E+03 0.  0.
   -5000001    1    1    2    0    0 -0.31120479757E+03 -0.23395277686E+03 -0.80158029870E+03  0.90627716682E+03  0.16500000000E+03 0.  0.
<mgrwt>
<rscale>  0 0.85372563E+03</rscale>
<asrwt>0</asrwt>
<pdfrwt beam="1">  1        2 0.28260991E+00 0.85372563E+03</pdfrwt>
<pdfrwt beam="2">  1       -2 0.13158100E-01 0.85372563E+03</pdfrwt>
<totfact> 0.36393979E+02</totfact>
</mgrwt>
</event>
<event>
 4    1  0.5387486E-005  0.4792577E+03  0.7818608E-02  0.1019339E+00
         -2   -1    0    0    0  501 -0.00000000000E+00  0.00000000000E+00  0.53277200945E+03  0.53277200946E+03  0.25500000000E-02 0. -1.
          2   -1    0    0  501    0  0.00000000000E+00 -0.00000000000E+00 -0.10777968120E+03  0.10777968123E+03  0.25500000000E-02 0.  1.
    5000001    1    1    2    0    0 -0.13162612197E+03 -0.10542480658E+03  0.15646984170E+03  0.28310358032E+03  0.16500000000E+03 0.  0.
   -5000001    1    1    2    0    0  0.13162612197E+03  0.10542480658E+03  0.26852248655E+03  0.35744811037E+03  0.16500000000E+03 0.  0.
<mgrwt>
<rscale>  0 0.47925775E+03</rscale>
<asrwt>0</asrwt>
<pdfrwt beam="1">  1        2 0.15397097E-01 0.47925775E+03</pdfrwt>
<pdfrwt beam="2">  1       -2 0.76110288E-01 0.47925775E+03</pdfrwt>
<totfact> 0.60462855E+02</totfact>
</mgrwt>
</event>
<event>
 4    1  0.5387486E-005  0.4947308E+03  0.7818608E-02  0.1015163E+00
          2   -1    0    0  501    0  0.00000000000E+00  0.00000000000E+00  0.51471097679E+03  0.51471097680E+03  0.25500000000E-02 0.  1.
         -2   -1    0    0    0  501 -0.00000000000E+00 -0.00000000000E+00 -0.11888157349E+03  0.11888157352E+03  0.25500000000E-02 0. -1.
    5000001    1    1    2    0    0  0.19257584816E+02 -0.12298807963E+03  0.37195419886E+03  0.42552537921E+03  0.16500000000E+03 0.  0.
   -5000001    1    1    2    0    0 -0.19257584816E+02  0.12298807963E+03  0.23875204440E+02  0.20806717110E+03  0.16500000000E+03 0.  0.
<mgrwt>
<rscale>  0 0.49473084E+03</rscale>
<asrwt>0</asrwt>
<pdfrwt beam="1">  1        2 0.73530140E-01 0.49473084E+03</pdfrwt>
<pdfrwt beam="2">  1       -2 0.16983082E-01 0.49473084E+03</pdfrwt>
<totfact> 0.18329794E+03</totfact>
</mgrwt>
</event>
<event>
 4    1  0.5387486E-005  0.1040311E+04  0.7818608E-02  0.9265405E-01
          2   -1    0    0  501    0  0.00000000000E+00  0.00000000000E+00  0.24752909434E+03  0.24752909436E+03  0.25500000000E-02 0.  1.
         -2   -1    0    0    0  501 -0.00000000000E+00 -0.00000000000E+00 -0.10930501702E+04  0.10930501702E+04  0.25500000000E-02 0. -1.
    5000001    1    1    2    0    0 -0.40349754155E+03  0.26473433652E+03 -0.55444210714E+03  0.75334293993E+03  0.16500000000E+03 0.  0.
   -5000001    1    1    2    0    0  0.40349754155E+03 -0.26473433652E+03 -0.29107896875E+03  0.58723632467E+03  0.16500000000E+03 0.  0.
<mgrwt>
<rscale>  0 0.10403110E+04</rscale>
<asrwt>0</asrwt>
<pdfrwt beam="1">  1        2 0.35361300E-01 0.10403110E+04</pdfrwt>
<pdfrwt beam="2">  1       -2 0.15615002E+00 0.10403110E+04</pdfrwt>
<totfact> 0.39636798E+01</totfact>
</mgrwt>
</event>
<event>
 4    1  0.5387486E-005  0.5576802E+03  0.7818608E-02  0.9997317E-01
         -2   -1    0    0    0  501 -0.00000000000E+00  0.00000000000E+00  0.82451717502E+02  0.82451717542E+02  0.25500000000E-02 0. -1.
          2   -1    0    0  501    0  0.00000000000E+00 -0.00000000000E+00 -0.94299810216E+03  0.94299810216E+03  0.25500000000E-02 0.  1.
    5000001    1    1    2    0    0 -0.93196049262E+02  0.17528514289E+03 -0.23640266618E+03  0.35003086363E+03  0.16500000000E+03 0.  0.
   -5000001    1    1    2    0    0  0.93196049262E+02 -0.17528514289E+03 -0.62414371847E+03  0.67541895607E+03  0.16500000000E+03 0.  0.
<mgrwt>
<rscale>  0 0.55768024E+03</rscale>
<asrwt>0</asrwt>
<pdfrwt beam="1">  1        2 0.13471401E+00 0.55768024E+03</pdfrwt>
<pdfrwt beam="2">  1       -2 0.11778817E-01 0.55768024E+03</pdfrwt>
<totfact> 0.16057141E+03</totfact>
</mgrwt>
</event>
<event>
 4    1  0.5387486E-005  0.4797500E+03  0.7818608E-02  0.1019204E+00
         -2   -1    0    0    0  501 -0.00000000000E+00  0.00000000000E+00  0.36195215329E+02  0.36195215419E+02  0.25500000000E-02 0. -1.
          2   -1    0    0  501    0  0.00000000000E+00 -0.00000000000E+00 -0.15897134105E+04  0.15897134105E+04  0.25500000000E-02 0.  1.
    5000001    1    1    2    0    0  0.16436359636E+03  0.50798434913E+02 -0.68587459855E+03  0.72611627012E+03  0.16500000000E+03 0.  0.
   -5000001    1    1    2    0    0 -0.16436359636E+03 -0.50798434913E+02 -0.86764359661E+03  0.89979235579E+03  0.16500000000E+03 0.  0.
<mgrwt>
<rscale>  0 0.47975002E+03</rscale>
<asrwt>0</asrwt>
<pdfrwt beam="1">  1        2 0.22710187E+00 0.47975002E+03</pdfrwt>
<pdfrwt beam="2">  1       -2 0.51707461E-02 0.47975002E+03</pdfrwt>
<totfact> 0.26082655E+03</totfact>
</mgrwt>
</event>
<event>
 4    1  0.5387486E-005  0.6619022E+03  0.7818608E-02  0.9784698E-01
          2   -1    0    0  501    0  0.00000000000E+00  0.00000000000E+00  0.96761930636E+03  0.96761930636E+03  0.25500000000E-02 0.  1.
         -2   -1    0    0    0  501 -0.00000000000E+00 -0.00000000000E+00 -0.11319392819E+03  0.11319392822E+03  0.25500000000E-02 0. -1.
    5000001    1    1    2    0    0  0.48560851335E+02  0.26676365377E+03  0.27418534163E+03  0.41943247945E+03  0.16500000000E+03 0.  0.
   -5000001    1    1    2    0    0 -0.48560851335E+02 -0.26676365377E+03  0.58024003654E+03  0.66138075513E+03  0.16500000000E+03 0.  0.
<mgrwt>
<rscale>  0 0.66190220E+03</rscale>
<asrwt>0</asrwt>
<pdfrwt beam="1">  1        2 0.13823134E+00 0.66190220E+03</pdfrwt>
<pdfrwt beam="2">  1       -2 0.16170560E-01 0.66190220E+03</pdfrwt>
<totfact> 0.91107002E+02</totfact>
</mgrwt>
</event>
<event>
 4    1  0.5387486E-005  0.6042549E+03  0.7818608E-02  0.9896618E-01
          2   -1    0    0  501    0  0.00000000000E+00  0.00000000000E+00  0.14967550467E+04  0.14967550467E+04  0.25500000000E-02 0.  1.
         -2   -1    0    0    0  501 -0.00000000000E+00 -0.00000000000E+00 -0.60985937519E+02  0.60985937573E+02  0.25500000000E-02 0. -1.
    5000001    1    1    2    0    0  0.36787416898E+02  0.24342036008E+03  0.86928799236E+03  0.91841896725E+03  0.16500000000E+03 0.  0.
   -5000001    1    1    2    0    0 -0.36787416898E+02 -0.24342036008E+03  0.56648111684E+03  0.63932201704E+03  0.16500000000E+03 0.  0.
<mgrwt>
<rscale>  0 0.60425495E+03</rscale>
<asrwt>0</asrwt>
<pdfrwt beam="1">  1        2 0.21382210E+00 0.60425495E+03</pdfrwt>
<pdfrwt beam="2">  1       -2 0.87122788E-02 0.60425495E+03</pdfrwt>
<totfact> 0.12773268E+03</totfact>
</mgrwt>
</event>
<event>
 4    1  0.5387486E-005  0.4942933E+03  0.7818608E-02  0.1015279E+00
          2   -1    0    0  501    0  0.00000000000E+00  0.00000000000E+00  0.69987258268E+03  0.69987258268E+03  0.25500000000E-02 0.  1.
         -2   -1    0    0    0  501 -0.00000000000E+00 -0.00000000000E+00 -0.87275137841E+02  0.87275137878E+02  0.25500000000E-02 0. -1.
    5000001    1    1    2    0    0 -0.82219328166E+02  0.15829950614E+03  0.37818470706E+03  0.44951910329E+03  0.16500000000E+03 0.  0.
   -5000001    1    1    2    0    0  0.82219328166E+02 -0.15829950614E+03  0.23441273778E+03  0.33762861727E+03  0.16500000000E+03 0.  0.
<mgrwt>
<rscale>  0 0.49429334E+03</rscale>
<asrwt>0</asrwt>
<pdfrwt beam="1">  1        2 0.99981798E-01 0.49429334E+03</pdfrwt>
<pdfrwt beam="2">  1       -2 0.12467877E-01 0.49429334E+03</pdfrwt>
<totfact> 0.21438584E+03</totfact>
</mgrwt>
</event>
<event>
 4    1  0.5387486E-005  0.4049260E+03  0.7818608E-02  0.1042087E+00
         -2   -1    0    0    0  501 -0.00000000000E+00  0.00000000000E+00  0.65125307636E+03  0.65125307637E+03  0.25500000000E-02 0. -1.
          2   -1    0    0  501    0  0.00000000000E+00 -0.00000000000E+00 -0.62942139128E+02  0.62942139180E+02  0.25500000000E-02 0.  1.
    5000001    1    1    2    0    0 -0.94996340720E+02  0.91414267397E+01  0.17377409854E+03  0.25793469669E+03  0.16500000000E+03 0.  0.
   -5000001    1    1    2    0    0  0.94996340720E+02 -0.91414267397E+01  0.41453683870E+03  0.45626051886E+03  0.16500000000E+03 0.  0.
<mgrwt>
<rscale>  0 0.40492598E+03</rscale>
<asrwt>0</asrwt>
<pdfrwt beam="1">  1        2 0.89917334E-02 0.40492598E+03</pdfrwt>
<pdfrwt beam="2">  1       -2 0.93036161E-01 0.40492598E+03</pdfrwt>
<totfact> 0.74802190E+02</totfact>
</mgrwt>
</event>
<event>
 4    1  0.5387486E-005  0.5671228E+03  0.7818608E-02  0.9976066E-01
         -2   -1    0    0    0  501 -0.00000000000E+00  0.00000000000E+00  0.71562610196E+02  0.71562610242E+02  0.25500000000E-02 0. -1.
          2   -1    0    0  501    0  0.00000000000E+00 -0.00000000000E+00 -0.11235904446E+04  0.11235904446E+04  0.25500000000E-02 0.  1.
    5000001    1    1    2    0    0 -0.15798874012E+03 -0.40036205650E+02 -0.18218685843E+03  0.29492438209E+03  0.16500000000E+03 0.  0.
   -5000001    1    1    2    0    0  0.15798874012E+03  0.40036205650E+02 -0.86984097595E+03  0.90022867273E+03  0.16500000000E+03 0.  0.
<mgrwt>
<rscale>  0 0.56712279E+03</rscale>
<asrwt>0</asrwt>
<pdfrwt beam="1">  1        2 0.16051291E+00 0.56712279E+03</pdfrwt>
<pdfrwt beam="2">  1       -2 0.10223231E-01 0.56712279E+03</pdfrwt>
<totfact> 0.15767523E+03</totfact>
</mgrwt>
</event>
<event>
 4    1  0.5387486E-005  0.5787577E+03  0.7818608E-02  0.9950484E-01
          2   -1    0    0  501    0  0.00000000000E+00  0.00000000000E+00  0.18811910164E+04  0.18811910164E+04  0.25500000000E-02 0.  1.
         -2   -1    0    0    0  501 -0.00000000000E+00 -0.00000000000E+00 -0.44514408175E+02  0.44514408248E+02  0.25500000000E-02 0. -1.
    5000001    1    1    2    0    0 -0.66244681940E+02  0.22662824963E+03  0.10104502925E+04  0.10507061982E+04  0.16500000000E+03 0.  0.
   -5000001    1    1    2    0    0  0.66244681940E+02 -0.22662824963E+03  0.82622631572E+03  0.87499922640E+03  0.16500000000E+03 0.  0.
<mgrwt>
<rscale>  0 0.57875765E+03</rscale>
<asrwt>0</asrwt>
<pdfrwt beam="1">  1        2 0.26874154E+00 0.57875765E+03</pdfrwt>
<pdfrwt beam="2">  1       -2 0.63592020E-02 0.57875765E+03</pdfrwt>
<totfact> 0.13415394E+03</totfact>
</mgrwt>
</event>
<event>
 4    1  0.5387486E-005  0.4553690E+03  0.7818608E-02  0.1026133E+00
         -2   -1    0    0    0  501 -0.00000000000E+00  0.00000000000E+00  0.19674934140E+02  0.19674934306E+02  0.25500000000E-02 0. -1.
          2   -1    0    0  501    0  0.00000000000E+00 -0.00000000000E+00 -0.26348368808E+04  0.26348368808E+04  0.25500000000E-02 0.  1.
    5000001    1    1    2    0    0  0.12328238751E+03  0.49509106509E+02 -0.17940986945E+04  0.18065616027E+04  0.16500000000E+03 0.  0.
   -5000001    1    1    2    0    0 -0.12328238751E+03 -0.49509106509E+02 -0.82106325221E+03  0.84795021247E+03  0.16500000000E+03 0.  0.
<mgrwt>
<rscale>  0 0.45536905E+03</rscale>
<asrwt>0</asrwt>
<pdfrwt beam="1">  1        2 0.37640504E+00 0.45536905E+03</pdfrwt>
<pdfrwt beam="2">  1       -2 0.28107066E-02 0.45536905E+03</pdfrwt>
<totfact> 0.19722823E+03</totfact>
</mgrwt>
</event>
<event>
 4    1  0.5387486E-005  0.5440109E+03  0.7818608E-02  0.1002890E+00
         -2   -1    0    0    0  501 -0.00000000000E+00  0.00000000000E+00  0.26773606649E+02  0.26773606770E+02  0.25500000000E-02 0. -1.
          2   -1    0    0  501    0  0.00000000000E+00 -0.00000000000E+00 -0.27634288128E+04  0.27634288128E+04  0.25500000000E-02 0.  1.
    5000001    1    1    2    0    0  0.40409677222E+02 -0.20386608113E+03 -0.10619772731E+04  0.10946300971E+04  0.16500000000E+03 0.  0.
   -5000001    1    1    2    0    0 -0.40409677222E+02  0.20386608113E+03 -0.16746779331E+04  0.16955723225E+04  0.16500000000E+03 0.  0.
<mgrwt>
<rscale>  0 0.54401087E+03</rscale>
<asrwt>0</asrwt>
<pdfrwt beam="1">  1        2 0.39477536E+00 0.54401087E+03</pdfrwt>
<pdfrwt beam="2">  1       -2 0.38248027E-02 0.54401087E+03</pdfrwt>
<totfact> 0.10520543E+03</totfact>
</mgrwt>
</event>
<event>
 4    1  0.5387486E-005  0.5241657E+03  0.7818608E-02  0.1007657E+00
          2   -1    0    0  501    0  0.00000000000E+00  0.00000000000E+00  0.57644729399E+02  0.57644729456E+02  0.25500000000E-02 0.  1.
         -2   -1    0    0    0  501 -0.00000000000E+00 -0.00000000000E+00 -0.11915645005E+04  0.11915645005E+04  0.25500000000E-02 0. -1.
    5000001    1    1    2    0    0  0.15496858372E+03  0.10415233121E+03 -0.37335324210E+03  0.44886591920E+03  0.16500000000E+03 0.  0.
   -5000001    1    1    2    0    0 -0.15496858372E+03 -0.10415233121E+03 -0.76056652905E+03  0.80034331080E+03  0.16500000000E+03 0.  0.
<mgrwt>
<rscale>  0 0.52416567E+03</rscale>
<asrwt>0</asrwt>
<pdfrwt beam="1">  1        2 0.82349621E-02 0.52416567E+03</pdfrwt>
<pdfrwt beam="2">  1       -2 0.17022348E+00 0.52416567E+03</pdfrwt>
<totfact> 0.18496902E+02</totfact>
</mgrwt>
</event>
<event>
 4    1  0.5387486E-005  0.1102003E+04  0.7818608E-02  0.9203242E-01
         -2   -1    0    0    0  501 -0.00000000000E+00  0.00000000000E+00  0.17550954752E+03  0.17550954754E+03  0.25500000000E-02 0. -1.
          2   -1    0    0  501    0  0.00000000000E+00 -0.00000000000E+00 -0.17298345004E+04  0.17298345004E+04  0.25500000000E-02 0.  1.
    5000001    1    1    2    0    0 -0.33042780526E+03 -0.16557582845E+03 -0.14235792669E+04  0.14800002765E+04  0.16500000000E+03 0.  0.
   -5000001    1    1    2    0    0  0.33042780526E+03  0.16557582845E+03 -0.13074568597E+03  0.42534377138E+03  0.16500000000E+03 0.  0.
<mgrwt>
<rscale>  0 0.11020027E+04</rscale>
<asrwt>0</asrwt>
<pdfrwt beam="1">  1        2 0.24711920E+00 0.11020027E+04</pdfrwt>
<pdfrwt beam="2">  1       -2 0.25072794E-01 0.11020027E+04</pdfrwt>
<totfact> 0.15663302E+02</totfact>
</mgrwt>
</event>
<event>
 4    1  0.5387486E-005  0.5673602E+03  0.7818608E-02  0.9975537E-01
         -2   -1    0    0    0  501 -0.00000000000E+00  0.00000000000E+00  0.35075601587E+02  0.35075601679E+02  0.25500000000E-02 0. -1.
          2   -1    0    0  501    0  0.00000000000E+00 -0.00000000000E+00 -0.22943126411E+04  0.22943126411E+04  0.25500000000E-02 0.  1.
    5000001    1    1    2    0    0 -0.22143429932E+03 -0.54510941873E+02 -0.12744735559E+04  0.13051867438E+04  0.16500000000E+03 0.  0.
   -5000001    1    1    2    0    0  0.22143429932E+03  0.54510941873E+02 -0.98476348363E+03  0.10242014989E+04  0.16500000000E+03 0.  0.
<mgrwt>
<rscale>  0 0.56736019E+03</rscale>
<asrwt>0</asrwt>
<pdfrwt beam="1">  1        2 0.32775885E+00 0.56736019E+03</pdfrwt>
<pdfrwt beam="2">  1       -2 0.50108017E-02 0.56736019E+03</pdfrwt>
<totfact> 0.12071434E+03</totfact>
</mgrwt>
</event>
<event>
 4    1  0.5387486E-005  0.4218782E+03  0.7818608E-02  0.1036457E+00
         -2   -1    0    0    0  501 -0.00000000000E+00  0.00000000000E+00  0.21678620507E+03  0.21678620508E+03  0.25500000000E-02 0. -1.
          2   -1    0    0  501    0  0.00000000000E+00 -0.00000000000E+00 -0.20524974849E+03  0.20524974851E+03  0.25500000000E-02 0.  1.
    5000001    1    1    2    0    0 -0.49909601200E+02 -0.72595876329E+02  0.10331972877E+03  0.21368457105E+03  0.16500000000E+03 0.  0.
   -5000001    1    1    2    0    0  0.49909601200E+02  0.72595876329E+02 -0.91783272196E+02  0.20835138254E+03  0.16500000000E+03 0.  0.
<mgrwt>
<rscale>  0 0.42187825E+03</rscale>
<asrwt>0</asrwt>
<pdfrwt beam="1">  1        2 0.29321393E-01 0.42187825E+03</pdfrwt>
<pdfrwt beam="2">  1       -2 0.30969458E-01 0.42187825E+03</pdfrwt>
<totfact> 0.17495247E+03</totfact>
</mgrwt>
</event>
<event>
 4    1  0.5387486E-005  0.3697539E+03  0.7818608E-02  0.1054787E+00
          2   -1    0    0  501    0  0.00000000000E+00  0.00000000000E+00  0.11298134011E+03  0.11298134014E+03  0.25500000000E-02 0.  1.
         -2   -1    0    0    0  501 -0.00000000000E+00 -0.00000000000E+00 -0.30252329591E+03  0.30252329592E+03  0.25500000000E-02 0. -1.
    5000001    1    1    2    0    0  0.50090880849E+01  0.57124408685E+02 -0.16281204017E+03  0.23879080689E+03  0.16500000000E+03 0.  0.
   -5000001    1    1    2    0    0 -0.50090880849E+01 -0.57124408685E+02 -0.26729915633E+02  0.17671382917E+03  0.16500000000E+03 0.  0.
<mgrwt>
<rscale>  0 0.36975390E+03</rscale>
<asrwt>0</asrwt>
<pdfrwt beam="1">  1        2 0.16140192E-01 0.36975390E+03</pdfrwt>
<pdfrwt beam="2">  1       -2 0.43217613E-01 0.36975390E+03</pdfrwt>
<totfact> 0.18431161E+03</totfact>
</mgrwt>
</event>
<event>
 4    1  0.5387486E-005  0.6529545E+03  0.7818608E-02  0.9801251E-01
         -2   -1    0    0    0  501 -0.00000000000E+00  0.00000000000E+00  0.56955654860E+02  0.56955654917E+02  0.25500000000E-02 0. -1.
          2   -1    0    0  501    0  0.00000000000E+00 -0.00000000000E+00 -0.18714099493E+04  0.18714099493E+04  0.25500000000E-02 0.  1.
    5000001    1    1    2    0    0  0.26763760017E+03 -0.74267502708E+02 -0.76817653542E+03  0.83334610850E+03  0.16500000000E+03 0.  0.
   -5000001    1    1    2    0    0 -0.26763760017E+03  0.74267502708E+02 -0.10462777590E+04  0.10950194957E+04  0.16500000000E+03 0.  0.
<mgrwt>
<rscale>  0 0.65295445E+03</rscale>
<asrwt>0</asrwt>
<pdfrwt beam="1">  1        2 0.26734424E+00 0.65295445E+03</pdfrwt>
<pdfrwt beam="2">  1       -2 0.81365233E-02 0.65295445E+03</pdfrwt>
<totfact> 0.91485367E+02</totfact>
</mgrwt>
</event>
<event>
 4    1  0.5387486E-005  0.9517074E+03  0.7818608E-02  0.9363157E-01
          2   -1    0    0  501    0  0.00000000000E+00  0.00000000000E+00  0.11034941756E+04  0.11034941756E+04  0.25500000000E-02 0.  1.
         -2   -1    0    0    0  501 -0.00000000000E+00 -0.00000000000E+00 -0.20519976146E+03  0.20519976148E+03  0.25500000000E-02 0. -1.
    5000001    1    1    2    0    0 -0.31256223203E+03  0.32347499315E+02  0.88501356433E+03  0.95352793281E+03  0.16500000000E+03 0.  0.
   -5000001    1    1    2    0    0  0.31256223203E+03 -0.32347499315E+02  0.13280849790E+02  0.35516600425E+03  0.16500000000E+03 0.  0.
<mgrwt>
<rscale>  0 0.95170740E+03</rscale>
<asrwt>0</asrwt>
<pdfrwt beam="1">  1        2 0.15764202E+00 0.95170740E+03</pdfrwt>
<pdfrwt beam="2">  1       -2 0.29314252E-01 0.95170740E+03</pdfrwt>
<totfact> 0.25968064E+02</totfact>
</mgrwt>
</event>
<event>
 4    1  0.5387486E-005  0.4807986E+03  0.7818608E-02  0.1018916E+00
         -2   -1    0    0    0  501 -0.00000000000E+00  0.00000000000E+00  0.42171100876E+02  0.42171100953E+02  0.25500000000E-02 0. -1.
          2   -1    0    0  501    0  0.00000000000E+00 -0.00000000000E+00 -0.13704126922E+04  0.13704126922E+04  0.25500000000E-02 0.  1.
    5000001    1    1    2    0    0 -0.93911888413E+02 -0.92238928103E+02 -0.10021734795E+04  0.10241602148E+04  0.16500000000E+03 0.  0.
   -5000001    1    1    2    0    0  0.93911888413E+02  0.92238928103E+02 -0.32606811181E+03  0.38842357831E+03  0.16500000000E+03 0.  0.
<mgrwt>
<rscale>  0 0.48079855E+03</rscale>
<asrwt>0</asrwt>
<pdfrwt beam="1">  1        2 0.19577321E+00 0.48079855E+03</pdfrwt>
<pdfrwt beam="2">  1       -2 0.60244438E-02 0.48079855E+03</pdfrwt>
<totfact> 0.26743290E+03</totfact>
</mgrwt>
</event>
<event>
 4    1  0.5387486E-005  0.5658120E+03  0.7818608E-02  0.9978989E-01
          2   -1    0    0  501    0  0.00000000000E+00  0.00000000000E+00  0.53709285796E+03  0.53709285796E+03  0.25500000000E-02 0.  1.
         -2   -1    0    0    0  501 -0.00000000000E+00 -0.00000000000E+00 -0.14901672418E+03  0.14901672420E+03  0.25500000000E-02 0. -1.
    5000001    1    1    2    0    0  0.90098525199E+02  0.17498284250E+03  0.50180972400E+02  0.26168658621E+03  0.16500000000E+03 0.  0.
   -5000001    1    1    2    0    0 -0.90098525199E+02 -0.17498284250E+03  0.33789516138E+03  0.42442299595E+03  0.16500000000E+03 0.  0.
<mgrwt>
<rscale>  0 0.56581205E+03</rscale>
<asrwt>0</asrwt>
<pdfrwt beam="1">  1        2 0.76727552E-01 0.56581205E+03</pdfrwt>
<pdfrwt beam="2">  1       -2 0.21288103E-01 0.56581205E+03</pdfrwt>
<totfact> 0.11822042E+03</totfact>
</mgrwt>
</event>
<event>
 4    1  0.5387486E-005  0.6038091E+03  0.7818608E-02  0.9897535E-01
         -2   -1    0    0    0  501 -0.00000000000E+00  0.00000000000E+00  0.87676562260E+03  0.87676562260E+03  0.25500000000E-02 0. -1.
          2   -1    0    0  501    0  0.00000000000E+00 -0.00000000000E+00 -0.10395748138E+03  0.10395748141E+03  0.25500000000E-02 0.  1.
    5000001    1    1    2    0    0  0.47528748208E+02 -0.20473828345E+03  0.15817501042E+03  0.31051743999E+03  0.16500000000E+03 0.  0.
   -5000001    1    1    2    0    0 -0.47528748208E+02  0.20473828345E+03  0.61463313079E+03  0.67020566402E+03  0.16500000000E+03 0.  0.
<mgrwt>
<rscale>  0 0.60380906E+03</rscale>
<asrwt>0</asrwt>
<pdfrwt beam="1">  1        2 0.14851069E-01 0.60380906E+03</pdfrwt>
<pdfrwt beam="2">  1       -2 0.12525223E+00 0.60380906E+03</pdfrwt>
<totfact> 0.19626294E+02</totfact>
</mgrwt>
</event>
<event>
 4    1  0.5387486E-005  0.7596349E+03  0.7818608E-02  0.9620355E-01
         -2   -1    0    0    0  501 -0.00000000000E+00  0.00000000000E+00  0.44150364458E+02  0.44150364531E+02  0.25500000000E-02 0. -1.
          2   -1    0    0  501    0  0.00000000000E+00 -0.00000000000E+00 -0.32674993180E+04  0.32674993180E+04  0.25500000000E-02 0.  1.
    5000001    1    1    2    0    0 -0.35365390914E+02  0.11405955017E+03 -0.21406660786E+03  0.29548232513E+03  0.16500000000E+03 0.  0.
   -5000001    1    1    2    0    0  0.35365390914E+02 -0.11405955017E+03 -0.30092823457E+04  0.30161673574E+04  0.16500000000E+03 0.  0.
<mgrwt>
<rscale>  0 0.75963488E+03</rscale>
<asrwt>0</asrwt>
<pdfrwt beam="1">  1        2 0.46678546E+00 0.75963488E+03</pdfrwt>
<pdfrwt beam="2">  1       -2 0.63071970E-02 0.75963488E+03</pdfrwt>
<totfact> 0.25111036E+02</totfact>
</mgrwt>
</event>
<event>
 4    1  0.5387486E-005  0.3404220E+03  0.7818608E-02  0.1066616E+00
         -2   -1    0    0    0  501 -0.00000000000E+00  0.00000000000E+00  0.67363895037E+02  0.67363895086E+02  0.25500000000E-02 0. -1.
          2   -1    0    0  501    0  0.00000000000E+00 -0.00000000000E+00 -0.43007876808E+03  0.43007876809E+03  0.25500000000E-02 0.  1.
    5000001    1    1    2    0    0  0.35086820941E+02  0.41861063764E+01 -0.14874259155E+03  0.22493991871E+03  0.16500000000E+03 0.  0.
   -5000001    1    1    2    0    0 -0.35086820941E+02 -0.41861063764E+01 -0.21397228149E+03  0.27250274446E+03  0.16500000000E+03 0.  0.
<mgrwt>
<rscale>  0 0.34042198E+03</rscale>
<asrwt>0</asrwt>
<pdfrwt beam="1">  1        2 0.61439823E-01 0.34042198E+03</pdfrwt>
<pdfrwt beam="2">  1       -2 0.96234138E-02 0.34042198E+03</pdfrwt>
<totfact> 0.56601768E+03</totfact>
</mgrwt>
</event>
<event>
 4    1  0.5387486E-005  0.4549149E+03  0.7818608E-02  0.1026266E+00
          2   -1    0    0  501    0  0.00000000000E+00  0.00000000000E+00  0.27105077679E+03  0.27105077680E+03  0.25500000000E-02 0.  1.
         -2   -1    0    0    0  501 -0.00000000000E+00 -0.00000000000E+00 -0.19087529358E+03  0.19087529359E+03  0.25500000000E-02 0. -1.
    5000001    1    1    2    0    0  0.12871041858E+03 -0.88781908234E+02  0.32009150388E+02  0.22956085204E+03  0.16500000000E+03 0.  0.
   -5000001    1    1    2    0    0 -0.12871041858E+03  0.88781908234E+02  0.48166332823E+02  0.23236521835E+03  0.16500000000E+03 0.  0.
<mgrwt>
<rscale>  0 0.45491492E+03</rscale>
<asrwt>0</asrwt>
<pdfrwt beam="1">  1        2 0.38721540E-01 0.45491492E+03</pdfrwt>
<pdfrwt beam="2">  1       -2 0.27267899E-01 0.45491492E+03</pdfrwt>
<totfact> 0.16242273E+03</totfact>
</mgrwt>
</event>
<event>
 4    1  0.5387486E-005  0.5064879E+03  0.7818608E-02  0.1012099E+00
          2   -1    0    0  501    0  0.00000000000E+00  0.00000000000E+00  0.20129672989E+03  0.20129672991E+03  0.25500000000E-02 0.  1.
         -2   -1    0    0    0  501 -0.00000000000E+00 -0.00000000000E+00 -0.31859684687E+03  0.31859684688E+03  0.25500000000E-02 0. -1.
    5000001    1    1    2    0    0  0.13849149215E+03 -0.50919570697E+02  0.67629719108E+02  0.23145512520E+03  0.16500000000E+03 0.  0.
   -5000001    1    1    2    0    0 -0.13849149215E+03  0.50919570697E+02 -0.18492983609E+03  0.28843845159E+03  0.16500000000E+03 0.  0.
<mgrwt>
<rscale>  0 0.50648792E+03</rscale>
<asrwt>0</asrwt>
<pdfrwt beam="1">  1        2 0.28756676E-01 0.50648792E+03</pdfrwt>
<pdfrwt beam="2">  1       -2 0.45513835E-01 0.50648792E+03</pdfrwt>
<totfact> 0.85774538E+02</totfact>
</mgrwt>
</event>
<event>
 4    1  0.5387486E-005  0.4773638E+03  0.7818608E-02  0.1019862E+00
         -2   -1    0    0    0  501 -0.00000000000E+00  0.00000000000E+00  0.31723899395E+02  0.31723899498E+02  0.25500000000E-02 0. -1.
          2   -1    0    0  501    0  0.00000000000E+00 -0.00000000000E+00 -0.17957769057E+04  0.17957769057E+04  0.25500000000E-02 0.  1.
    5000001    1    1    2    0    0  0.16658637061E+03  0.43993667499E+02 -0.85297555702E+03  0.88570805716E+03  0.16500000000E+03 0.  0.
   -5000001    1    1    2    0    0 -0.16658637061E+03 -0.43993667499E+02 -0.91107744924E+03  0.94179274799E+03  0.16500000000E+03 0.  0.
<mgrwt>
<rscale>  0 0.47736379E+03</rscale>
<asrwt>0</asrwt>
<pdfrwt beam="1">  1        2 0.25653949E+00 0.47736379E+03</pdfrwt>
<pdfrwt beam="2">  1       -2 0.45319868E-02 0.47736379E+03</pdfrwt>
<totfact> 0.25150642E+03</totfact>
</mgrwt>
</event>
<event>
 4    1  0.5387486E-005  0.4143172E+03  0.7818608E-02  0.1038932E+00
         -2   -1    0    0    0  501 -0.00000000000E+00  0.00000000000E+00  0.12877740401E+03  0.12877740403E+03  0.25500000000E-02 0. -1.
          2   -1    0    0  501    0  0.00000000000E+00 -0.00000000000E+00 -0.33324706327E+03  0.33324706328E+03  0.25500000000E-02 0.  1.
    5000001    1    1    2    0    0  0.10687847515E+03  0.62173011956E+02 -0.12457118744E+03  0.24089722416E+03  0.16500000000E+03 0.  0.
   -5000001    1    1    2    0    0 -0.10687847515E+03 -0.62173011956E+02 -0.79898471820E+02  0.22112724316E+03  0.16500000000E+03 0.  0.
<mgrwt>
<rscale>  0 0.41431723E+03</rscale>
<asrwt>0</asrwt>
<pdfrwt beam="1">  1        2 0.47606723E-01 0.41431723E+03</pdfrwt>
<pdfrwt beam="2">  1       -2 0.18396772E-01 0.41431723E+03</pdfrwt>
<totfact> 0.25841533E+03</totfact>
</mgrwt>
</event>
<event>
 4    1  0.5387486E-005  0.4124338E+03  0.7818608E-02  0.1039557E+00
          2   -1    0    0  501    0  0.00000000000E+00  0.00000000000E+00  0.19476243774E+04  0.19476243774E+04  0.25500000000E-02 0.  1.
         -2   -1    0    0    0  501 -0.00000000000E+00 -0.00000000000E+00 -0.21834501401E+02  0.21834501550E+02  0.25500000000E-02 0. -1.
    5000001    1    1    2    0    0 -0.27233976717E+02  0.10845746414E+03  0.71040871899E+03  0.73784162192E+03  0.16500000000E+03 0.  0.
   -5000001    1    1    2    0    0  0.27233976717E+02 -0.10845746414E+03  0.12153811570E+04  0.12316172570E+04  0.16500000000E+03 0.  0.
<mgrwt>
<rscale>  0 0.41243379E+03</rscale>
<asrwt>0</asrwt>
<pdfrwt beam="1">  1        2 0.27823200E+00 0.41243379E+03</pdfrwt>
<pdfrwt beam="2">  1       -2 0.31192151E-02 0.41243379E+03</pdfrwt>
<totfact> 0.37363825E+03</totfact>
</mgrwt>
</event>
<event>
 4    1  0.5387486E-005  0.6564409E+03  0.7818608E-02  0.9794768E-01
         -2   -1    0    0    0  501 -0.00000000000E+00  0.00000000000E+00  0.16288937029E+03  0.16288937031E+03  0.25500000000E-02 0. -1.
          2   -1    0    0  501    0  0.00000000000E+00 -0.00000000000E+00 -0.66136091017E+03  0.66136091017E+03  0.25500000000E-02 0.  1.
    5000001    1    1    2    0    0  0.60161515269E+02 -0.26303259610E+03 -0.35940376993E+03  0.47875006462E+03  0.16500000000E+03 0.  0.
   -5000001    1    1    2    0    0 -0.60161515269E+02  0.26303259610E+03 -0.13906776994E+03  0.34550021587E+03  0.16500000000E+03 0.  0.
<mgrwt>
<rscale>  0 0.65644090E+03</rscale>
<asrwt>0</asrwt>
<pdfrwt beam="1">  1        2 0.94480129E-01 0.65644090E+03</pdfrwt>
<pdfrwt beam="2">  1       -2 0.23269910E-01 0.65644090E+03</pdfrwt>
<totfact> 0.78969408E+02</totfact>
</mgrwt>
</event>
<event>
 4    1  0.5387486E-005  0.1243710E+04  0.7818608E-02  0.9075434E-01
         -2   -1    0    0    0  501 -0.00000000000E+00  0.00000000000E+00  0.60451565402E+03  0.60451565403E+03  0.25500000000E-02 0. -1.
          2   -1    0    0  501    0  0.00000000000E+00 -0.00000000000E+00 -0.63969201606E+03  0.63969201606E+03  0.25500000000E-02 0.  1.
    5000001    1    1    2    0    0 -0.53414115705E+03  0.27155495258E+03  0.31558181015E+01  0.62151735866E+03  0.16500000000E+03 0.  0.
   -5000001    1    1    2    0    0  0.53414115705E+03 -0.27155495258E+03 -0.38332180138E+02  0.62269031144E+03  0.16500000000E+03 0.  0.
<mgrwt>
<rscale>  0 0.12437103E+04</rscale>
<asrwt>0</asrwt>
<pdfrwt beam="1">  1        2 0.91384573E-01 0.12437103E+04</pdfrwt>
<pdfrwt beam="2">  1       -2 0.86359380E-01 0.12437103E+04</pdfrwt>
<totfact> 0.57539931E+01</totfact>
</mgrwt>
</event>
<event>
 4    1  0.5387486E-005  0.5083981E+03  0.7818608E-02  0.1011610E+00
         -2   -1    0    0    0  501 -0.00000000000E+00  0.00000000000E+00  0.55089555272E+03  0.55089555272E+03  0.25500000000E-02 0. -1.
          2   -1    0    0  501    0  0.00000000000E+00 -0.00000000000E+00 -0.11729473178E+03  0.11729473181E+03  0.25500000000E-02 0.  1.
    5000001    1    1    2    0    0  0.73502040329E+01  0.18775220434E+03  0.15675477194E+03  0.29513043601E+03  0.16500000000E+03 0.  0.
   -5000001    1    1    2    0    0 -0.73502040329E+01 -0.18775220434E+03  0.27684604900E+03  0.37305984853E+03  0.16500000000E+03 0.  0.
<mgrwt>
<rscale>  0 0.50839806E+03</rscale>
<asrwt>0</asrwt>
<pdfrwt beam="1">  1        2 0.16756390E-01 0.50839806E+03</pdfrwt>
<pdfrwt beam="2">  1       -2 0.78699366E-01 0.50839806E+03</pdfrwt>
<totfact> 0.50733411E+02</totfact>
</mgrwt>
</event>
<event>
 4    1  0.5387486E-005  0.5066305E+03  0.7818608E-02  0.1012063E+00
         -2   -1    0    0    0  501 -0.00000000000E+00  0.00000000000E+00  0.11533613961E+03  0.11533613963E+03  0.25500000000E-02 0. -1.
          2   -1    0    0  501    0  0.00000000000E+00 -0.00000000000E+00 -0.55636170353E+03  0.55636170354E+03  0.25500000000E-02 0.  1.
    5000001    1    1    2    0    0  0.13616469416E+03 -0.69348719717E+02 -0.37509123589E+03  0.43734254779E+03  0.16500000000E+03 0.  0.
   -5000001    1    1    2    0    0 -0.13616469416E+03  0.69348719717E+02 -0.65934328032E+02  0.23435529538E+03  0.16500000000E+03 0.  0.
<mgrwt>
<rscale>  0 0.50663048E+03</rscale>
<asrwt>0</asrwt>
<pdfrwt beam="1">  1        2 0.79480242E-01 0.50663048E+03</pdfrwt>
<pdfrwt beam="2">  1       -2 0.16476592E-01 0.50663048E+03</pdfrwt>
<totfact> 0.17654224E+03</totfact>
</mgrwt>
</event>
<event>
 4    1  0.5387486E-005  0.5515926E+03  0.7818608E-02  0.1001126E+00
          2   -1    0    0  501    0  0.00000000000E+00  0.00000000000E+00  0.71240230928E+03  0.71240230928E+03  0.25500000000E-02 0.  1.
         -2   -1    0    0    0  501 -0.00000000000E+00 -0.00000000000E+00 -0.10677055252E+03  0.10677055255E+03  0.25500000000E-02 0. -1.
    5000001    1    1    2    0    0  0.16449652616E+02  0.18264073144E+03  0.48597430646E+03  0.54499931596E+03  0.16500000000E+03 0.  0.
   -5000001    1    1    2    0    0 -0.16449652616E+02 -0.18264073144E+03  0.11965745029E+03  0.27417354588E+03  0.16500000000E+03 0.  0.
<mgrwt>
<rscale>  0 0.55159256E+03</rscale>
<asrwt>0</asrwt>
<pdfrwt beam="1">  1        2 0.10177176E+00 0.55159256E+03</pdfrwt>
<pdfrwt beam="2">  1       -2 0.15252936E-01 0.55159256E+03</pdfrwt>
<totfact> 0.14999715E+03</totfact>
</mgrwt>
</event>
<event>
 4    1  0.5387486E-005  0.4600262E+03  0.7818608E-02  0.1024774E+00
         -2   -1    0    0    0  501 -0.00000000000E+00  0.00000000000E+00  0.11158320471E+03  0.11158320474E+03  0.25500000000E-02 0. -1.
          2   -1    0    0  501    0  0.00000000000E+00 -0.00000000000E+00 -0.47413967627E+03  0.47413967628E+03  0.25500000000E-02 0.  1.
    5000001    1    1    2    0    0 -0.10203502708E+03  0.99786205438E+02 -0.27408140798E+03  0.35030565475E+03  0.16500000000E+03 0.  0.
   -5000001    1    1    2    0    0  0.10203502708E+03 -0.99786205438E+02 -0.88475063575E+02  0.23541722626E+03  0.16500000000E+03 0.  0.
<mgrwt>
<rscale>  0 0.46002619E+03</rscale>
<asrwt>0</asrwt>
<pdfrwt beam="1">  1        2 0.67734239E-01 0.46002619E+03</pdfrwt>
<pdfrwt beam="2">  1       -2 0.15940458E-01 0.46002619E+03</pdfrwt>
<totfact> 0.22370828E+03</totfact>
</mgrwt>
</event>
<event>
 4    1  0.5387486E-005  0.5558233E+03  0.7818608E-02  0.1000155E+00
          2   -1    0    0  501    0  0.00000000000E+00  0.00000000000E+00  0.11678490356E+04  0.11678490356E+04  0.25500000000E-02 0.  1.
         -2   -1    0    0    0  501 -0.00000000000E+00 -0.00000000000E+00 -0.66134312411E+02  0.66134312460E+02  0.25500000000E-02 0. -1.
    5000001    1    1    2    0    0 -0.34803564250E+02 -0.21998150568E+03  0.50608272426E+03  0.57701635568E+03  0.16500000000E+03 0.  0.
   -5000001    1    1    2    0    0  0.34803564250E+02  0.21998150568E+03  0.59563199891E+03  0.65696699236E+03  0.16500000000E+03 0.  0.
<mgrwt>
<rscale>  0 0.55582333E+03</rscale>
<asrwt>0</asrwt>
<pdfrwt beam="1">  1        2 0.16683557E+00 0.55582333E+03</pdfrwt>
<pdfrwt beam="2">  1       -2 0.94477591E-02 0.55582333E+03</pdfrwt>
<totfact> 0.16904512E+03</totfact>
</mgrwt>
</event>
<event>
 4    1  0.5387486E-005  0.8559617E+03  0.7818608E-02  0.9482370E-01
          2   -1    0    0  501    0  0.00000000000E+00  0.00000000000E+00  0.16013745913E+03  0.16013745915E+03  0.25500000000E-02 0.  1.
         -2   -1    0    0    0  501 -0.00000000000E+00 -0.00000000000E+00 -0.11438150031E+04  0.11438150031E+04  0.25500000000E-02 0. -1.
    5000001    1    1    2    0    0  0.34350363350E+03 -0.19336567964E+03 -0.52781099217E+03  0.67911300661E+03  0.16500000000E+03 0.  0.
   -5000001    1    1    2    0    0 -0.34350363350E+03  0.19336567964E+03 -0.45586655184E+03  0.62483945568E+03  0.16500000000E+03 0.  0.
<mgrwt>
<rscale>  0 0.85596175E+03</rscale>
<asrwt>0</asrwt>
<pdfrwt beam="1">  1        2 0.22876780E-01 0.85596175E+03</pdfrwt>
<pdfrwt beam="2">  1       -2 0.16340214E+00 0.85596175E+03</pdfrwt>
<totfact> 0.58143932E+01</totfact>
</mgrwt>
</event>
<event>
 4    1  0.5387486E-005  0.6030828E+03  0.7818608E-02  0.9899031E-01
         -2   -1    0    0    0  501 -0.00000000000E+00  0.00000000000E+00  0.20057205223E+03  0.20057205225E+03  0.25500000000E-02 0. -1.
          2   -1    0    0  501    0  0.00000000000E+00 -0.00000000000E+00 -0.45333941265E+03  0.45333941265E+03  0.25500000000E-02 0.  1.
    5000001    1    1    2    0    0  0.61423618155E+01  0.11677642849E+03  0.11613629150E+03  0.23321042228E+03  0.16500000000E+03 0.  0.
   -5000001    1    1    2    0    0 -0.61423618155E+01 -0.11677642849E+03 -0.36890365192E+03  0.42070104261E+03  0.16500000000E+03 0.  0.
<mgrwt>
<rscale>  0 0.60308280E+03</rscale>
<asrwt>0</asrwt>
<pdfrwt beam="1">  1        2 0.64762773E-01 0.60308280E+03</pdfrwt>
<pdfrwt beam="2">  1       -2 0.28653151E-01 0.60308280E+03</pdfrwt>
<totfact> 0.84116516E+02</totfact>
</mgrwt>
</event>
<event>
 4    1  0.5387486E-005  0.4734926E+03  0.7818608E-02  0.1020939E+00
         -2   -1    0    0    0  501 -0.00000000000E+00  0.00000000000E+00  0.53843087538E+02  0.53843087599E+02  0.25500000000E-02 0.  1.
          2   -1    0    0  501    0  0.00000000000E+00 -0.00000000000E+00 -0.10409657317E+04  0.10409657317E+04  0.25500000000E-02 0. -1.
    5000001    1    1    2    0    0 -0.75322185226E+02  0.13683201348E+03 -0.64741163228E+03  0.68612189377E+03  0.16500000000E+03 0.  0.
   -5000001    1    1    2    0    0  0.75322185226E+02 -0.13683201348E+03 -0.33971101183E+03  0.40868692548E+03  0.16500000000E+03 0.  0.
<mgrwt>
<rscale>  0 0.47349259E+03</rscale>
<asrwt>0</asrwt>
<pdfrwt beam="1">  1        2 0.14870938E+00 0.47349259E+03</pdfrwt>
<pdfrwt beam="2">  1       -2 0.76918703E-02 0.47349259E+03</pdfrwt>
<totfact> 0.27802232E+03</totfact>
</mgrwt>
</event>
<event>
 4    1  0.5387486E-005  0.9614081E+03  0.7818608E-02  0.9351915E-01
         -2   -1    0    0    0  501 -0.00000000000E+00  0.00000000000E+00  0.36616135561E+03  0.36616135562E+03  0.25500000000E-02 0. -1.
          2   -1    0    0  501    0  0.00000000000E+00 -0.00000000000E+00 -0.63107806735E+03  0.63107806735E+03  0.25500000000E-02 0.  1.
    5000001    1    1    2    0    0 -0.96641933324E+02 -0.42673387697E+03 -0.16906637015E+02  0.46792339053E+03  0.16500000000E+03 0.  0.
   -5000001    1    1    2    0    0  0.96641933324E+02  0.42673387697E+03 -0.24801007472E+03  0.52931603244E+03  0.16500000000E+03 0.  0.
<mgrwt>
<rscale>  0 0.96140814E+03</rscale>
<asrwt>0</asrwt>
<pdfrwt beam="1">  1        2 0.90154009E-01 0.96140814E+03</pdfrwt>
<pdfrwt beam="2">  1       -2 0.52308766E-01 0.96140814E+03</pdfrwt>
<totfact> 0.17624141E+02</totfact>
</mgrwt>
</event>
<event>
 4    1  0.5387486E-005  0.6532932E+03  0.7818608E-02  0.9800619E-01
          2   -1    0    0  501    0  0.00000000000E+00  0.00000000000E+00  0.11468282158E+03  0.11468282161E+03  0.25500000000E-02 0.  1.
         -2   -1    0    0    0  501 -0.00000000000E+00 -0.00000000000E+00 -0.93037469295E+03  0.93037469295E+03  0.25500000000E-02 0. -1.
    5000001    1    1    2    0    0 -0.11303917794E+03  0.25823006821E+03 -0.41347239896E+03  0.52692034367E+03  0.16500000000E+03 0.  0.
   -5000001    1    1    2    0    0  0.11303917794E+03 -0.25823006821E+03 -0.40221947241E+03  0.51813717089E+03  0.16500000000E+03 0.  0.
<mgrwt>
<rscale>  0 0.65329318E+03</rscale>
<asrwt>0</asrwt>
<pdfrwt beam="1">  1        2 0.16383261E-01 0.65329318E+03</pdfrwt>
<pdfrwt beam="2">  1       -2 0.13291067E+00 0.65329318E+03</pdfrwt>
<totfact> 0.14989590E+02</totfact>
</mgrwt>
</event>
<event>
 4    1  0.5387486E-005  0.5190069E+03  0.7818608E-02  0.1008934E+00
         -2   -1    0    0    0  501 -0.00000000000E+00  0.00000000000E+00  0.10374984773E+03  0.10374984776E+03  0.25500000000E-02 0. -1.
          2   -1    0    0  501    0  0.00000000000E+00 -0.00000000000E+00 -0.64908083944E+03  0.64908083944E+03  0.25500000000E-02 0.  1.
    5000001    1    1    2    0    0 -0.50242826098E+02 -0.19372724768E+03 -0.26120268559E+03  0.36811198165E+03  0.16500000000E+03 0.  0.
   -5000001    1    1    2    0    0  0.50242826098E+02  0.19372724768E+03 -0.28412830611E+03  0.38471870556E+03  0.16500000000E+03 0.  0.
<mgrwt>
<rscale>  0 0.51900689E+03</rscale>
<asrwt>0</asrwt>
<pdfrwt beam="1">  1        2 0.92725832E-01 0.51900689E+03</pdfrwt>
<pdfrwt beam="2">  1       -2 0.14821407E-01 0.51900689E+03</pdfrwt>
<totfact> 0.17617178E+03</totfact>
</mgrwt>
</event>
<event>
 4    1  0.5387486E-005  0.5269441E+03  0.7818608E-02  0.1006976E+00
         -2   -1    0    0    0  501 -0.00000000000E+00  0.00000000000E+00  0.16878849598E+02  0.16878849791E+02  0.25500000000E-02 0. -1.
          2   -1    0    0  501    0  0.00000000000E+00 -0.00000000000E+00 -0.41126926455E+04  0.41126926455E+04  0.25500000000E-02 0.  1.
    5000001    1    1    2    0    0  0.20071801286E+03  0.43522407123E+02 -0.20223915458E+04  0.20394789740E+04  0.16500000000E+03 0.  0.
   -5000001    1    1    2    0    0 -0.20071801286E+03 -0.43522407123E+02 -0.20734222500E+04  0.20900925213E+04  0.16500000000E+03 0.  0.
<mgrwt>
<rscale>  0 0.52694410E+03</rscale>
<asrwt>0</asrwt>
<pdfrwt beam="1">  1        2 0.58752688E+00 0.52694410E+03</pdfrwt>
<pdfrwt beam="2">  1       -2 0.24112669E-02 0.52694410E+03</pdfrwt>
<totfact> 0.33804707E+02</totfact>
</mgrwt>
</event>
<event>
 4    1  0.5387486E-005  0.5464040E+03  0.7818608E-02  0.1002330E+00
          2   -1    0    0  501    0  0.00000000000E+00  0.00000000000E+00  0.94091120649E+03  0.94091120649E+03  0.25500000000E-02 0.  1.
         -2   -1    0    0    0  501 -0.00000000000E+00 -0.00000000000E+00 -0.79326634515E+02  0.79326634556E+02  0.25500000000E-02 0. -1.
    5000001    1    1    2    0    0 -0.72521615317E+02  0.15375739118E+03  0.68485037525E+03  0.72466941188E+03  0.16500000000E+03 0.  0.
   -5000001    1    1    2    0    0  0.72521615317E+02 -0.15375739118E+03  0.17673419673E+03  0.29556842917E+03  0.16500000000E+03 0.  0.
<mgrwt>
<rscale>  0 0.54640395E+03</rscale>
<asrwt>0</asrwt>
<pdfrwt beam="1">  1        2 0.13441587E+00 0.54640395E+03</pdfrwt>
<pdfrwt beam="2">  1       -2 0.11332377E-01 0.54640395E+03</pdfrwt>
<totfact> 0.17159796E+03</totfact>
</mgrwt>
</event>
<event>
 4    1  0.5387486E-005  0.3487385E+03  0.7818608E-02  0.1063134E+00
         -2   -1    0    0    0  501 -0.00000000000E+00  0.00000000000E+00  0.12128230819E+02  0.12128231087E+02  0.25500000000E-02 0. -1.
          2   -1    0    0  501    0  0.00000000000E+00 -0.00000000000E+00 -0.25069301906E+04  0.25069301906E+04  0.25500000000E-02 0.  1.
    5000001    1    1    2    0    0 -0.47859364162E+02 -0.29667174565E+02 -0.12690328830E+04  0.12809528165E+04  0.16500000000E+03 0.  0.
   -5000001    1    1    2    0    0  0.47859364162E+02  0.29667174565E+02 -0.12257690768E+04  0.12381056052E+04  0.16500000000E+03 0.  0.
<mgrwt>
<rscale>  0 0.34873846E+03</rscale>
<asrwt>0</asrwt>
<pdfrwt beam="1">  1        2 0.35813255E+00 0.34873846E+03</pdfrwt>
<pdfrwt beam="2">  1       -2 0.17326060E-02 0.34873846E+03</pdfrwt>
<totfact> 0.47410423E+03</totfact>
</mgrwt>
</event>
<event>
 4    1  0.5387486E-005  0.4991454E+03  0.7818608E-02  0.1014002E+00
          2   -1    0    0  501    0  0.00000000000E+00  0.00000000000E+00  0.30277273636E+04  0.30277273636E+04  0.25500000000E-02 0. -1.
         -2   -1    0    0    0  501 -0.00000000000E+00 -0.00000000000E+00 -0.20572040426E+02  0.20572040584E+02  0.25500000000E-02 0.  1.
    5000001    1    1    2    0    0 -0.10924245967E+03  0.14207633030E+03  0.18348207487E+04  0.18509218726E+04  0.16500000000E+03 0.  0.
   -5000001    1    1    2    0    0  0.10924245967E+03 -0.14207633030E+03  0.11723345745E+04  0.11973775316E+04  0.16500000000E+03 0.  0.
<mgrwt>
<rscale>  0 0.49914539E+03</rscale>
<asrwt>0</asrwt>
<pdfrwt beam="1">  1        2 0.43253296E+00 0.49914539E+03</pdfrwt>
<pdfrwt beam="2">  1       -2 0.29388597E-02 0.49914539E+03</pdfrwt>
<totfact> 0.11393892E+03</totfact>
</mgrwt>
</event>
<event>
 4    1  0.5387486E-005  0.5071756E+03  0.7818608E-02  0.1011923E+00
          2   -1    0    0  501    0  0.00000000000E+00  0.00000000000E+00  0.59870007347E+03  0.59870007347E+03  0.25500000000E-02 0.  1.
         -2   -1    0    0    0  501 -0.00000000000E+00 -0.00000000000E+00 -0.10741067941E+03  0.10741067944E+03  0.25500000000E-02 0. -1.
    5000001    1    1    2    0    0  0.23562840286E+02 -0.18487264081E+03  0.17817225163E+03  0.30611019586E+03  0.16500000000E+03 0.  0.
   -5000001    1    1    2    0    0 -0.23562840286E+02  0.18487264081E+03  0.31311714243E+03  0.40000055705E+03  0.16500000000E+03 0.  0.
<mgrwt>
<rscale>  0 0.50717564E+03</rscale>
<asrwt>0</asrwt>
<pdfrwt beam="1">  1        2 0.85528580E-01 0.50717564E+03</pdfrwt>
<pdfrwt beam="2">  1       -2 0.15344383E-01 0.50717564E+03</pdfrwt>
<totfact> 0.18283950E+03</totfact>
</mgrwt>
</event>
<event>
 4    1  0.5387486E-005  0.9546126E+03  0.7818608E-02  0.9359775E-01
          2   -1    0    0  501    0  0.00000000000E+00  0.00000000000E+00  0.26158177157E+04  0.26158177157E+04  0.25500000000E-02 0.  1.
         -2   -1    0    0    0  501 -0.00000000000E+00 -0.00000000000E+00 -0.87093719037E+02  0.87093719074E+02  0.25500000000E-02 0. -1.
    5000001    1    1    2    0    0  0.10994751535E+03 -0.42943171865E+03  0.10831457416E+04  0.11819178290E+04  0.16500000000E+03 0.  0.
   -5000001    1    1    2    0    0 -0.10994751535E+03  0.42943171865E+03  0.14455782551E+04  0.15209936058E+04  0.16500000000E+03 0.  0.
<mgrwt>
<rscale>  0 0.95461258E+03</rscale>
<asrwt>0</asrwt>
<pdfrwt beam="1">  1        2 0.37368820E+00 0.95461258E+03</pdfrwt>
<pdfrwt beam="2">  1       -2 0.12441961E-01 0.95461258E+03</pdfrwt>
<totfact> 0.18649077E+02</totfact>
</mgrwt>
</event>
<event>
 4    1  0.5387486E-005  0.5107853E+03  0.7818608E-02  0.1011002E+00
         -2   -1    0    0    0  501 -0.00000000000E+00  0.00000000000E+00  0.28481377992E+02  0.28481378106E+02  0.25500000000E-02 0. -1.
          2   -1    0    0  501    0  0.00000000000E+00 -0.00000000000E+00 -0.22901067548E+04  0.22901067548E+04  0.25500000000E-02 0.  1.
    5000001    1    1    2    0    0 -0.77219163292E+02 -0.71800565000E+02 -0.38656367547E+03  0.43332966147E+03  0.16500000000E+03 0.  0.
   -5000001    1    1    2    0    0  0.77219163292E+02  0.71800565000E+02 -0.18750617013E+04  0.18852584714E+04  0.16500000000E+03 0.  0.
<mgrwt>
<rscale>  0 0.51078526E+03</rscale>
<asrwt>0</asrwt>
<pdfrwt beam="1">  1        2 0.32715799E+00 0.51078526E+03</pdfrwt>
<pdfrwt beam="2">  1       -2 0.40687698E-02 0.51078526E+03</pdfrwt>
<totfact> 0.16775775E+03</totfact>
</mgrwt>
</event>
<event>
 4    1  0.5387486E-005  0.5217154E+03  0.7818608E-02  0.1008261E+00
          2   -1    0    0  501    0  0.00000000000E+00  0.00000000000E+00  0.15755770121E+04  0.15755770121E+04  0.25500000000E-02 0.  1.
         -2   -1    0    0    0  501 -0.00000000000E+00 -0.00000000000E+00 -0.43188457182E+02  0.43188457258E+02  0.25500000000E-02 0. -1.
    5000001    1    1    2    0    0 -0.18139313769E+03 -0.68712203643E+02  0.94162877862E+03  0.97545609540E+03  0.16500000000E+03 0.  0.
   -5000001    1    1    2    0    0  0.18139313769E+03  0.68712203643E+02  0.59075977627E+03  0.64330937393E+03  0.16500000000E+03 0.  0.
<mgrwt>
<rscale>  0 0.52171540E+03</rscale>
<asrwt>0</asrwt>
<pdfrwt beam="1">  1        2 0.22508236E+00 0.52171540E+03</pdfrwt>
<pdfrwt beam="2">  1       -2 0.61697814E-02 0.52171540E+03</pdfrwt>
<totfact> 0.20133169E+03</totfact>
</mgrwt>
</event>
<event>
 4    1  0.5387486E-005  0.7895873E+03  0.7818608E-02  0.9575213E-01
          2   -1    0    0  501    0  0.00000000000E+00  0.00000000000E+00  0.23587955544E+04  0.23587955544E+04  0.25500000000E-02 0.  1.
         -2   -1    0    0    0  501 -0.00000000000E+00 -0.00000000000E+00 -0.66076959752E+02  0.66076959801E+02  0.25500000000E-02 0. -1.
    5000001    1    1    2    0    0  0.12682385505E+03  0.32702703811E+03  0.91641756065E+03  0.99502619027E+03  0.16500000000E+03 0.  0.
   -5000001    1    1    2    0    0 -0.12682385505E+03 -0.32702703811E+03  0.13763010340E+04  0.14298463239E+04  0.16500000000E+03 0.  0.
<mgrwt>
<rscale>  0 0.78958733E+03</rscale>
<asrwt>0</asrwt>
<pdfrwt beam="1">  1        2 0.33697077E+00 0.78958733E+03</pdfrwt>
<pdfrwt beam="2">  1       -2 0.94395663E-02 0.78958733E+03</pdfrwt>
<totfact> 0.40428652E+02</totfact>
</mgrwt>
</event>
<event>
 4    1  0.5387486E-005  0.4125369E+03  0.7818608E-02  0.1039523E+00
         -2   -1    0    0    0  501 -0.00000000000E+00  0.00000000000E+00  0.25680450889E+02  0.25680451015E+02  0.25500000000E-02 0. -1.
          2   -1    0    0  501    0  0.00000000000E+00 -0.00000000000E+00 -0.16567731326E+04  0.16567731326E+04  0.25500000000E-02 0.  1.
    5000001    1    1    2    0    0  0.87630956446E+02  0.86897882788E+02 -0.77658735286E+03  0.80345711969E+03  0.16500000000E+03 0.  0.
   -5000001    1    1    2    0    0 -0.87630956446E+02 -0.86897882788E+02 -0.85450532888E+03  0.87899646396E+03  0.16500000000E+03 0.  0.
<mgrwt>
<rscale>  0 0.41253694E+03</rscale>
<asrwt>0</asrwt>
<pdfrwt beam="1">  1        2 0.23668181E+00 0.41253694E+03</pdfrwt>
<pdfrwt beam="2">  1       -2 0.36686369E-02 0.41253694E+03</pdfrwt>
<totfact> 0.40820040E+03</totfact>
</mgrwt>
</event>
<event>
 4    1  0.5387486E-005  0.4798913E+03  0.7818608E-02  0.1019165E+00
          2   -1    0    0  501    0  0.00000000000E+00  0.00000000000E+00  0.22506517853E+04  0.22506517853E+04  0.25500000000E-02 0. -1.
         -2   -1    0    0    0  501 -0.00000000000E+00 -0.00000000000E+00 -0.25580999296E+02  0.25580999423E+02  0.25500000000E-02 0.  1.
    5000001    1    1    2    0    0  0.13126976697E+03  0.32747102682E+02  0.16330986628E+04  0.16469791640E+04  0.16500000000E+03 0.  0.
   -5000001    1    1    2    0    0 -0.13126976697E+03 -0.32747102682E+02  0.59197212324E+03  0.62925362069E+03  0.16500000000E+03 0.  0.
<mgrwt>
<rscale>  0 0.47989133E+03</rscale>
<asrwt>0</asrwt>
<pdfrwt beam="1">  1        2 0.32152151E+00 0.47989133E+03</pdfrwt>
<pdfrwt beam="2">  1       -2 0.36544304E-02 0.47989133E+03</pdfrwt>
<totfact> 0.20722071E+03</totfact>
</mgrwt>
</event>
<event>
 4    1  0.5387486E-005  0.3604947E+03  0.7818608E-02  0.1058388E+00
          2   -1    0    0  501    0  0.00000000000E+00  0.00000000000E+00  0.47152046571E+03  0.47152046571E+03  0.25500000000E-02 0.  1.
         -2   -1    0    0    0  501 -0.00000000000E+00 -0.00000000000E+00 -0.68902859881E+02  0.68902859928E+02  0.25500000000E-02 0. -1.
    5000001    1    1    2    0    0  0.47174282632E+02 -0.54628481799E+01  0.28353982214E+03  0.33147411119E+03  0.16500000000E+03 0.  0.
   -5000001    1    1    2    0    0 -0.47174282632E+02  0.54628481799E+01  0.11907778369E+03  0.20894921445E+03  0.16500000000E+03 0.  0.
<mgrwt>
<rscale>  0 0.36049471E+03</rscale>
<asrwt>0</asrwt>
<pdfrwt beam="1">  1        2 0.67360067E-01 0.36049471E+03</pdfrwt>
<pdfrwt beam="2">  1       -2 0.98432656E-02 0.36049471E+03</pdfrwt>
<totfact> 0.49405546E+03</totfact>
</mgrwt>
</event>
<event>
 4    1  0.5387486E-005  0.5565490E+03  0.7818608E-02  0.9999894E-01
          2   -1    0    0  501    0  0.00000000000E+00  0.00000000000E+00  0.17716597029E+04  0.17716597029E+04  0.25500000000E-02 0.  1.
         -2   -1    0    0    0  501 -0.00000000000E+00 -0.00000000000E+00 -0.43708562957E+02  0.43708563032E+02  0.25500000000E-02 0. -1.
    5000001    1    1    2    0    0  0.16767794437E+03  0.42797630221E+02  0.39964665280E+03  0.46571448042E+03  0.16500000000E+03 0.  0.
   -5000001    1    1    2    0    0 -0.16767794437E+03 -0.42797630221E+02  0.13283044872E+04  0.13496537856E+04  0.16500000000E+03 0.  0.
<mgrwt>
<rscale>  0 0.55654901E+03</rscale>
<asrwt>0</asrwt>
<pdfrwt beam="1">  1        2 0.25309426E+00 0.55654901E+03</pdfrwt>
<pdfrwt beam="2">  1       -2 0.62440800E-02 0.55654901E+03</pdfrwt>
<totfact> 0.15689866E+03</totfact>
</mgrwt>
</event>
<event>
 4    1  0.5387486E-005  0.6907406E+03  0.7818608E-02  0.9733199E-01
          2   -1    0    0  501    0  0.00000000000E+00  0.00000000000E+00  0.35066538379E+04  0.35066538379E+04  0.25500000000E-02 0. -1.
         -2   -1    0    0    0  501 -0.00000000000E+00 -0.00000000000E+00 -0.34015521392E+02  0.34015521487E+02  0.25500000000E-02 0.  1.
    5000001    1    1    2    0    0 -0.22792913498E+03 -0.14359524246E+03  0.10208126352E+04  0.10685760246E+04  0.16500000000E+03 0.  0.
   -5000001    1    1    2    0    0  0.22792913498E+03  0.14359524246E+03  0.24518256813E+04  0.24720933348E+04  0.16500000000E+03 0.  0.
<mgrwt>
<rscale>  0 0.69074064E+03</rscale>
<asrwt>0</asrwt>
<pdfrwt beam="1">  1        2 0.50095034E+00 0.69074064E+03</pdfrwt>
<pdfrwt beam="2">  1       -2 0.48593623E-02 0.69074064E+03</pdfrwt>
<totfact> 0.27591799E+02</totfact>
</mgrwt>
</event>
<event>
 4    1  0.5387486E-005  0.4536962E+03  0.7818608E-02  0.1026625E+00
          2   -1    0    0  501    0  0.00000000000E+00  0.00000000000E+00  0.38554287208E+04  0.38554287208E+04  0.25500000000E-02 0.  1.
         -2   -1    0    0    0  501 -0.00000000000E+00 -0.00000000000E+00 -0.13347429720E+02  0.13347429963E+02  0.25500000000E-02 0. -1.
    5000001    1    1    2    0    0  0.10157889418E+03 -0.11017475110E+03  0.22806351239E+04  0.22915013235E+04  0.16500000000E+03 0.  0.
   -5000001    1    1    2    0    0 -0.10157889418E+03  0.11017475110E+03  0.15614461672E+04  0.15772748272E+04  0.16500000000E+03 0.  0.
<mgrwt>
<rscale>  0 0.45369622E+03</rscale>
<asrwt>0</asrwt>
<pdfrwt beam="1">  1        2 0.55077523E+00 0.45369622E+03</pdfrwt>
<pdfrwt beam="2">  1       -2 0.19067767E-02 0.45369622E+03</pdfrwt>
<totfact> 0.71869639E+02</totfact>
</mgrwt>
</event>
<event>
 4    1  0.5387486E-005  0.5304559E+03  0.7818608E-02  0.1006122E+00
         -2   -1    0    0    0  501 -0.00000000000E+00  0.00000000000E+00  0.12094113678E+03  0.12094113681E+03  0.25500000000E-02 0. -1.
          2   -1    0    0  501    0  0.00000000000E+00 -0.00000000000E+00 -0.58165367646E+03  0.58165367646E+03  0.25500000000E-02 0.  1.
    5000001    1    1    2    0    0 -0.12644976356E+03 -0.89418362409E+02 -0.41357823004E+03  0.47144155375E+03  0.16500000000E+03 0.  0.
   -5000001    1    1    2    0    0  0.12644976356E+03  0.89418362409E+02 -0.47134309632E+02  0.23115325951E+03  0.16500000000E+03 0.  0.
<mgrwt>
<rscale>  0 0.53045587E+03</rscale>
<asrwt>0</asrwt>
<pdfrwt beam="1">  1        2 0.83093381E-01 0.53045587E+03</pdfrwt>
<pdfrwt beam="2">  1       -2 0.17277306E-01 0.53045587E+03</pdfrwt>
<totfact> 0.15469544E+03</totfact>
</mgrwt>
</event>
<event>
 4    1  0.5387486E-005  0.1058981E+04  0.7818608E-02  0.9246120E-01
         -2   -1    0    0    0  501 -0.00000000000E+00  0.00000000000E+00  0.22075915494E+03  0.22075915496E+03  0.25500000000E-02 0. -1.
          2   -1    0    0  501    0  0.00000000000E+00 -0.00000000000E+00 -0.12699824655E+04  0.12699824655E+04  0.25500000000E-02 0.  1.
    5000001    1    1    2    0    0 -0.37245367379E+03  0.17497140257E+03 -0.93211609490E+03  0.10321831936E+04  0.16500000000E+03 0.  0.
   -5000001    1    1    2    0    0  0.37245367379E+03 -0.17497140257E+03 -0.11710721563E+03  0.45855842681E+03  0.16500000000E+03 0.  0.
<mgrwt>
<rscale>  0 0.10589811E+04</rscale>
<asrwt>0</asrwt>
<pdfrwt beam="1">  1        2 0.18142606E+00 0.10589811E+04</pdfrwt>
<pdfrwt beam="2">  1       -2 0.31537023E-01 0.10589811E+04</pdfrwt>
<totfact> 0.18089838E+02</totfact>
</mgrwt>
</event>
<event>
 4    1  0.5387486E-005  0.5142552E+03  0.7818608E-02  0.1010124E+00
          2   -1    0    0  501    0  0.00000000000E+00  0.00000000000E+00  0.15238240600E+04  0.15238240600E+04  0.25500000000E-02 0.  1.
         -2   -1    0    0    0  501 -0.00000000000E+00 -0.00000000000E+00 -0.43387294267E+02  0.43387294342E+02  0.25500000000E-02 0. -1.
    5000001    1    1    2    0    0 -0.16610460477E+03 -0.23231907806E+02  0.42410877921E+03  0.48499867821E+03  0.16500000000E+03 0.  0.
   -5000001    1    1    2    0    0  0.16610460477E+03  0.23231907806E+02  0.10563279866E+04  0.10822126762E+04  0.16500000000E+03 0.  0.
<mgrwt>
<rscale>  0 0.51425520E+03</rscale>
<asrwt>0</asrwt>
<pdfrwt beam="1">  1        2 0.21768912E+00 0.51425520E+03</pdfrwt>
<pdfrwt beam="2">  1       -2 0.61981858E-02 0.51425520E+03</pdfrwt>
<totfact> 0.21257206E+03</totfact>
</mgrwt>
</event>
<event>
 4    1  0.5387486E-005  0.3852974E+03  0.7818608E-02  0.1048993E+00
          2   -1    0    0  501    0  0.00000000000E+00  0.00000000000E+00  0.24611646088E+03  0.24611646089E+03  0.25500000000E-02 0.  1.
         -2   -1    0    0    0  501 -0.00000000000E+00 -0.00000000000E+00 -0.15079654582E+03  0.15079654584E+03  0.25500000000E-02 0. -1.
    5000001    1    1    2    0    0 -0.11427496548E+01 -0.53807526875E+02 -0.38478811649E+02  0.17777000526E+03  0.16500000000E+03 0.  0.
   -5000001    1    1    2    0    0  0.11427496548E+01  0.53807526875E+02  0.13379872670E+03  0.21914300147E+03  0.16500000000E+03 0.  0.
<mgrwt>
<rscale>  0 0.38529735E+03</rscale>
<asrwt>0</asrwt>
<pdfrwt beam="1">  1        2 0.35159495E-01 0.38529735E+03</pdfrwt>
<pdfrwt beam="2">  1       -2 0.21542364E-01 0.38529735E+03</pdfrwt>
<totfact> 0.27373391E+03</totfact>
</mgrwt>
</event>
<event>
 4    1  0.5387486E-005  0.4214248E+03  0.7818608E-02  0.1036604E+00
         -2   -1    0    0    0  501 -0.00000000000E+00  0.00000000000E+00  0.14740603513E+03  0.14740603515E+03  0.25500000000E-02 0. -1.
          2   -1    0    0  501    0  0.00000000000E+00 -0.00000000000E+00 -0.30120695913E+03  0.30120695915E+03  0.25500000000E-02 0.  1.
    5000001    1    1    2    0    0  0.59877828367E+02 -0.91490089295E+02  0.24126197780E-02  0.19794138217E+03  0.16500000000E+03 0.  0.
   -5000001    1    1    2    0    0 -0.59877828367E+02  0.91490089295E+02 -0.15380333663E+03  0.25067161213E+03  0.16500000000E+03 0.  0.
<mgrwt>
<rscale>  0 0.42142484E+03</rscale>
<asrwt>0</asrwt>
<pdfrwt beam="1">  1        2 0.43029565E-01 0.42142484E+03</pdfrwt>
<pdfrwt beam="2">  1       -2 0.21058005E-01 0.42142484E+03</pdfrwt>
<totfact> 0.22864180E+03</totfact>
</mgrwt>
</event>
<event>
 4    1  0.5387486E-005  0.4603856E+03  0.7818608E-02  0.1024669E+00
          2   -1    0    0  501    0  0.00000000000E+00  0.00000000000E+00  0.62449520489E+02  0.62449520541E+02  0.25500000000E-02 0.  1.
         -2   -1    0    0    0  501 -0.00000000000E+00 -0.00000000000E+00 -0.84850494326E+03  0.84850494326E+03  0.25500000000E-02 0. -1.
    5000001    1    1    2    0    0 -0.43735790019E+02 -0.15428359200E+03 -0.37939338038E+03  0.44371227520E+03  0.16500000000E+03 0.  0.
   -5000001    1    1    2    0    0  0.43735790019E+02  0.15428359200E+03 -0.40666204238E+03  0.46724218860E+03  0.16500000000E+03 0.  0.
<mgrwt>
<rscale>  0 0.46038561E+03</rscale>
<asrwt>0</asrwt>
<pdfrwt beam="1">  1        2 0.89213606E-02 0.46038561E+03</pdfrwt>
<pdfrwt beam="2">  1       -2 0.12121499E+00 0.46038561E+03</pdfrwt>
<totfact> 0.40288461E+02</totfact>
</mgrwt>
</event>
<event>
 4    1  0.5387486E-005  0.6681044E+03  0.7818608E-02  0.9773388E-01
          2   -1    0    0  501    0  0.00000000000E+00  0.00000000000E+00  0.60261301981E+03  0.60261301982E+03  0.25500000000E-02 0.  1.
         -2   -1    0    0    0  501 -0.00000000000E+00 -0.00000000000E+00 -0.18517833708E+03  0.18517833710E+03  0.25500000000E-02 0. -1.
    5000001    1    1    2    0    0  0.24873998841E+03  0.89551330232E+02  0.66852762900E+02  0.31872451190E+03  0.16500000000E+03 0.  0.
   -5000001    1    1    2    0    0 -0.24873998841E+03 -0.89551330232E+02  0.35058191983E+03  0.46906684502E+03  0.16500000000E+03 0.  0.
<mgrwt>
<rscale>  0 0.66810441E+03</rscale>
<asrwt>0</asrwt>
<pdfrwt beam="1">  1        2 0.86087573E-01 0.66810441E+03</pdfrwt>
<pdfrwt beam="2">  1       -2 0.26454048E-01 0.66810441E+03</pdfrwt>
<totfact> 0.70068249E+02</totfact>
</mgrwt>
</event>
<event>
 4    1  0.5387486E-005  0.4011218E+03  0.7818608E-02  0.1043392E+00
         -2   -1    0    0    0  501 -0.00000000000E+00  0.00000000000E+00  0.48213562587E+02  0.48213562654E+02  0.25500000000E-02 0. -1.
          2   -1    0    0  501    0  0.00000000000E+00 -0.00000000000E+00 -0.83430204435E+03  0.83430204436E+03  0.25500000000E-02 0.  1.
    5000001    1    1    2    0    0 -0.47635718004E+02 -0.96930055730E+02 -0.31265476196E+03  0.36965199514E+03  0.16500000000E+03 0.  0.
   -5000001    1    1    2    0    0  0.47635718004E+02  0.96930055730E+02 -0.47343371981E+03  0.51286361187E+03  0.16500000000E+03 0.  0.
<mgrwt>
<rscale>  0 0.40112180E+03</rscale>
<asrwt>0</asrwt>
<pdfrwt beam="1">  1        2 0.11918600E+00 0.40112180E+03</pdfrwt>
<pdfrwt beam="2">  1       -2 0.68876523E-02 0.40112180E+03</pdfrwt>
<totfact> 0.44465384E+03</totfact>
</mgrwt>
</event>
<event>
 4    1  0.5387486E-005  0.1007245E+04  0.7818608E-02  0.9300634E-01
         -2   -1    0    0    0  501 -0.00000000000E+00  0.00000000000E+00  0.16006757428E+03  0.16006757430E+03  0.25500000000E-02 0. -1.
          2   -1    0    0  501    0  0.00000000000E+00 -0.00000000000E+00 -0.15845540663E+04  0.15845540663E+04  0.25500000000E-02 0.  1.
    5000001    1    1    2    0    0  0.18745418341E+03  0.37275649110E+03 -0.31604042274E+03  0.54881055141E+03  0.16500000000E+03 0.  0.
   -5000001    1    1    2    0    0 -0.18745418341E+03 -0.37275649110E+03 -0.11084460693E+04  0.11958110892E+04  0.16500000000E+03 0.  0.
<mgrwt>
<rscale>  0 0.10072452E+04</rscale>
<asrwt>0</asrwt>
<pdfrwt beam="1">  1        2 0.22636486E+00 0.10072452E+04</pdfrwt>
<pdfrwt beam="2">  1       -2 0.22866797E-01 0.10072452E+04</pdfrwt>
<totfact> 0.22128803E+02</totfact>
</mgrwt>
</event>
<event>
 4    1  0.5387486E-005  0.4793651E+03  0.7818608E-02  0.1019310E+00
          2   -1    0    0  501    0  0.00000000000E+00  0.00000000000E+00  0.25059334680E+03  0.25059334681E+03  0.25500000000E-02 0.  1.
         -2   -1    0    0    0  501 -0.00000000000E+00 -0.00000000000E+00 -0.22924682125E+03  0.22924682126E+03  0.25500000000E-02 0. -1.
    5000001    1    1    2    0    0  0.11344767974E+03 -0.13161104571E+03  0.16236179210E+02  0.24016756006E+03  0.16500000000E+03 0.  0.
   -5000001    1    1    2    0    0 -0.11344767974E+03  0.13161104571E+03  0.51103463380E+01  0.23967260801E+03  0.16500000000E+03 0.  0.
<mgrwt>
<rscale>  0 0.47936511E+03</rscale>
<asrwt>0</asrwt>
<pdfrwt beam="1">  1        2 0.35799050E-01 0.47936511E+03</pdfrwt>
<pdfrwt beam="2">  1       -2 0.32749546E-01 0.47936511E+03</pdfrwt>
<totfact> 0.12653336E+03</totfact>
</mgrwt>
</event>
<event>
 4    1  0.5387486E-005  0.6423304E+03  0.7818608E-02  0.9821278E-01
          2   -1    0    0  501    0  0.00000000000E+00  0.00000000000E+00  0.37844920765E+04  0.37844920765E+04  0.25500000000E-02 0.  1.
         -2   -1    0    0    0  501 -0.00000000000E+00 -0.00000000000E+00 -0.27255197871E+02  0.27255197990E+02  0.25500000000E-02 0. -1.
    5000001    1    1    2    0    0 -0.24823492549E+03 -0.11558425228E+03  0.20607314847E+04  0.20853823510E+04  0.16500000000E+03 0.  0.
   -5000001    1    1    2    0    0  0.24823492549E+03  0.11558425228E+03  0.16965053939E+04  0.17263649235E+04  0.16500000000E+03 0.  0.
<mgrwt>
<rscale>  0 0.64233038E+03</rscale>
<asrwt>0</asrwt>
<pdfrwt beam="1">  1        2 0.54064165E+00 0.64233038E+03</pdfrwt>
<pdfrwt beam="2">  1       -2 0.38936002E-02 0.64233038E+03</pdfrwt>
<totfact> 0.26384883E+02</totfact>
</mgrwt>
</event>
<event>
 4    1  0.5387486E-005  0.4292938E+03  0.7818608E-02  0.1034083E+00
          2   -1    0    0  501    0  0.00000000000E+00  0.00000000000E+00  0.29516273705E+03  0.29516273707E+03  0.25500000000E-02 0.  1.
         -2   -1    0    0    0  501 -0.00000000000E+00 -0.00000000000E+00 -0.15609456389E+03  0.15609456391E+03  0.25500000000E-02 0. -1.
    5000001    1    1    2    0    0 -0.83101661776E+02 -0.77358807313E+02  0.15067144091E+03  0.25063350607E+03  0.16500000000E+03 0.  0.
   -5000001    1    1    2    0    0  0.83101661776E+02  0.77358807313E+02 -0.11603267743E+02  0.20062379490E+03  0.16500000000E+03 0.  0.
<mgrwt>
<rscale>  0 0.42929383E+03</rscale>
<asrwt>0</asrwt>
<pdfrwt beam="1">  1        2 0.42166105E-01 0.42929383E+03</pdfrwt>
<pdfrwt beam="2">  1       -2 0.22299224E-01 0.42929383E+03</pdfrwt>
<totfact> 0.21155271E+03</totfact>
</mgrwt>
</event>
<event>
 4    1  0.5387486E-005  0.1313530E+04  0.7818608E-02  0.9018904E-01
         -2   -1    0    0    0  501 -0.00000000000E+00  0.00000000000E+00  0.43051495439E+03  0.43051495440E+03  0.25500000000E-02 0. -1.
          2   -1    0    0  501    0  0.00000000000E+00 -0.00000000000E+00 -0.10019173433E+04  0.10019173433E+04  0.25500000000E-02 0.  1.
    5000001    1    1    2    0    0 -0.54191449969E+03 -0.26382736499E+03 -0.65320964415E+02  0.62830568347E+03  0.16500000000E+03 0.  0.
   -5000001    1    1    2    0    0  0.54191449969E+03  0.26382736499E+03 -0.50608142450E+03  0.80412661423E+03  0.16500000000E+03 0.  0.
<mgrwt>
<rscale>  0 0.13135302E+04</rscale>
<asrwt>0</asrwt>
<pdfrwt beam="1">  1        2 0.14313105E+00 0.13135302E+04</pdfrwt>
<pdfrwt beam="2">  1       -2 0.61502137E-01 0.13135302E+04</pdfrwt>
<totfact> 0.67474729E+01</totfact>
</mgrwt>
</event>
<event>
 4    1  0.5387486E-005  0.7132216E+03  0.7818608E-02  0.9694885E-01
         -2   -1    0    0    0  501 -0.00000000000E+00  0.00000000000E+00  0.32786723651E+03  0.32786723652E+03  0.25500000000E-02 0. -1.
          2   -1    0    0  501    0  0.00000000000E+00 -0.00000000000E+00 -0.38787425694E+03  0.38787425695E+03  0.25500000000E-02 0.  1.
    5000001    1    1    2    0    0 -0.60486963357E+02 -0.24091821195E+03  0.16625330156E+03  0.34141678030E+03  0.16500000000E+03 0.  0.
   -5000001    1    1    2    0    0  0.60486963357E+02  0.24091821195E+03 -0.22626032199E+03  0.37432471318E+03  0.16500000000E+03 0.  0.
<mgrwt>
<rscale>  0 0.71322159E+03</rscale>
<asrwt>0</asrwt>
<pdfrwt beam="1">  1        2 0.55410608E-01 0.71322159E+03</pdfrwt>
<pdfrwt beam="2">  1       -2 0.46838177E-01 0.71322159E+03</pdfrwt>
<totfact> 0.38976238E+02</totfact>
</mgrwt>
</event>
<event>
 4    1  0.5387486E-005  0.3717999E+03  0.7818608E-02  0.1054007E+00
         -2   -1    0    0    0  501 -0.00000000000E+00  0.00000000000E+00  0.54613856036E+02  0.54613856096E+02  0.25500000000E-02 0. -1.
          2   -1    0    0  501    0  0.00000000000E+00 -0.00000000000E+00 -0.63278420538E+03  0.63278420538E+03  0.25500000000E-02 0.  1.
    5000001    1    1    2    0    0 -0.72689054064E+02  0.24929482875E+02 -0.35896560696E+03  0.40247544605E+03  0.16500000000E+03 0.  0.
   -5000001    1    1    2    0    0  0.72689054064E+02 -0.24929482875E+02 -0.21920474239E+03  0.28492261543E+03  0.16500000000E+03 0.  0.
<mgrwt>
<rscale>  0 0.37179987E+03</rscale>
<asrwt>0</asrwt>
<pdfrwt beam="1">  1        2 0.90397739E-01 0.37179987E+03</pdfrwt>
<pdfrwt beam="2">  1       -2 0.78019798E-02 0.37179987E+03</pdfrwt>
<totfact> 0.51160200E+03</totfact>
</mgrwt>
</event>
<event>
 4    1  0.5387486E-005  0.7603173E+03  0.7818608E-02  0.9619302E-01
          2   -1    0    0  501    0  0.00000000000E+00  0.00000000000E+00  0.29431419603E+04  0.29431419603E+04  0.25500000000E-02 0.  1.
         -2   -1    0    0    0  501 -0.00000000000E+00 -0.00000000000E+00 -0.49104184096E+02  0.49104184162E+02  0.25500000000E-02 0. -1.
    5000001    1    1    2    0    0  0.15580867144E+03  0.26924651846E+03  0.20108511462E+04  0.20414498186E+04  0.16500000000E+03 0.  0.
   -5000001    1    1    2    0    0 -0.15580867144E+03 -0.26924651846E+03  0.88318662998E+03  0.95079632581E+03  0.16500000000E+03 0.  0.
<mgrwt>
<rscale>  0 0.76031726E+03</rscale>
<asrwt>0</asrwt>
<pdfrwt beam="1">  1        2 0.42044881E+00 0.76031726E+03</pdfrwt>
<pdfrwt beam="2">  1       -2 0.70148841E-02 0.76031726E+03</pdfrwt>
<totfact> 0.32166173E+02</totfact>
</mgrwt>
</event>
<event>
 4    1  0.5387486E-005  0.6449830E+03  0.7818608E-02  0.9816239E-01
         -2   -1    0    0    0  501 -0.00000000000E+00  0.00000000000E+00  0.77964088036E+02  0.77964088078E+02  0.25500000000E-02 0.  1.
          2   -1    0    0  501    0  0.00000000000E+00 -0.00000000000E+00 -0.13339572810E+04  0.13339572810E+04  0.25500000000E-02 0. -1.
    5000001    1    1    2    0    0 -0.95871702557E+02 -0.25009986887E+03 -0.78332026129E+03  0.84413089003E+03  0.16500000000E+03 0.  0.
   -5000001    1    1    2    0    0  0.95871702557E+02  0.25009986887E+03 -0.47267293169E+03  0.56779047906E+03  0.16500000000E+03 0.  0.
<mgrwt>
<rscale>  0 0.64498299E+03</rscale>
<asrwt>0</asrwt>
<pdfrwt beam="1">  1        2 0.19056531E+00 0.64498299E+03</pdfrwt>
<pdfrwt beam="2">  1       -2 0.11137728E-01 0.64498299E+03</pdfrwt>
<totfact> 0.10451279E+03</totfact>
</mgrwt>
</event>
<event>
 4    1  0.5387486E-005  0.8673303E+03  0.7818608E-02  0.9467368E-01
         -2   -1    0    0    0  501 -0.00000000000E+00  0.00000000000E+00  0.21274313056E+03  0.21274313058E+03  0.25500000000E-02 0. -1.
          2   -1    0    0  501    0  0.00000000000E+00 -0.00000000000E+00 -0.88400246101E+03  0.88400246102E+03  0.25500000000E-02 0.  1.
    5000001    1    1    2    0    0 -0.39643984730E+03 -0.55545771930E+02 -0.36635916533E+03  0.56718067962E+03  0.16500000000E+03 0.  0.
   -5000001    1    1    2    0    0  0.39643984730E+03  0.55545771930E+02 -0.30490016512E+03  0.52956491198E+03  0.16500000000E+03 0.  0.
<mgrwt>
<rscale>  0 0.86733027E+03</rscale>
<asrwt>0</asrwt>
<pdfrwt beam="1">  1        2 0.12628606E+00 0.86733027E+03</pdfrwt>
<pdfrwt beam="2">  1       -2 0.30391876E-01 0.86733027E+03</pdfrwt>
<totfact> 0.33368636E+02</totfact>
</mgrwt>
</event>
<event>
 4    1  0.5387486E-005  0.4041242E+03  0.7818608E-02  0.1042361E+00
         -2   -1    0    0    0  501 -0.00000000000E+00  0.00000000000E+00  0.16116495089E+03  0.16116495091E+03  0.25500000000E-02 0. -1.
          2   -1    0    0  501    0  0.00000000000E+00 -0.00000000000E+00 -0.25333731038E+03  0.25333731039E+03  0.25500000000E-02 0.  1.
    5000001    1    1    2    0    0  0.21127841782E+02 -0.10257872998E+03  0.65674344039E+01  0.19554261105E+03  0.16500000000E+03 0.  0.
   -5000001    1    1    2    0    0 -0.21127841782E+02  0.10257872998E+03 -0.98739793891E+02  0.21895965026E+03  0.16500000000E+03 0.  0.
<mgrwt>
<rscale>  0 0.40412421E+03</rscale>
<asrwt>0</asrwt>
<pdfrwt beam="1">  1        2 0.36191044E-01 0.40412421E+03</pdfrwt>
<pdfrwt beam="2">  1       -2 0.23023564E-01 0.40412421E+03</pdfrwt>
<totfact> 0.23623857E+03</totfact>
</mgrwt>
</event>
<event>
 4    1  0.5387486E-005  0.5115356E+03  0.7818608E-02  0.1010811E+00
          2   -1    0    0  501    0  0.00000000000E+00  0.00000000000E+00  0.44576269145E+03  0.44576269146E+03  0.25500000000E-02 0.  1.
         -2   -1    0    0    0  501 -0.00000000000E+00 -0.00000000000E+00 -0.14675333201E+03  0.14675333204E+03  0.25500000000E-02 0. -1.
    5000001    1    1    2    0    0 -0.13686973103E+01 -0.18973315272E+03  0.95278793449E+02  0.26889327075E+03  0.16500000000E+03 0.  0.
   -5000001    1    1    2    0    0  0.13686973103E+01  0.18973315272E+03  0.20373056599E+03  0.32362275275E+03  0.16500000000E+03 0.  0.
<mgrwt>
<rscale>  0 0.51153557E+03</rscale>
<asrwt>0</asrwt>
<pdfrwt beam="1">  1        2 0.63680384E-01 0.51153557E+03</pdfrwt>
<pdfrwt beam="2">  1       -2 0.20964762E-01 0.51153557E+03</pdfrwt>
<totfact> 0.14994198E+03</totfact>
</mgrwt>
</event>
<event>
 4    1  0.5387486E-005  0.3538401E+03  0.7818608E-02  0.1061050E+00
          2   -1    0    0  501    0  0.00000000000E+00  0.00000000000E+00  0.24953953879E+04  0.24953953879E+04  0.25500000000E-02 0.  1.
         -2   -1    0    0    0  501 -0.00000000000E+00 -0.00000000000E+00 -0.12543381141E+02  0.12543381401E+02  0.25500000000E-02 0. -1.
    5000001    1    1    2    0    0  0.43775310368E+02  0.44950320091E+02  0.13249555781E+04  0.13366634180E+04  0.16500000000E+03 0.  0.
   -5000001    1    1    2    0    0 -0.43775310368E+02 -0.44950320091E+02  0.11578964287E+04  0.11712753513E+04  0.16500000000E+03 0.  0.
<mgrwt>
<rscale>  0 0.35384005E+03</rscale>
<asrwt>0</asrwt>
<pdfrwt beam="1">  1        2 0.35648446E+00 0.35384005E+03</pdfrwt>
<pdfrwt beam="2">  1       -2 0.17919146E-02 0.35384005E+03</pdfrwt>
<totfact> 0.45710713E+03</totfact>
</mgrwt>
</event>
<event>
 4    1  0.5387486E-005  0.4577579E+03  0.7818608E-02  0.1025433E+00
         -2   -1    0    0    0  501 -0.00000000000E+00  0.00000000000E+00  0.23132656310E+03  0.23132656311E+03  0.25500000000E-02 0. -1.
          2   -1    0    0  501    0  0.00000000000E+00 -0.00000000000E+00 -0.22645723103E+03  0.22645723105E+03  0.25500000000E-02 0.  1.
    5000001    1    1    2    0    0 -0.14880501683E+03  0.54513026689E+02  0.92151555954E+01  0.22896401946E+03  0.16500000000E+03 0.  0.
   -5000001    1    1    2    0    0  0.14880501683E+03 -0.54513026689E+02 -0.43458235275E+01  0.22881977470E+03  0.16500000000E+03 0.  0.
<mgrwt>
<rscale>  0 0.45775790E+03</rscale>
<asrwt>0</asrwt>
<pdfrwt beam="1">  1        2 0.32351033E-01 0.45775790E+03</pdfrwt>
<pdfrwt beam="2">  1       -2 0.33046652E-01 0.45775790E+03</pdfrwt>
<totfact> 0.13913771E+03</totfact>
</mgrwt>
</event>
<event>
 4    1  0.5387486E-005  0.1161302E+04  0.7818608E-02  0.9147419E-01
          2   -1    0    0  501    0  0.00000000000E+00  0.00000000000E+00  0.24175584619E+04  0.24175584619E+04  0.25500000000E-02 0.  1.
         -2   -1    0    0    0  501 -0.00000000000E+00 -0.00000000000E+00 -0.13946129008E+03  0.13946129011E+03  0.25500000000E-02 0. -1.
    5000001    1    1    2    0    0 -0.37802011127E+03  0.92278759047E+02  0.20156973960E+04  0.20595328514E+04  0.16500000000E+03 0.  0.
   -5000001    1    1    2    0    0  0.37802011127E+03 -0.92278759047E+02  0.26239977581E+03  0.49748690057E+03  0.16500000000E+03 0.  0.
<mgrwt>
<rscale>  0 0.11613024E+04</rscale>
<asrwt>0</asrwt>
<pdfrwt beam="1">  1        2 0.34536548E+00 0.11613024E+04</pdfrwt>
<pdfrwt beam="2">  1       -2 0.19923043E-01 0.11613024E+04</pdfrwt>
<totfact> 0.10415629E+02</totfact>
</mgrwt>
</event>
<event>
 4    1  0.5387486E-005  0.6957843E+03  0.7818608E-02  0.9724469E-01
         -2   -1    0    0    0  501 -0.00000000000E+00  0.00000000000E+00  0.32889305207E+03  0.32889305208E+03  0.25500000000E-02 0. -1.
          2   -1    0    0  501    0  0.00000000000E+00 -0.00000000000E+00 -0.36798871321E+03  0.36798871322E+03  0.25500000000E-02 0.  1.
    5000001    1    1    2    0    0  0.20038490822E+03 -0.22434048407E+03  0.38172638194E+02  0.34520271514E+03  0.16500000000E+03 0.  0.
   -5000001    1    1    2    0    0 -0.20038490822E+03  0.22434048407E+03 -0.77268299338E+02  0.35167905016E+03  0.16500000000E+03 0.  0.
<mgrwt>
<rscale>  0 0.69578425E+03</rscale>
<asrwt>0</asrwt>
<pdfrwt beam="1">  1        2 0.52569816E-01 0.69578425E+03</pdfrwt>
<pdfrwt beam="2">  1       -2 0.46984722E-01 0.69578425E+03</pdfrwt>
<totfact> 0.41089375E+02</totfact>
</mgrwt>
</event>
<event>
 4    1  0.5387486E-005  0.3754894E+03  0.7818608E-02  0.1052614E+00
          2   -1    0    0  501    0  0.00000000000E+00  0.00000000000E+00  0.40061440326E+03  0.40061440327E+03  0.25500000000E-02 0.  1.
         -2   -1    0    0    0  501 -0.00000000000E+00 -0.00000000000E+00 -0.87985038266E+02  0.87985038303E+02  0.25500000000E-02 0. -1.
    5000001    1    1    2    0    0 -0.27174648654E+02  0.61918713299E+02  0.79876925098E+02  0.19539117623E+03  0.16500000000E+03 0.  0.
   -5000001    1    1    2    0    0  0.27174648654E+02 -0.61918713299E+02  0.23275243989E+03  0.29320826534E+03  0.16500000000E+03 0.  0.
<mgrwt>
<rscale>  0 0.37548941E+03</rscale>
<asrwt>0</asrwt>
<pdfrwt beam="1">  1        2 0.57230630E-01 0.37548941E+03</pdfrwt>
<pdfrwt beam="2">  1       -2 0.12569291E-01 0.37548941E+03</pdfrwt>
<totfact> 0.39853904E+03</totfact>
</mgrwt>
</event>
<event>
 4    1  0.5387486E-005  0.4793050E+03  0.7818608E-02  0.1019326E+00
          2   -1    0    0  501    0  0.00000000000E+00  0.00000000000E+00  0.17582051971E+04  0.17582051971E+04  0.25500000000E-02 0.  1.
         -2   -1    0    0    0  501 -0.00000000000E+00 -0.00000000000E+00 -0.32665883588E+02  0.32665883688E+02  0.25500000000E-02 0. -1.
    5000001    1    1    2    0    0 -0.26247823344E+02  0.11974439807E+03  0.40240960455E+03  0.45186962604E+03  0.16500000000E+03 0.  0.
   -5000001    1    1    2    0    0  0.26247823344E+02 -0.11974439807E+03  0.13231297090E+04  0.13390014548E+04  0.16500000000E+03 0.  0.
<mgrwt>
<rscale>  0 0.47930502E+03</rscale>
<asrwt>0</asrwt>
<pdfrwt beam="1">  1        2 0.25117224E+00 0.47930502E+03</pdfrwt>
<pdfrwt beam="2">  1       -2 0.46665535E-02 0.47930502E+03</pdfrwt>
<totfact> 0.25109315E+03</totfact>
</mgrwt>
</event>
<event>
 4    1  0.5387486E-005  0.6101883E+03  0.7818608E-02  0.9884491E-01
          2   -1    0    0  501    0  0.00000000000E+00  0.00000000000E+00  0.14174105443E+04  0.14174105443E+04  0.25500000000E-02 0.  1.
         -2   -1    0    0    0  501 -0.00000000000E+00 -0.00000000000E+00 -0.65670760708E+02  0.65670760757E+02  0.25500000000E-02 0. -1.
    5000001    1    1    2    0    0 -0.59427951685E+02  0.23120194628E+03  0.44694270507E+03  0.53288723293E+03  0.16500000000E+03 0.  0.
   -5000001    1    1    2    0    0  0.59427951685E+02 -0.23120194628E+03  0.90479707857E+03  0.95019407217E+03  0.16500000000E+03 0.  0.
<mgrwt>
<rscale>  0 0.61018826E+03</rscale>
<asrwt>0</asrwt>
<pdfrwt beam="1">  1        2 0.20248722E+00 0.61018826E+03</pdfrwt>
<pdfrwt beam="2">  1       -2 0.93815374E-02 0.61018826E+03</pdfrwt>
<totfact> 0.12479501E+03</totfact>
</mgrwt>
</event>
<event>
 4    1  0.5387486E-005  0.3922049E+03  0.7818608E-02  0.1046513E+00
         -2   -1    0    0    0  501 -0.00000000000E+00  0.00000000000E+00  0.38096542629E+02  0.38096542715E+02  0.25500000000E-02 0. -1.
          2   -1    0    0  501    0  0.00000000000E+00 -0.00000000000E+00 -0.10094401369E+04  0.10094401369E+04  0.25500000000E-02 0.  1.
    5000001    1    1    2    0    0 -0.74481549699E+02  0.75374587564E+02 -0.48157778373E+03  0.51997210644E+03  0.16500000000E+03 0.  0.
   -5000001    1    1    2    0    0  0.74481549699E+02 -0.75374587564E+02 -0.48976581055E+03  0.52756457318E+03  0.16500000000E+03 0.  0.
<mgrwt>
<rscale>  0 0.39220494E+03</rscale>
<asrwt>0</asrwt>
<pdfrwt beam="1">  1        2 0.14420572E+00 0.39220494E+03</pdfrwt>
<pdfrwt beam="2">  1       -2 0.54423639E-02 0.39220494E+03</pdfrwt>
<totfact> 0.49730435E+03</totfact>
</mgrwt>
</event>
<event>
 4    1  0.5387486E-005  0.1365513E+04  0.7818608E-02  0.8979167E-01
          2   -1    0    0  501    0  0.00000000000E+00  0.00000000000E+00  0.17272495404E+04  0.17272495404E+04  0.25500000000E-02 0.  1.
         -2   -1    0    0    0  501 -0.00000000000E+00 -0.00000000000E+00 -0.26988375970E+03  0.26988375971E+03  0.25500000000E-02 0. -1.
    5000001    1    1    2    0    0  0.41074232111E+03 -0.40879688343E+03  0.25905252514E+03  0.65586382506E+03  0.16500000000E+03 0.  0.
   -5000001    1    1    2    0    0 -0.41074232111E+03  0.40879688343E+03  0.11983132556E+04  0.13412694751E+04  0.16500000000E+03 0.  0.
<mgrwt>
<rscale>  0 0.13655132E+04</rscale>
<asrwt>0</asrwt>
<pdfrwt beam="1">  1        2 0.24674993E+00 0.13655132E+04</pdfrwt>
<pdfrwt beam="2">  1       -2 0.38554824E-01 0.13655132E+04</pdfrwt>
<totfact> 0.68867835E+01</totfact>
</mgrwt>
</event>
<event>
 4    1  0.5387486E-005  0.4552133E+03  0.7818608E-02  0.1026179E+00
          2   -1    0    0  501    0  0.00000000000E+00  0.00000000000E+00  0.80861872190E+03  0.80861872191E+03  0.25500000000E-02 0.  1.
         -2   -1    0    0    0  501 -0.00000000000E+00 -0.00000000000E+00 -0.64065773340E+02  0.64065773391E+02  0.25500000000E-02 0. -1.
    5000001    1    1    2    0    0 -0.82818546582E+02  0.10093438218E+03  0.20588546736E+03  0.29438153276E+03  0.16500000000E+03 0.  0.
   -5000001    1    1    2    0    0  0.82818546582E+02 -0.10093438218E+03  0.53866748121E+03  0.57830296253E+03  0.16500000000E+03 0.  0.
<mgrwt>
<rscale>  0 0.45521329E+03</rscale>
<asrwt>0</asrwt>
<pdfrwt beam="1">  1        2 0.11551695E+00 0.45521329E+03</pdfrwt>
<pdfrwt beam="2">  1       -2 0.91522539E-02 0.45521329E+03</pdfrwt>
<totfact> 0.29567096E+03</totfact>
</mgrwt>
</event>
<event>
 4    1  0.5387486E-005  0.4179580E+03  0.7818608E-02  0.1037733E+00
          2   -1    0    0  501    0  0.00000000000E+00  0.00000000000E+00  0.53978407230E+03  0.53978407231E+03  0.25500000000E-02 0.  1.
         -2   -1    0    0    0  501 -0.00000000000E+00 -0.00000000000E+00 -0.80906852758E+02  0.80906852798E+02  0.25500000000E-02 0. -1.
    5000001    1    1    2    0    0  0.80275445833E+02  0.96034983681E+02  0.18795355627E+03  0.27967553452E+03  0.16500000000E+03 0.  0.
   -5000001    1    1    2    0    0 -0.80275445833E+02 -0.96034983681E+02  0.27092366327E+03  0.34101539058E+03  0.16500000000E+03 0.  0.
<mgrwt>
<rscale>  0 0.41795804E+03</rscale>
<asrwt>0</asrwt>
<pdfrwt beam="1">  1        2 0.77112008E-01 0.41795804E+03</pdfrwt>
<pdfrwt beam="2">  1       -2 0.11558122E-01 0.41795804E+03</pdfrwt>
<totfact> 0.32859290E+03</totfact>
</mgrwt>
</event>
<event>
 4    1  0.5387486E-005  0.6279445E+03  0.7818608E-02  0.9849068E-01
         -2   -1    0    0    0  501 -0.00000000000E+00  0.00000000000E+00  0.62641717463E+02  0.62641717515E+02  0.25500000000E-02 0. -1.
          2   -1    0    0  501    0  0.00000000000E+00 -0.00000000000E+00 -0.15736886645E+04  0.15736886645E+04  0.25500000000E-02 0.  1.
    5000001    1    1    2    0    0 -0.18961599362E+03 -0.18006403557E+03 -0.61336047756E+03  0.68688671364E+03  0.16500000000E+03 0.  0.
   -5000001    1    1    2    0    0  0.18961599362E+03  0.18006403557E+03 -0.89768646950E+03  0.94944366840E+03  0.16500000000E+03 0.  0.
<mgrwt>
<rscale>  0 0.62794446E+03</rscale>
<asrwt>0</asrwt>
<pdfrwt beam="1">  1        2 0.22481264E+00 0.62794446E+03</pdfrwt>
<pdfrwt beam="2">  1       -2 0.89488178E-02 0.62794446E+03</pdfrwt>
<totfact> 0.11150384E+03</totfact>
</mgrwt>
</event>
<event>
 4    1  0.5387486E-005  0.4414717E+03  0.7818608E-02  0.1030296E+00
          2   -1    0    0  501    0  0.00000000000E+00  0.00000000000E+00  0.17947926606E+04  0.17947926606E+04  0.25500000000E-02 0.  1.
         -2   -1    0    0    0  501 -0.00000000000E+00 -0.00000000000E+00 -0.27147603228E+02  0.27147603348E+02  0.25500000000E-02 0. -1.
    5000001    1    1    2    0    0 -0.37836791556E+02  0.11557105854E+03  0.12219073975E+04  0.12389798143E+04  0.16500000000E+03 0.  0.
   -5000001    1    1    2    0    0  0.37836791556E+02 -0.11557105854E+03  0.54573765991E+03  0.58296044962E+03  0.16500000000E+03 0.  0.
<mgrwt>
<rscale>  0 0.44147172E+03</rscale>
<asrwt>0</asrwt>
<pdfrwt beam="1">  1        2 0.25639902E+00 0.44147172E+03</pdfrwt>
<pdfrwt beam="2">  1       -2 0.38782280E-02 0.44147172E+03</pdfrwt>
<totfact> 0.31980234E+03</totfact>
</mgrwt>
</event>
<event>
 4    1  0.5387486E-005  0.4582139E+03  0.7818608E-02  0.1025301E+00
          2   -1    0    0  501    0  0.00000000000E+00  0.00000000000E+00  0.29156230290E+04  0.29156230290E+04  0.25500000000E-02 0.  1.
         -2   -1    0    0    0  501 -0.00000000000E+00 -0.00000000000E+00 -0.18003012449E+02  0.18003012629E+02  0.25500000000E-02 0. -1.
    5000001    1    1    2    0    0 -0.15017328571E+03 -0.50430042994E+02  0.13653849845E+04  0.13844119188E+04  0.16500000000E+03 0.  0.
   -5000001    1    1    2    0    0  0.15017328571E+03  0.50430042994E+02  0.15322350320E+04  0.15492141228E+04  0.16500000000E+03 0.  0.
<mgrwt>
<rscale>  0 0.45821391E+03</rscale>
<asrwt>0</asrwt>
<pdfrwt beam="1">  1        2 0.41651763E+00 0.45821391E+03</pdfrwt>
<pdfrwt beam="2">  1       -2 0.25718586E-02 0.45821391E+03</pdfrwt>
<totfact> 0.16066994E+03</totfact>
</mgrwt>
</event>
<event>
 4    1  0.5387486E-005  0.4321309E+03  0.7818608E-02  0.1033189E+00
          2   -1    0    0  501    0  0.00000000000E+00  0.00000000000E+00  0.73285857498E+03  0.73285857499E+03  0.25500000000E-02 0.  1.
         -2   -1    0    0    0  501 -0.00000000000E+00 -0.00000000000E+00 -0.63701619904E+02  0.63701619955E+02  0.25500000000E-02 0. -1.
    5000001    1    1    2    0    0 -0.10993259305E+03  0.60413341769E+02  0.44707198202E+03  0.49278119281E+03  0.16500000000E+03 0.  0.
   -5000001    1    1    2    0    0  0.10993259305E+03 -0.60413341769E+02  0.22208497306E+03  0.30377900213E+03  0.16500000000E+03 0.  0.
<mgrwt>
<rscale>  0 0.43213090E+03</rscale>
<asrwt>0</asrwt>
<pdfrwt beam="1">  1        2 0.10469408E+00 0.43213090E+03</pdfrwt>
<pdfrwt beam="2">  1       -2 0.91002313E-02 0.43213090E+03</pdfrwt>
<totfact> 0.33715025E+03</totfact>
</mgrwt>
</event>
<event>
 4    1  0.5387486E-005  0.1190568E+04  0.7818608E-02  0.9121153E-01
         -2   -1    0    0    0  501 -0.00000000000E+00  0.00000000000E+00  0.24078269608E+03  0.24078269610E+03  0.25500000000E-02 0. -1.
          2   -1    0    0  501    0  0.00000000000E+00 -0.00000000000E+00 -0.14717133184E+04  0.14717133184E+04  0.25500000000E-02 0.  1.
    5000001    1    1    2    0    0  0.48893893676E+03  0.34045568288E+02 -0.19140319117E+03  0.55143500631E+03  0.16500000000E+03 0.  0.
   -5000001    1    1    2    0    0 -0.48893893676E+03 -0.34045568288E+02 -0.10395274311E+04  0.11610610081E+04  0.16500000000E+03 0.  0.
<mgrwt>
<rscale>  0 0.11905681E+04</rscale>
<asrwt>0</asrwt>
<pdfrwt beam="1">  1        2 0.21024476E+00 0.11905681E+04</pdfrwt>
<pdfrwt beam="2">  1       -2 0.34397529E-01 0.11905681E+04</pdfrwt>
<totfact> 0.11823626E+02</totfact>
</mgrwt>
</event>
<event>
 4    1  0.5387486E-005  0.3379831E+03  0.7818608E-02  0.1067658E+00
          2   -1    0    0  501    0  0.00000000000E+00  0.00000000000E+00  0.12763002960E+04  0.12763002960E+04  0.25500000000E-02 0.  1.
         -2   -1    0    0    0  501 -0.00000000000E+00 -0.00000000000E+00 -0.22375722216E+02  0.22375722361E+02  0.25500000000E-02 0. -1.
    5000001    1    1    2    0    0 -0.18332934412E+02  0.39105656368E+01  0.74735681552E+03  0.76558382866E+03  0.16500000000E+03 0.  0.
   -5000001    1    1    2    0    0  0.18332934412E+02 -0.39105656368E+01  0.50656775829E+03  0.53309218973E+03  0.16500000000E+03 0.  0.
<mgrwt>
<rscale>  0 0.33798308E+03</rscale>
<asrwt>0</asrwt>
<pdfrwt beam="1">  1        2 0.18232871E+00 0.33798308E+03</pdfrwt>
<pdfrwt beam="2">  1       -2 0.31965301E-02 0.33798308E+03</pdfrwt>
<totfact> 0.78840466E+03</totfact>
</mgrwt>
</event>
<event>
 4    1  0.5387486E-005  0.3602810E+03  0.7818608E-02  0.1058473E+00
          2   -1    0    0  501    0  0.00000000000E+00  0.00000000000E+00  0.53428941274E+03  0.53428941275E+03  0.25500000000E-02 0.  1.
         -2   -1    0    0    0  501 -0.00000000000E+00 -0.00000000000E+00 -0.60735985610E+02  0.60735985663E+02  0.25500000000E-02 0. -1.
    5000001    1    1    2    0    0 -0.65165885849E+02  0.15950846461E+02  0.19232024801E+03  0.26213183701E+03  0.16500000000E+03 0.  0.
   -5000001    1    1    2    0    0  0.65165885849E+02 -0.15950846461E+02  0.28123317912E+03  0.33289356140E+03  0.16500000000E+03 0.  0.
<mgrwt>
<rscale>  0 0.36028097E+03</rscale>
<asrwt>0</asrwt>
<pdfrwt beam="1">  1        2 0.76327056E-01 0.36028097E+03</pdfrwt>
<pdfrwt beam="2">  1       -2 0.86765697E-02 0.36028097E+03</pdfrwt>
<totfact> 0.52506832E+03</totfact>
</mgrwt>
</event>
<event>
 4    1  0.5387486E-005  0.3873024E+03  0.7818608E-02  0.1048267E+00
          2   -1    0    0  501    0  0.00000000000E+00  0.00000000000E+00  0.60434701448E+03  0.60434701449E+03  0.25500000000E-02 0.  1.
         -2   -1    0    0    0  501 -0.00000000000E+00 -0.00000000000E+00 -0.62051748947E+02  0.62051748999E+02  0.25500000000E-02 0. -1.
    5000001    1    1    2    0    0  0.52581823603E+02 -0.86178514677E+02  0.28693654027E+03  0.34604791967E+03  0.16500000000E+03 0.  0.
   -5000001    1    1    2    0    0 -0.52581823603E+02  0.86178514677E+02  0.25535872526E+03  0.32035084381E+03  0.16500000000E+03 0.  0.
<mgrwt>
<rscale>  0 0.38730241E+03</rscale>
<asrwt>0</asrwt>
<pdfrwt beam="1">  1        2 0.86335288E-01 0.38730241E+03</pdfrwt>
<pdfrwt beam="2">  1       -2 0.88645355E-02 0.38730241E+03</pdfrwt>
<totfact> 0.44150567E+03</totfact>
</mgrwt>
</event>
<event>
 4    1  0.5387486E-005  0.5733081E+03  0.7818608E-02  0.9962385E-01
         -2   -1    0    0    0  501 -0.00000000000E+00  0.00000000000E+00  0.69214004390E+02  0.69214004437E+02  0.25500000000E-02 0. -1.
          2   -1    0    0  501    0  0.00000000000E+00 -0.00000000000E+00 -0.11871953297E+04  0.11871953297E+04  0.25500000000E-02 0.  1.
    5000001    1    1    2    0    0  0.15457447058E+03  0.13282105779E+03 -0.30520264653E+03  0.40237837392E+03  0.16500000000E+03 0.  0.
   -5000001    1    1    2    0    0 -0.15457447058E+03 -0.13282105779E+03 -0.81277867879E+03  0.85403096023E+03  0.16500000000E+03 0.  0.
<mgrwt>
<rscale>  0 0.57330809E+03</rscale>
<asrwt>0</asrwt>
<pdfrwt beam="1">  1        2 0.16959932E+00 0.57330809E+03</pdfrwt>
<pdfrwt beam="2">  1       -2 0.98877156E-02 0.57330809E+03</pdfrwt>
<totfact> 0.15312131E+03</totfact>
</mgrwt>
</event>
<event>
 4    1  0.5387486E-005  0.4176546E+03  0.7818608E-02  0.1037832E+00
         -2   -1    0    0    0  501 -0.00000000000E+00  0.00000000000E+00  0.59923121971E+02  0.59923122025E+02  0.25500000000E-02 0. -1.
          2   -1    0    0  501    0  0.00000000000E+00 -0.00000000000E+00 -0.72774643903E+03  0.72774643904E+03  0.25500000000E-02 0.  1.
    5000001    1    1    2    0    0 -0.36284836335E+02  0.57567884944E+02 -0.12945340500E+03  0.22048545256E+03  0.16500000000E+03 0.  0.
   -5000001    1    1    2    0    0  0.36284836335E+02 -0.57567884944E+02 -0.53836991206E+03  0.56718410850E+03  0.16500000000E+03 0.  0.
<mgrwt>
<rscale>  0 0.41765459E+03</rscale>
<asrwt>0</asrwt>
<pdfrwt beam="1">  1        2 0.10396377E+00 0.41765459E+03</pdfrwt>
<pdfrwt beam="2">  1       -2 0.85604464E-02 0.41765459E+03</pdfrwt>
<totfact> 0.37466107E+03</totfact>
</mgrwt>
</event>
<event>
 4    1  0.5387486E-005  0.4268080E+03  0.7818608E-02  0.1034873E+00
         -2   -1    0    0    0  501 -0.00000000000E+00  0.00000000000E+00  0.22543674856E+02  0.22543675001E+02  0.25500000000E-02 0. -1.
          2   -1    0    0  501    0  0.00000000000E+00 -0.00000000000E+00 -0.20201350238E+04  0.20201350238E+04  0.25500000000E-02 0.  1.
    5000001    1    1    2    0    0  0.11337247910E+03 -0.73864198946E+02 -0.98610761015E+03  0.10089313444E+04  0.16500000000E+03 0.  0.
   -5000001    1    1    2    0    0 -0.11337247910E+03  0.73864198946E+02 -0.10114837388E+04  0.10337473544E+04  0.16500000000E+03 0.  0.
<mgrwt>
<rscale>  0 0.42680800E+03</rscale>
<asrwt>0</asrwt>
<pdfrwt beam="1">  1        2 0.28859060E+00 0.42680800E+03</pdfrwt>
<pdfrwt beam="2">  1       -2 0.32205263E-02 0.42680800E+03</pdfrwt>
<totfact> 0.32765267E+03</totfact>
</mgrwt>
</event>
<event>
 4    1  0.5387486E-005  0.5988791E+03  0.7818608E-02  0.9907734E-01
          2   -1    0    0  501    0  0.00000000000E+00  0.00000000000E+00  0.21626099823E+04  0.21626099823E+04  0.25500000000E-02 0.  1.
         -2   -1    0    0    0  501 -0.00000000000E+00 -0.00000000000E+00 -0.41461032142E+02  0.41461032220E+02  0.25500000000E-02 0. -1.
    5000001    1    1    2    0    0  0.17330733878E+03  0.15343599204E+03  0.14070143840E+04  0.14354415746E+04  0.16500000000E+03 0.  0.
   -5000001    1    1    2    0    0 -0.17330733878E+03 -0.15343599204E+03  0.71413456623E+03  0.76862943998E+03  0.16500000000E+03 0.  0.
<mgrwt>
<rscale>  0 0.59887909E+03</rscale>
<asrwt>0</asrwt>
<pdfrwt beam="1">  1        2 0.30894423E+00 0.59887909E+03</pdfrwt>
<pdfrwt beam="2">  1       -2 0.59230055E-02 0.59887909E+03</pdfrwt>
<totfact> 0.10818816E+03</totfact>
</mgrwt>
</event>
<event>
 4    1  0.5387486E-005  0.6554143E+03  0.7818608E-02  0.9796672E-01
         -2   -1    0    0    0  501 -0.00000000000E+00  0.00000000000E+00  0.18350502425E+03  0.18350502426E+03  0.25500000000E-02 0. -1.
          2   -1    0    0  501    0  0.00000000000E+00 -0.00000000000E+00 -0.58522643809E+03  0.58522643810E+03  0.25500000000E-02 0.  1.
    5000001    1    1    2    0    0 -0.22219150957E+03 -0.12098319466E+03 -0.51755533722E+02  0.30644679079E+03  0.16500000000E+03 0.  0.
   -5000001    1    1    2    0    0  0.22219150957E+03  0.12098319466E+03 -0.34996588012E+03  0.46228467157E+03  0.16500000000E+03 0.  0.
<mgrwt>
<rscale>  0 0.65541435E+03</rscale>
<asrwt>0</asrwt>
<pdfrwt beam="1">  1        2 0.83603776E-01 0.65541435E+03</pdfrwt>
<pdfrwt beam="2">  1       -2 0.26215004E-01 0.65541435E+03</pdfrwt>
<totfact> 0.73749098E+02</totfact>
</mgrwt>
</event>
<event>
 4    1  0.5387486E-005  0.8056799E+03  0.7818608E-02  0.9551832E-01
          2   -1    0    0  501    0  0.00000000000E+00  0.00000000000E+00  0.39315474360E+03  0.39315474361E+03  0.25500000000E-02 0.  1.
         -2   -1    0    0    0  501 -0.00000000000E+00 -0.00000000000E+00 -0.41276371778E+03  0.41276371778E+03  0.25500000000E-02 0. -1.
    5000001    1    1    2    0    0  0.31047231092E+03 -0.18160511123E+03 -0.85202808542E+02  0.40479376336E+03  0.16500000000E+03 0.  0.
   -5000001    1    1    2    0    0 -0.31047231092E+03  0.18160511123E+03  0.65593834369E+02  0.40112469804E+03  0.16500000000E+03 0.  0.
<mgrwt>
<rscale>  0 0.80567987E+03</rscale>
<asrwt>0</asrwt>
<pdfrwt beam="1">  1        2 0.56164964E-01 0.80567987E+03</pdfrwt>
<pdfrwt beam="2">  1       -2 0.58966245E-01 0.80567987E+03</pdfrwt>
<totfact> 0.23851979E+02</totfact>
</mgrwt>
</event>
<event>
 4    1  0.5387486E-005  0.5828197E+03  0.7818608E-02  0.9941705E-01
         -2   -1    0    0    0  501 -0.00000000000E+00  0.00000000000E+00  0.77285470301E+02  0.77285470343E+02  0.25500000000E-02 0. -1.
          2   -1    0    0  501    0  0.00000000000E+00 -0.00000000000E+00 -0.10987797000E+04  0.10987797000E+04  0.25500000000E-02 0.  1.
    5000001    1    1    2    0    0 -0.18774391394E+03  0.14939124753E+03 -0.53368224675E+03  0.60795333913E+03  0.16500000000E+03 0.  0.
   -5000001    1    1    2    0    0  0.18774391394E+03 -0.14939124753E+03 -0.48781198294E+03  0.56811183121E+03  0.16500000000E+03 0.  0.
<mgrwt>
<rscale>  0 0.58281972E+03</rscale>
<asrwt>0</asrwt>
<pdfrwt beam="1">  1        2 0.15696852E+00 0.58281972E+03</pdfrwt>
<pdfrwt beam="2">  1       -2 0.11040782E-01 0.58281972E+03</pdfrwt>
<totfact> 0.14374784E+03</totfact>
</mgrwt>
</event>
<event>
 4    1  0.5387486E-005  0.6137045E+03  0.7818608E-02  0.9877375E-01
         -2   -1    0    0    0  501 -0.00000000000E+00  0.00000000000E+00  0.25024393111E+03  0.25024393112E+03  0.25500000000E-02 0. -1.
          2   -1    0    0  501    0  0.00000000000E+00 -0.00000000000E+00 -0.37626602961E+03  0.37626602962E+03  0.25500000000E-02 0.  1.
    5000001    1    1    2    0    0 -0.58201885121E+02 -0.25153063888E+03 -0.80037448376E+02  0.31667983023E+03  0.16500000000E+03 0.  0.
   -5000001    1    1    2    0    0  0.58201885121E+02  0.25153063888E+03 -0.45984650123E+02  0.30983013052E+03  0.16500000000E+03 0.  0.
<mgrwt>
<rscale>  0 0.61370446E+03</rscale>
<asrwt>0</asrwt>
<pdfrwt beam="1">  1        2 0.53752290E-01 0.61370446E+03</pdfrwt>
<pdfrwt beam="2">  1       -2 0.35749133E-01 0.61370446E+03</pdfrwt>
<totfact> 0.68483888E+02</totfact>
</mgrwt>
</event>
<event>
 4    1  0.5387486E-005  0.5226228E+03  0.7818608E-02  0.1008037E+00
          2   -1    0    0  501    0  0.00000000000E+00  0.00000000000E+00  0.48330345450E+03  0.48330345451E+03  0.25500000000E-02 0.  1.
         -2   -1    0    0    0  501 -0.00000000000E+00 -0.00000000000E+00 -0.14128522275E+03  0.14128522277E+03  0.25500000000E-02 0. -1.
    5000001    1    1    2    0    0 -0.16452786007E+03 -0.10772524444E+03  0.11265067865E+03  0.28033786835E+03  0.16500000000E+03 0.  0.
   -5000001    1    1    2    0    0  0.16452786007E+03  0.10772524444E+03  0.22936755310E+03  0.34425080893E+03  0.16500000000E+03 0.  0.
<mgrwt>
<rscale>  0 0.52262276E+03</rscale>
<asrwt>0</asrwt>
<pdfrwt beam="1">  1        2 0.69043350E-01 0.52262276E+03</pdfrwt>
<pdfrwt beam="2">  1       -2 0.20183603E-01 0.52262276E+03</pdfrwt>
<totfact> 0.14631620E+03</totfact>
</mgrwt>
</event>
<event>
 4    1  0.5387486E-005  0.5321575E+03  0.7818608E-02  0.1005710E+00
          2   -1    0    0  501    0  0.00000000000E+00  0.00000000000E+00  0.17967098834E+04  0.17967098834E+04  0.25500000000E-02 0.  1.
         -2   -1    0    0    0  501 -0.00000000000E+00 -0.00000000000E+00 -0.39404194949E+02  0.39404195031E+02  0.25500000000E-02 0. -1.
    5000001    1    1    2    0    0  0.11070656128E+03  0.17115048882E+03  0.10338971088E+04  0.10666380193E+04  0.16500000000E+03 0.  0.
   -5000001    1    1    2    0    0 -0.11070656128E+03 -0.17115048882E+03  0.72340857958E+03  0.76947605911E+03  0.16500000000E+03 0.  0.
<mgrwt>
<rscale>  0 0.53215752E+03</rscale>
<asrwt>0</asrwt>
<pdfrwt beam="1">  1        2 0.25667289E+00 0.53215752E+03</pdfrwt>
<pdfrwt beam="2">  1       -2 0.56291697E-02 0.53215752E+03</pdfrwt>
<totfact> 0.17935822E+03</totfact>
</mgrwt>
</event>
<event>
 4    1  0.5387486E-005  0.9475388E+03  0.7818608E-02  0.9368032E-01
          2   -1    0    0  501    0  0.00000000000E+00  0.00000000000E+00  0.70360050893E+03  0.70360050893E+03  0.25500000000E-02 0.  1.
         -2   -1    0    0    0  501 -0.00000000000E+00 -0.00000000000E+00 -0.31901260815E+03  0.31901260816E+03  0.25500000000E-02 0. -1.
    5000001    1    1    2    0    0  0.20148937681E+03 -0.24515962984E+03 -0.14301740836E+03  0.38520149554E+03  0.16500000000E+03 0.  0.
   -5000001    1    1    2    0    0 -0.20148937681E+03  0.24515962984E+03  0.52760530913E+03  0.63741162156E+03  0.16500000000E+03 0.  0.
<mgrwt>
<rscale>  0 0.94753878E+03</rscale>
<asrwt>0</asrwt>
<pdfrwt beam="1">  1        2 0.10051436E+00 0.94753878E+03</pdfrwt>
<pdfrwt beam="2">  1       -2 0.45573229E-01 0.94753878E+03</pdfrwt>
<totfact> 0.20422699E+02</totfact>
</mgrwt>
</event>
<event>
 4    1  0.5387486E-005  0.5700798E+03  0.7818608E-02  0.9969502E-01
         -2   -1    0    0    0  501 -0.00000000000E+00  0.00000000000E+00  0.39261713013E+02  0.39261713096E+02  0.25500000000E-02 0. -1.
          2   -1    0    0  501    0  0.00000000000E+00 -0.00000000000E+00 -0.20693884065E+04  0.20693884065E+04  0.25500000000E-02 0.  1.
    5000001    1    1    2    0    0  0.13652719190E+03  0.12861174839E+03 -0.15227938997E+04  0.15431483781E+04  0.16500000000E+03 0.  0.
   -5000001    1    1    2    0    0 -0.13652719190E+03 -0.12861174839E+03 -0.50733279375E+03  0.56550174144E+03  0.16500000000E+03 0.  0.
<mgrwt>
<rscale>  0 0.57007976E+03</rscale>
<asrwt>0</asrwt>
<pdfrwt beam="1">  1        2 0.29562685E+00 0.57007976E+03</pdfrwt>
<pdfrwt beam="2">  1       -2 0.56088175E-02 0.57007976E+03</pdfrwt>
<totfact> 0.13142620E+03</totfact>
</mgrwt>
</event>
<event>
 4    1  0.5387486E-005  0.7000613E+03  0.7818608E-02  0.9717127E-01
         -2   -1    0    0    0  501 -0.00000000000E+00  0.00000000000E+00  0.13071796116E+03  0.13071796118E+03  0.25500000000E-02 0. -1.
          2   -1    0    0  501    0  0.00000000000E+00 -0.00000000000E+00 -0.93729617420E+03  0.93729617420E+03  0.25500000000E-02 0.  1.
    5000001    1    1    2    0    0 -0.28137559202E+03  0.20884510725E+02 -0.21220456795E+03  0.38969753044E+03  0.16500000000E+03 0.  0.
   -5000001    1    1    2    0    0  0.28137559202E+03 -0.20884510725E+02 -0.59437364509E+03  0.67831660495E+03  0.16500000000E+03 0.  0.
<mgrwt>
<rscale>  0 0.70006127E+03</rscale>
<asrwt>0</asrwt>
<pdfrwt beam="1">  1        2 0.13389945E+00 0.70006127E+03</pdfrwt>
<pdfrwt beam="2">  1       -2 0.18673995E-01 0.70006127E+03</pdfrwt>
<totfact> 0.74281065E+02</totfact>
</mgrwt>
</event>
<event>
 4    1  0.5387486E-005  0.4419137E+03  0.7818608E-02  0.1030161E+00
          2   -1    0    0  501    0  0.00000000000E+00  0.00000000000E+00  0.17460377081E+04  0.17460377081E+04  0.25500000000E-02 0.  1.
         -2   -1    0    0    0  501 -0.00000000000E+00 -0.00000000000E+00 -0.27961556688E+02  0.27961556805E+02  0.25500000000E-02 0. -1.
    5000001    1    1    2    0    0  0.74700619520E+02  0.12437272792E+03  0.76504943838E+03  0.79597386965E+03  0.16500000000E+03 0.  0.
   -5000001    1    1    2    0    0 -0.74700619520E+02 -0.12437272792E+03  0.95302671303E+03  0.97802539525E+03  0.16500000000E+03 0.  0.
<mgrwt>
<rscale>  0 0.44191371E+03</rscale>
<asrwt>0</asrwt>
<pdfrwt beam="1">  1        2 0.24943395E+00 0.44191371E+03</pdfrwt>
<pdfrwt beam="2">  1       -2 0.39945082E-02 0.44191371E+03</pdfrwt>
<totfact> 0.32338331E+03</totfact>
</mgrwt>
</event>
<event>
 4    1  0.5387486E-005  0.6239454E+03  0.7818608E-02  0.9856936E-01
         -2   -1    0    0    0  501 -0.00000000000E+00  0.00000000000E+00  0.72722683950E+02  0.72722683995E+02  0.25500000000E-02 0. -1.
          2   -1    0    0  501    0  0.00000000000E+00 -0.00000000000E+00 -0.13383303561E+04  0.13383303561E+04  0.25500000000E-02 0.  1.
    5000001    1    1    2    0    0  0.14303825905E+03  0.20218304485E+03 -0.84451760916E+03  0.89541773456E+03  0.16500000000E+03 0.  0.
   -5000001    1    1    2    0    0 -0.14303825905E+03 -0.20218304485E+03 -0.42109006303E+03  0.51563530558E+03  0.16500000000E+03 0.  0.
<mgrwt>
<rscale>  0 0.62394543E+03</rscale>
<asrwt>0</asrwt>
<pdfrwt beam="1">  1        2 0.19119003E+00 0.62394543E+03</pdfrwt>
<pdfrwt beam="2">  1       -2 0.10388956E-01 0.62394543E+03</pdfrwt>
<totfact> 0.11653781E+03</totfact>
</mgrwt>
</event>
<event>
 4    1  0.5387486E-005  0.1031469E+04  0.7818608E-02  0.9274688E-01
          2   -1    0    0  501    0  0.00000000000E+00  0.00000000000E+00  0.16922224193E+04  0.16922224193E+04  0.25500000000E-02 0.  1.
         -2   -1    0    0    0  501 -0.00000000000E+00 -0.00000000000E+00 -0.15717927365E+03  0.15717927367E+03  0.25500000000E-02 0. -1.
    5000001    1    1    2    0    0  0.40670739290E+03  0.92988928493E+02  0.12235849267E+04  0.13032432302E+04  0.16500000000E+03 0.  0.
   -5000001    1    1    2    0    0 -0.40670739290E+03 -0.92988928493E+02  0.31145821890E+03  0.54615846271E+03  0.16500000000E+03 0.  0.
<mgrwt>
<rscale>  0 0.10314694E+04</rscale>
<asrwt>0</asrwt>
<pdfrwt beam="1">  1        2 0.24174607E+00 0.10314694E+04</pdfrwt>
<pdfrwt beam="2">  1       -2 0.22454181E-01 0.10314694E+04</pdfrwt>
<totfact> 0.20063056E+02</totfact>
</mgrwt>
</event>
<event>
 4    1  0.5387486E-005  0.3745634E+03  0.7818608E-02  0.1052962E+00
          2   -1    0    0  501    0  0.00000000000E+00  0.00000000000E+00  0.97712352056E+02  0.97712352089E+02  0.25500000000E-02 0.  1.
         -2   -1    0    0    0  501 -0.00000000000E+00 -0.00000000000E+00 -0.35895605987E+03  0.35895605988E+03  0.25500000000E-02 0. -1.
    5000001    1    1    2    0    0  0.47401526017E+01  0.78021957120E+02 -0.18147215924E+03  0.25742385169E+03  0.16500000000E+03 0.  0.
   -5000001    1    1    2    0    0 -0.47401526017E+01 -0.78021957120E+02 -0.79771548578E+02  0.19924456028E+03  0.16500000000E+03 0.  0.
<mgrwt>
<rscale>  0 0.37456343E+03</rscale>
<asrwt>0</asrwt>
<pdfrwt beam="1">  1        2 0.13958908E-01 0.37456343E+03</pdfrwt>
<pdfrwt beam="2">  1       -2 0.51279437E-01 0.37456343E+03</pdfrwt>
<totfact> 0.15620728E+03</totfact>
</mgrwt>
</event>
<event>
 4    1  0.5387486E-005  0.4420480E+03  0.7818608E-02  0.1030120E+00
          2   -1    0    0  501    0  0.00000000000E+00  0.00000000000E+00  0.24986321615E+03  0.24986321616E+03  0.25500000000E-02 0.  1.
         -2   -1    0    0    0  501 -0.00000000000E+00 -0.00000000000E+00 -0.19551343626E+03  0.19551343627E+03  0.25500000000E-02 0. -1.
    5000001    1    1    2    0    0  0.28848342630E+02 -0.51841201539E+02  0.16274994290E+03  0.23923269209E+03  0.16500000000E+03 0.  0.
   -5000001    1    1    2    0    0 -0.28848342630E+02  0.51841201539E+02 -0.10840016300E+03  0.20614396035E+03  0.16500000000E+03 0.  0.
<mgrwt>
<rscale>  0 0.44204803E+03</rscale>
<asrwt>0</asrwt>
<pdfrwt beam="1">  1        2 0.35694745E-01 0.44204803E+03</pdfrwt>
<pdfrwt beam="2">  1       -2 0.27930491E-01 0.44204803E+03</pdfrwt>
<totfact> 0.17003429E+03</totfact>
</mgrwt>
</event>
<event>
 4    1  0.5387486E-005  0.3927085E+03  0.7818608E-02  0.1046334E+00
         -2   -1    0    0    0  501 -0.00000000000E+00  0.00000000000E+00  0.22316666779E+03  0.22316666781E+03  0.25500000000E-02 0. -1.
          2   -1    0    0  501    0  0.00000000000E+00 -0.00000000000E+00 -0.17276323051E+03  0.17276323053E+03  0.25500000000E-02 0.  1.
    5000001    1    1    2    0    0 -0.92906780556E+02  0.49042971053E+02  0.79407772259E+01  0.19576756326E+03  0.16500000000E+03 0.  0.
   -5000001    1    1    2    0    0  0.92906780556E+02 -0.49042971053E+02  0.42462660053E+02  0.20016233507E+03  0.16500000000E+03 0.  0.
<mgrwt>
<rscale>  0 0.39270852E+03</rscale>
<asrwt>0</asrwt>
<pdfrwt beam="1">  1        2 0.24680461E-01 0.39270852E+03</pdfrwt>
<pdfrwt beam="2">  1       -2 0.31880953E-01 0.39270852E+03</pdfrwt>
<totfact> 0.20103933E+03</totfact>
</mgrwt>
</event>
<event>
 4    1  0.5387486E-005  0.4732492E+03  0.7818608E-02  0.1021007E+00
         -2   -1    0    0    0  501 -0.00000000000E+00  0.00000000000E+00  0.66401295000E+02  0.66401295049E+02  0.25500000000E-02 0. -1.
          2   -1    0    0  501    0  0.00000000000E+00 -0.00000000000E+00 -0.84322466002E+03  0.84322466003E+03  0.25500000000E-02 0.  1.
    5000001    1    1    2    0    0  0.53369090505E+02 -0.12671596945E+03 -0.57927992866E+03  0.61781504715E+03  0.16500000000E+03 0.  0.
   -5000001    1    1    2    0    0 -0.53369090505E+02  0.12671596945E+03 -0.19754343637E+03  0.29181090793E+03  0.16500000000E+03 0.  0.
<mgrwt>
<rscale>  0 0.47324923E+03</rscale>
<asrwt>0</asrwt>
<pdfrwt beam="1">  1        2 0.12046066E+00 0.47324923E+03</pdfrwt>
<pdfrwt beam="2">  1       -2 0.94858998E-02 0.47324923E+03</pdfrwt>
<totfact> 0.26466564E+03</totfact>
</mgrwt>
</event>
<event>
 4    1  0.5387486E-005  0.7477509E+03  0.7818608E-02  0.9638885E-01
         -2   -1    0    0    0  501 -0.00000000000E+00  0.00000000000E+00  0.58550165757E+02  0.58550165812E+02  0.25500000000E-02 0. -1.
          2   -1    0    0  501    0  0.00000000000E+00 -0.00000000000E+00 -0.23874030251E+04  0.23874030251E+04  0.25500000000E-02 0.  1.
    5000001    1    1    2    0    0 -0.28372677420E+03  0.11016863855E+03 -0.16260989685E+04  0.16625465006E+04  0.16500000000E+03 0.  0.
   -5000001    1    1    2    0    0  0.28372677420E+03 -0.11016863855E+03 -0.70275389082E+03  0.78340669029E+03  0.16500000000E+03 0.  0.
<mgrwt>
<rscale>  0 0.74775088E+03</rscale>
<asrwt>0</asrwt>
<pdfrwt beam="1">  1        2 0.34105751E+00 0.74775088E+03</pdfrwt>
<pdfrwt beam="2">  1       -2 0.83643109E-02 0.74775088E+03</pdfrwt>
<totfact> 0.47659608E+02</totfact>
</mgrwt>
</event>
<event>
 4    1  0.5387486E-005  0.7374602E+03  0.7818608E-02  0.9655231E-01
         -2   -1    0    0    0  501 -0.00000000000E+00  0.00000000000E+00  0.10919023313E+03  0.10919023316E+03  0.25500000000E-02 0. -1.
          2   -1    0    0  501    0  0.00000000000E+00 -0.00000000000E+00 -0.12451835991E+04  0.12451835991E+04  0.25500000000E-02 0.  1.
    5000001    1    1    2    0    0  0.14136572252E+03 -0.28795792473E+03 -0.42773452922E+03  0.55954075938E+03  0.16500000000E+03 0.  0.
   -5000001    1    1    2    0    0 -0.14136572252E+03  0.28795792473E+03 -0.70825883678E+03  0.79483307291E+03  0.16500000000E+03 0.  0.
<mgrwt>
<rscale>  0 0.73746020E+03</rscale>
<asrwt>0</asrwt>
<pdfrwt beam="1">  1        2 0.17788336E+00 0.73746020E+03</pdfrwt>
<pdfrwt beam="2">  1       -2 0.15598605E-01 0.73746020E+03</pdfrwt>
<totfact> 0.66453328E+02</totfact>
</mgrwt>
</event>
<event>
 4    1  0.5387486E-005  0.4369974E+03  0.7818608E-02  0.1031672E+00
         -2   -1    0    0    0  501 -0.00000000000E+00  0.00000000000E+00  0.25264593616E+02  0.25264593745E+02  0.25500000000E-02 0. -1.
          2   -1    0    0  501    0  0.00000000000E+00 -0.00000000000E+00 -0.18896675809E+04  0.18896675809E+04  0.25500000000E-02 0.  1.
    5000001    1    1    2    0    0 -0.13113149410E+03  0.34049388596E+02 -0.11359468491E+04  0.11558352277E+04  0.16500000000E+03 0.  0.
   -5000001    1    1    2    0    0  0.13113149410E+03 -0.34049388596E+02 -0.72845613821E+03  0.75909694698E+03  0.16500000000E+03 0.  0.
<mgrwt>
<rscale>  0 0.43699741E+03</rscale>
<asrwt>0</asrwt>
<pdfrwt beam="1">  1        2 0.26995242E+00 0.43699741E+03</pdfrwt>
<pdfrwt beam="2">  1       -2 0.36092289E-02 0.43699741E+03</pdfrwt>
<totfact> 0.31997567E+03</totfact>
</mgrwt>
</event>
<event>
 4    1  0.5387486E-005  0.5990041E+03  0.7818608E-02  0.9907474E-01
          2   -1    0    0  501    0  0.00000000000E+00  0.00000000000E+00  0.67407996973E+03  0.67407996974E+03  0.25500000000E-02 0.  1.
         -2   -1    0    0    0  501 -0.00000000000E+00 -0.00000000000E+00 -0.13307245084E+03  0.13307245086E+03  0.25500000000E-02 0. -1.
    5000001    1    1    2    0    0  0.18726534567E+03 -0.64105235940E+02  0.47618346987E+03  0.54143650407E+03  0.16500000000E+03 0.  0.
   -5000001    1    1    2    0    0 -0.18726534567E+03  0.64105235940E+02  0.64824049030E+02  0.26571591653E+03  0.16500000000E+03 0.  0.
<mgrwt>
<rscale>  0 0.59900409E+03</rscale>
<asrwt>0</asrwt>
<pdfrwt beam="1">  1        2 0.96297135E-01 0.59900409E+03</pdfrwt>
<pdfrwt beam="2">  1       -2 0.19010351E-01 0.59900409E+03</pdfrwt>
<totfact> 0.11015359E+03</totfact>
</mgrwt>
</event>
<event>
 4    1  0.5387486E-005  0.3829153E+03  0.7818608E-02  0.1049861E+00
          2   -1    0    0  501    0  0.00000000000E+00  0.00000000000E+00  0.28603912388E+04  0.28603912388E+04  0.25500000000E-02 0.  1.
         -2   -1    0    0    0  501 -0.00000000000E+00 -0.00000000000E+00 -0.12815042461E+02  0.12815042715E+02  0.25500000000E-02 0. -1.
    5000001    1    1    2    0    0 -0.46003215128E+02  0.42120001080E+02  0.86526101439E+03  0.88305832951E+03  0.16500000000E+03 0.  0.
   -5000001    1    1    2    0    0  0.46003215128E+02 -0.42120001080E+02  0.19823151820E+04  0.19901479520E+04  0.16500000000E+03 0.  0.
<mgrwt>
<rscale>  0 0.38291532E+03</rscale>
<asrwt>0</asrwt>
<pdfrwt beam="1">  1        2 0.40862721E+00 0.38291532E+03</pdfrwt>
<pdfrwt beam="2">  1       -2 0.18307208E-02 0.38291532E+03</pdfrwt>
<totfact> 0.28710505E+03</totfact>
</mgrwt>
</event>
<event>
 4    1  0.5387486E-005  0.6887004E+03  0.7818608E-02  0.9736753E-01
          2   -1    0    0  501    0  0.00000000000E+00  0.00000000000E+00  0.83535345583E+03  0.83535345584E+03  0.25500000000E-02 0.  1.
         -2   -1    0    0    0  501 -0.00000000000E+00 -0.00000000000E+00 -0.14194838764E+03  0.14194838766E+03  0.25500000000E-02 0. -1.
    5000001    1    1    2    0    0  0.25502828980E+03  0.16212234501E+03  0.35434341835E+03  0.49407220270E+03  0.16500000000E+03 0.  0.
   -5000001    1    1    2    0    0 -0.25502828980E+03 -0.16212234501E+03  0.33906164984E+03  0.48322964080E+03  0.16500000000E+03 0.  0.
<mgrwt>
<rscale>  0 0.68870045E+03</rscale>
<asrwt>0</asrwt>
<pdfrwt beam="1">  1        2 0.11933621E+00 0.68870045E+03</pdfrwt>
<pdfrwt beam="2">  1       -2 0.20278342E-01 0.68870045E+03</pdfrwt>
<totfact> 0.75076513E+02</totfact>
</mgrwt>
</event>
<event>
 4    1  0.5387486E-005  0.4225448E+03  0.7818608E-02  0.1036241E+00
          2   -1    0    0  501    0  0.00000000000E+00  0.00000000000E+00  0.29086964585E+03  0.29086964586E+03  0.25500000000E-02 0.  1.
         -2   -1    0    0    0  501 -0.00000000000E+00 -0.00000000000E+00 -0.15345711522E+03  0.15345711524E+03  0.25500000000E-02 0. -1.
    5000001    1    1    2    0    0 -0.12071574899E+03 -0.19630979064E+02  0.12079088037E+03  0.23827107288E+03  0.16500000000E+03 0.  0.
   -5000001    1    1    2    0    0  0.12071574899E+03  0.19630979064E+02  0.16621650261E+02  0.20605568823E+03  0.16500000000E+03 0.  0.
<mgrwt>
<rscale>  0 0.42254475E+03</rscale>
<asrwt>0</asrwt>
<pdfrwt beam="1">  1        2 0.41552806E-01 0.42254475E+03</pdfrwt>
<pdfrwt beam="2">  1       -2 0.21922445E-01 0.42254475E+03</pdfrwt>
<totfact> 0.22143825E+03</totfact>
</mgrwt>
</event>
<event>
 4    1  0.5387486E-005  0.6236188E+03  0.7818608E-02  0.9857581E-01
         -2   -1    0    0    0  501 -0.00000000000E+00  0.00000000000E+00  0.26385331390E+02  0.26385331513E+02  0.25500000000E-02 0. -1.
          2   -1    0    0  501    0  0.00000000000E+00 -0.00000000000E+00 -0.36848168985E+04  0.36848168985E+04  0.25500000000E-02 0.  1.
    5000001    1    1    2    0    0  0.26307082120E+03  0.35365289463E+01 -0.16628674195E+04  0.16916181066E+04  0.16500000000E+03 0.  0.
   -5000001    1    1    2    0    0 -0.26307082120E+03 -0.35365289463E+01 -0.19955641477E+04  0.20195841234E+04  0.16500000000E+03 0.  0.
<mgrwt>
<rscale>  0 0.62361884E+03</rscale>
<asrwt>0</asrwt>
<pdfrwt beam="1">  1        2 0.52640209E+00 0.62361884E+03</pdfrwt>
<pdfrwt beam="2">  1       -2 0.37693354E-02 0.62361884E+03</pdfrwt>
<totfact> 0.32091274E+02</totfact>
</mgrwt>
</event>
<event>
 4    1  0.5387486E-005  0.6174054E+03  0.7818608E-02  0.9869939E-01
          2   -1    0    0  501    0  0.00000000000E+00  0.00000000000E+00  0.18655801371E+04  0.18655801371E+04  0.25500000000E-02 0.  1.
         -2   -1    0    0    0  501 -0.00000000000E+00 -0.00000000000E+00 -0.51081886801E+02  0.51081886865E+02  0.25500000000E-02 0. -1.
    5000001    1    1    2    0    0  0.17258084181E+02  0.20333686470E+03  0.40257334900E+03  0.48055595235E+03  0.16500000000E+03 0.  0.
   -5000001    1    1    2    0    0 -0.17258084181E+02 -0.20333686470E+03  0.14119249013E+04  0.14361060716E+04  0.16500000000E+03 0.  0.
<mgrwt>
<rscale>  0 0.61740539E+03</rscale>
<asrwt>0</asrwt>
<pdfrwt beam="1">  1        2 0.26651150E+00 0.61740539E+03</pdfrwt>
<pdfrwt beam="2">  1       -2 0.72974109E-02 0.61740539E+03</pdfrwt>
<totfact> 0.10973494E+03</totfact>
</mgrwt>
</event>
<event>
 4    1  0.5387486E-005  0.4124023E+03  0.7818608E-02  0.1039568E+00
         -2   -1    0    0    0  501 -0.00000000000E+00  0.00000000000E+00  0.19537431246E+02  0.19537431413E+02  0.25500000000E-02 0. -1.
          2   -1    0    0  501    0  0.00000000000E+00 -0.00000000000E+00 -0.21762793703E+04  0.21762793703E+04  0.25500000000E-02 0.  1.
    5000001    1    1    2    0    0 -0.66848862945E+02  0.89546353561E+02 -0.13604458743E+04  0.13749637439E+04  0.16500000000E+03 0.  0.
   -5000001    1    1    2    0    0  0.66848862945E+02 -0.89546353561E+02 -0.79629606467E+03  0.82085305781E+03  0.16500000000E+03 0.  0.
<mgrwt>
<rscale>  0 0.41240227E+03</rscale>
<asrwt>0</asrwt>
<pdfrwt beam="1">  1        2 0.31089690E+00 0.41240227E+03</pdfrwt>
<pdfrwt beam="2">  1       -2 0.27910630E-02 0.41240227E+03</pdfrwt>
<totfact> 0.34024129E+03</totfact>
</mgrwt>
</event>
<event>
 4    1  0.5387486E-005  0.5295612E+03  0.7818608E-02  0.1006339E+00
         -2   -1    0    0    0  501 -0.00000000000E+00  0.00000000000E+00  0.14191519345E+03  0.14191519347E+03  0.25500000000E-02 0. -1.
          2   -1    0    0  501    0  0.00000000000E+00 -0.00000000000E+00 -0.49401867381E+03  0.49401867382E+03  0.25500000000E-02 0.  1.
    5000001    1    1    2    0    0  0.29056980661E+02 -0.20408540549E+03 -0.15237922920E+03  0.30485995203E+03  0.16500000000E+03 0.  0.
   -5000001    1    1    2    0    0 -0.29056980661E+02  0.20408540549E+03 -0.19972425116E+03  0.33107391526E+03  0.16500000000E+03 0.  0.
<mgrwt>
<rscale>  0 0.52956116E+03</rscale>
<asrwt>0</asrwt>
<pdfrwt beam="1">  1        2 0.70574095E-01 0.52956116E+03</pdfrwt>
<pdfrwt beam="2">  1       -2 0.20273599E-01 0.52956116E+03</pdfrwt>
<totfact> 0.14163734E+03</totfact>
</mgrwt>
</event>
<event>
 4    1  0.5387486E-005  0.4056655E+03  0.7818608E-02  0.1041835E+00
          2   -1    0    0  501    0  0.00000000000E+00  0.00000000000E+00  0.35142111337E+03  0.35142111338E+03  0.25500000000E-02 0.  1.
         -2   -1    0    0    0  501 -0.00000000000E+00 -0.00000000000E+00 -0.11707074182E+03  0.11707074184E+03  0.25500000000E-02 0. -1.
    5000001    1    1    2    0    0  0.11618668114E+03  0.53978901228E+01  0.94437151943E+02  0.22287184156E+03  0.16500000000E+03 0.  0.
   -5000001    1    1    2    0    0 -0.11618668114E+03 -0.53978901228E+01  0.13991321962E+03  0.24562001367E+03  0.16500000000E+03 0.  0.
<mgrwt>
<rscale>  0 0.40566553E+03</rscale>
<asrwt>0</asrwt>
<pdfrwt beam="1">  1        2 0.50203016E-01 0.40566553E+03</pdfrwt>
<pdfrwt beam="2">  1       -2 0.16724392E-01 0.40566553E+03</pdfrwt>
<totfact> 0.28661557E+03</totfact>
</mgrwt>
</event>
<event>
 4    1  0.5387486E-005  0.6049814E+03  0.7818608E-02  0.9895125E-01
          2   -1    0    0  501    0  0.00000000000E+00  0.00000000000E+00  0.67828965930E+03  0.67828965930E+03  0.25500000000E-02 0.  1.
         -2   -1    0    0    0  501 -0.00000000000E+00 -0.00000000000E+00 -0.13489904995E+03  0.13489904997E+03  0.25500000000E-02 0. -1.
    5000001    1    1    2    0    0 -0.62652822748E+02  0.16430535792E+03  0.51717935921E+03  0.57063220767E+03  0.16500000000E+03 0.  0.
   -5000001    1    1    2    0    0  0.62652822748E+02 -0.16430535792E+03  0.26211250141E+02  0.24255650161E+03  0.16500000000E+03 0.  0.
<mgrwt>
<rscale>  0 0.60498142E+03</rscale>
<asrwt>0</asrwt>
<pdfrwt beam="1">  1        2 0.96898522E-01 0.60498142E+03</pdfrwt>
<pdfrwt beam="2">  1       -2 0.19271293E-01 0.60498142E+03</pdfrwt>
<totfact> 0.10676429E+03</totfact>
</mgrwt>
</event>
<event>
 4    1  0.5387486E-005  0.4528452E+03  0.7818608E-02  0.1026877E+00
          2   -1    0    0  501    0  0.00000000000E+00  0.00000000000E+00  0.13412530012E+04  0.13412530012E+04  0.25500000000E-02 0.  1.
         -2   -1    0    0    0  501 -0.00000000000E+00 -0.00000000000E+00 -0.38223349680E+02  0.38223349765E+02  0.25500000000E-02 0. -1.
    5000001    1    1    2    0    0  0.14722639969E+03  0.13316244135E+02  0.50898296305E+03  0.55510502772E+03  0.16500000000E+03 0.  0.
   -5000001    1    1    2    0    0 -0.14722639969E+03 -0.13316244135E+02  0.79404668842E+03  0.82437132320E+03  0.16500000000E+03 0.  0.
<mgrwt>
<rscale>  0 0.45284515E+03</rscale>
<asrwt>0</asrwt>
<pdfrwt beam="1">  1        2 0.19160751E+00 0.45284515E+03</pdfrwt>
<pdfrwt beam="2">  1       -2 0.54604804E-02 0.45284515E+03</pdfrwt>
<totfact> 0.32289172E+03</totfact>
</mgrwt>
</event>
<event>
 4    1  0.5387486E-005  0.4248274E+03  0.7818608E-02  0.1035507E+00
          2   -1    0    0  501    0  0.00000000000E+00  0.00000000000E+00  0.12653132347E+04  0.12653132347E+04  0.25500000000E-02 0.  1.
         -2   -1    0    0    0  501 -0.00000000000E+00 -0.00000000000E+00 -0.35658821982E+02  0.35658822073E+02  0.25500000000E-02 0. -1.
    5000001    1    1    2    0    0  0.75546065156E+02 -0.10725291062E+03  0.53472543594E+03  0.57477533580E+03  0.16500000000E+03 0.  0.
   -5000001    1    1    2    0    0 -0.75546065156E+02  0.10725291062E+03  0.69492897673E+03  0.72619672093E+03  0.16500000000E+03 0.  0.
<mgrwt>
<rscale>  0 0.42482740E+03</rscale>
<asrwt>0</asrwt>
<pdfrwt beam="1">  1        2 0.18075904E+00 0.42482740E+03</pdfrwt>
<pdfrwt beam="2">  1       -2 0.50941173E-02 0.42482740E+03</pdfrwt>
<totfact> 0.39476552E+03</totfact>
</mgrwt>
</event>
<event>
 4    1  0.5387486E-005  0.4699286E+03  0.7818608E-02  0.1021940E+00
         -2   -1    0    0    0  501 -0.00000000000E+00  0.00000000000E+00  0.26854393513E+03  0.26854393515E+03  0.25500000000E-02 0. -1.
          2   -1    0    0  501    0  0.00000000000E+00 -0.00000000000E+00 -0.20558353952E+03  0.20558353954E+03  0.25500000000E-02 0.  1.
    5000001    1    1    2    0    0  0.11593837176E+03 -0.72824424212E+02 -0.65493698464E+02  0.22418636744E+03  0.16500000000E+03 0.  0.
   -5000001    1    1    2    0    0 -0.11593837176E+03  0.72824424212E+02  0.12845409407E+03  0.24994110725E+03  0.16500000000E+03 0.  0.
<mgrwt>
<rscale>  0 0.46992856E+03</rscale>
<asrwt>0</asrwt>
<pdfrwt beam="1">  1        2 0.29369077E-01 0.46992856E+03</pdfrwt>
<pdfrwt beam="2">  1       -2 0.38363419E-01 0.46992856E+03</pdfrwt>
<totfact> 0.11687877E+03</totfact>
</mgrwt>
</event>
<event>
 4    1  0.5387486E-005  0.6459817E+03  0.7818608E-02  0.9814349E-01
          2   -1    0    0  501    0  0.00000000000E+00  0.00000000000E+00  0.69157742711E+03  0.69157742711E+03  0.25500000000E-02 0.  1.
         -2   -1    0    0    0  501 -0.00000000000E+00 -0.00000000000E+00 -0.15084800363E+03  0.15084800365E+03  0.25500000000E-02 0. -1.
    5000001    1    1    2    0    0 -0.22389762359E+03  0.15512761789E+03  0.34063326683E+03  0.46631614400E+03  0.16500000000E+03 0.  0.
   -5000001    1    1    2    0    0  0.22389762359E+03 -0.15512761789E+03  0.20009615664E+03  0.37610928676E+03  0.16500000000E+03 0.  0.
<mgrwt>
<rscale>  0 0.64598165E+03</rscale>
<asrwt>0</asrwt>
<pdfrwt beam="1">  1        2 0.98796778E-01 0.64598165E+03</pdfrwt>
<pdfrwt beam="2">  1       -2 0.21549714E-01 0.64598165E+03</pdfrwt>
<totfact> 0.85710729E+02</totfact>
</mgrwt>
</event>
<event>
 4    1  0.5387486E-005  0.4431990E+03  0.7818608E-02  0.1029770E+00
         -2   -1    0    0    0  501 -0.00000000000E+00  0.00000000000E+00  0.28764578216E+02  0.28764578329E+02  0.25500000000E-02 0. -1.
          2   -1    0    0  501    0  0.00000000000E+00 -0.00000000000E+00 -0.17071809530E+04  0.17071809530E+04  0.25500000000E-02 0.  1.
    5000001    1    1    2    0    0  0.78548706568E+02 -0.11249405137E+03 -0.10557548990E+04  0.10773431290E+04  0.16500000000E+03 0.  0.
   -5000001    1    1    2    0    0 -0.78548706568E+02  0.11249405137E+03 -0.62266147581E+03  0.65860240233E+03  0.16500000000E+03 0.  0.
<mgrwt>
<rscale>  0 0.44319901E+03</rscale>
<asrwt>0</asrwt>
<pdfrwt beam="1">  1        2 0.24388293E+00 0.44319901E+03</pdfrwt>
<pdfrwt beam="2">  1       -2 0.41092265E-02 0.44319901E+03</pdfrwt>
<totfact> 0.32392744E+03</totfact>
</mgrwt>
</event>
<event>
 4    1  0.5387486E-005  0.7233890E+03  0.7818608E-02  0.9678049E-01
         -2   -1    0    0    0  501 -0.00000000000E+00  0.00000000000E+00  0.28002880673E+03  0.28002880674E+03  0.25500000000E-02 0. -1.
          2   -1    0    0  501    0  0.00000000000E+00 -0.00000000000E+00 -0.46717655833E+03  0.46717655834E+03  0.25500000000E-02 0.  1.
    5000001    1    1    2    0    0  0.74911067319E+02 -0.21012673183E+03  0.14608434524E+03  0.31357701982E+03  0.16500000000E+03 0.  0.
   -5000001    1    1    2    0    0 -0.74911067319E+02  0.21012673183E+03 -0.33323209684E+03  0.43362834525E+03  0.16500000000E+03 0.  0.
<mgrwt>
<rscale>  0 0.72338895E+03</rscale>
<asrwt>0</asrwt>
<pdfrwt beam="1">  1        2 0.66739508E-01 0.72338895E+03</pdfrwt>
<pdfrwt beam="2">  1       -2 0.40004115E-01 0.72338895E+03</pdfrwt>
<totfact> 0.43182752E+02</totfact>
</mgrwt>
</event>
<event>
 4    1  0.5387486E-005  0.4428179E+03  0.7818608E-02  0.1029886E+00
         -2   -1    0    0    0  501 -0.00000000000E+00  0.00000000000E+00  0.12464883707E+03  0.12464883710E+03  0.25500000000E-02 0. -1.
          2   -1    0    0  501    0  0.00000000000E+00 -0.00000000000E+00 -0.39328023211E+03  0.39328023212E+03  0.25500000000E-02 0.  1.
    5000001    1    1    2    0    0  0.15640606313E+02 -0.14583196853E+03 -0.15407266742E+03  0.26921177251E+03  0.16500000000E+03 0.  0.
   -5000001    1    1    2    0    0 -0.15640606313E+02  0.14583196853E+03 -0.11455872762E+03  0.24871729672E+03  0.16500000000E+03 0.  0.
<mgrwt>
<rscale>  0 0.44281790E+03</rscale>
<asrwt>0</asrwt>
<pdfrwt beam="1">  1        2 0.56182890E-01 0.44281790E+03</pdfrwt>
<pdfrwt beam="2">  1       -2 0.17806977E-01 0.44281790E+03</pdfrwt>
<totfact> 0.22805313E+03</totfact>
</mgrwt>
</event>
<event>
 4    1  0.5387486E-005  0.6192328E+03  0.7818608E-02  0.9866288E-01
         -2   -1    0    0    0  501 -0.00000000000E+00  0.00000000000E+00  0.32837762003E+02  0.32837762102E+02  0.25500000000E-02 0. -1.
          2   -1    0    0  501    0  0.00000000000E+00 -0.00000000000E+00 -0.29192702802E+04  0.29192702802E+04  0.25500000000E-02 0.  1.
    5000001    1    1    2    0    0  0.69482138096E+01  0.25509025702E+03 -0.17259810769E+04  0.17525281723E+04  0.16500000000E+03 0.  0.
   -5000001    1    1    2    0    0 -0.69482138096E+01 -0.25509025702E+03 -0.11604514413E+04  0.11995798700E+04  0.16500000000E+03 0.  0.
<mgrwt>
<rscale>  0 0.61923276E+03</rscale>
<asrwt>0</asrwt>
<pdfrwt beam="1">  1        2 0.41703845E+00 0.61923276E+03</pdfrwt>
<pdfrwt beam="2">  1       -2 0.46911107E-02 0.61923276E+03</pdfrwt>
<totfact> 0.63073426E+02</totfact>
</mgrwt>
</event>
<event>
 4    1  0.5387486E-005  0.5292306E+03  0.7818608E-02  0.1006419E+00
         -2   -1    0    0    0  501 -0.00000000000E+00  0.00000000000E+00  0.35527402772E+02  0.35527402864E+02  0.25500000000E-02 0. -1.
          2   -1    0    0  501    0  0.00000000000E+00 -0.00000000000E+00 -0.19709087466E+04  0.19709087466E+04  0.25500000000E-02 0.  1.
    5000001    1    1    2    0    0  0.10060956168E+03 -0.17554030744E+03 -0.11311796344E+04  0.11609173307E+04  0.16500000000E+03 0.  0.
   -5000001    1    1    2    0    0 -0.10060956168E+03  0.17554030744E+03 -0.80420170939E+03  0.84551881873E+03  0.16500000000E+03 0.  0.
<mgrwt>
<rscale>  0 0.52923065E+03</rscale>
<asrwt>0</asrwt>
<pdfrwt beam="1">  1        2 0.28155832E+00 0.52923065E+03</pdfrwt>
<pdfrwt beam="2">  1       -2 0.50753445E-02 0.52923065E+03</pdfrwt>
<totfact> 0.17229972E+03</totfact>
</mgrwt>
</event>
<event>
 4    1  0.5387486E-005  0.4044172E+03  0.7818608E-02  0.1042261E+00
          2   -1    0    0  501    0  0.00000000000E+00  0.00000000000E+00  0.25008527156E+03  0.25008527157E+03  0.25500000000E-02 0.  1.
         -2   -1    0    0    0  501 -0.00000000000E+00 -0.00000000000E+00 -0.16349747367E+03  0.16349747369E+03  0.25500000000E-02 0. -1.
    5000001    1    1    2    0    0 -0.11544285137E+03 -0.16220840543E+02  0.34547732118E+02  0.20496027272E+03  0.16500000000E+03 0.  0.
   -5000001    1    1    2    0    0  0.11544285137E+03  0.16220840543E+02  0.52040065777E+02  0.20862247253E+03  0.16500000000E+03 0.  0.
<mgrwt>
<rscale>  0 0.40441716E+03</rscale>
<asrwt>0</asrwt>
<pdfrwt beam="1">  1        2 0.35726467E-01 0.40441716E+03</pdfrwt>
<pdfrwt beam="2">  1       -2 0.23356782E-01 0.40441716E+03</pdfrwt>
<totfact> 0.23362977E+03</totfact>
</mgrwt>
</event>
<event>
 4    1  0.5387486E-005  0.5981918E+03  0.7818608E-02  0.9909165E-01
         -2   -1    0    0    0  501 -0.00000000000E+00  0.00000000000E+00  0.68345131838E+02  0.68345131885E+02  0.25500000000E-02 0. -1.
          2   -1    0    0  501    0  0.00000000000E+00 -0.00000000000E+00 -0.13089206921E+04  0.13089206921E+04  0.25500000000E-02 0.  1.
    5000001    1    1    2    0    0  0.24062327578E+03 -0.27976724754E+02 -0.75748923790E+03  0.81221746073E+03  0.16500000000E+03 0.  0.
   -5000001    1    1    2    0    0 -0.24062327578E+03  0.27976724754E+02 -0.48308632238E+03  0.56504836328E+03  0.16500000000E+03 0.  0.
<mgrwt>
<rscale>  0 0.59819180E+03</rscale>
<asrwt>0</asrwt>
<pdfrwt beam="1">  1        2 0.18698865E+00 0.59819180E+03</pdfrwt>
<pdfrwt beam="2">  1       -2 0.97635911E-02 0.59819180E+03</pdfrwt>
<totfact> 0.13380623E+03</totfact>
</mgrwt>
</event>
<event>
 4    1  0.5387486E-005  0.6574082E+03  0.7818608E-02  0.9792977E-01
         -2   -1    0    0    0  501 -0.00000000000E+00  0.00000000000E+00  0.80090707544E+02  0.80090707584E+02  0.25500000000E-02 0. -1.
          2   -1    0    0  501    0  0.00000000000E+00 -0.00000000000E+00 -0.13490501809E+04  0.13490501809E+04  0.25500000000E-02 0.  1.
    5000001    1    1    2    0    0 -0.95919274690E+01  0.27677694665E+03 -0.49487697552E+03  0.59061468333E+03  0.16500000000E+03 0.  0.
   -5000001    1    1    2    0    0  0.95919274690E+01 -0.27677694665E+03 -0.77408249779E+03  0.83852620511E+03  0.16500000000E+03 0.  0.
<mgrwt>
<rscale>  0 0.65740819E+03</rscale>
<asrwt>0</asrwt>
<pdfrwt beam="1">  1        2 0.19272144E+00 0.65740819E+03</pdfrwt>
<pdfrwt beam="2">  1       -2 0.11441530E-01 0.65740819E+03</pdfrwt>
<totfact> 0.98097543E+02</totfact>
</mgrwt>
</event>
<event>
 4    1  0.5387486E-005  0.1064317E+04  0.7818608E-02  0.9240686E-01
          2   -1    0    0  501    0  0.00000000000E+00  0.00000000000E+00  0.15517286297E+04  0.15517286297E+04  0.25500000000E-02 0.  1.
         -2   -1    0    0    0  501 -0.00000000000E+00 -0.00000000000E+00 -0.18250154600E+03  0.18250154602E+03  0.25500000000E-02 0. -1.
    5000001    1    1    2    0    0  0.28589092654E+03 -0.39111021053E+03  0.44699011079E+03  0.67950421471E+03  0.16500000000E+03 0.  0.
   -5000001    1    1    2    0    0 -0.28589092654E+03  0.39111021053E+03  0.92223697295E+03  0.10547259611E+04  0.16500000000E+03 0.  0.
<mgrwt>
<rscale>  0 0.10643174E+04</rscale>
<asrwt>0</asrwt>
<pdfrwt beam="1">  1        2 0.22167552E+00 0.10643174E+04</pdfrwt>
<pdfrwt beam="2">  1       -2 0.26071649E-01 0.10643174E+04</pdfrwt>
<totfact> 0.18109850E+02</totfact>
</mgrwt>
</event>
<event>
 4    1  0.5387486E-005  0.5204591E+03  0.7818608E-02  0.1008573E+00
         -2   -1    0    0    0  501 -0.00000000000E+00  0.00000000000E+00  0.67477435819E+02  0.67477435868E+02  0.25500000000E-02 0. -1.
          2   -1    0    0  501    0  0.00000000000E+00 -0.00000000000E+00 -0.10035860770E+04  0.10035860770E+04  0.25500000000E-02 0.  1.
    5000001    1    1    2    0    0 -0.15085130522E+03 -0.13251265870E+03 -0.44054475275E+03  0.51148841646E+03  0.16500000000E+03 0.  0.
   -5000001    1    1    2    0    0  0.15085130522E+03  0.13251265870E+03 -0.49556388842E+03  0.55957509640E+03  0.16500000000E+03 0.  0.
<mgrwt>
<rscale>  0 0.52045909E+03</rscale>
<asrwt>0</asrwt>
<pdfrwt beam="1">  1        2 0.14336943E+00 0.52045909E+03</pdfrwt>
<pdfrwt beam="2">  1       -2 0.96396343E-02 0.52045909E+03</pdfrwt>
<totfact> 0.20417702E+03</totfact>
</mgrwt>
</event>
<event>
 4    1  0.5387486E-005  0.4604103E+03  0.7818608E-02  0.1024662E+00
          2   -1    0    0  501    0  0.00000000000E+00  0.00000000000E+00  0.16601397555E+03  0.16601397557E+03  0.25500000000E-02 0.  1.
         -2   -1    0    0    0  501 -0.00000000000E+00 -0.00000000000E+00 -0.31921662467E+03  0.31921662468E+03  0.25500000000E-02 0. -1.
    5000001    1    1    2    0    0 -0.14585779532E+03  0.56538778032E+02 -0.11457556908E+03  0.25460497031E+03  0.16500000000E+03 0.  0.
   -5000001    1    1    2    0    0  0.14585779532E+03 -0.56538778032E+02 -0.38627080043E+02  0.23062562995E+03  0.16500000000E+03 0.  0.
<mgrwt>
<rscale>  0 0.46041034E+03</rscale>
<asrwt>0</asrwt>
<pdfrwt beam="1">  1        2 0.23716282E-01 0.46041034E+03</pdfrwt>
<pdfrwt beam="2">  1       -2 0.45602375E-01 0.46041034E+03</pdfrwt>
<totfact> 0.10625002E+03</totfact>
</mgrwt>
</event>
<event>
 4    1  0.5387486E-005  0.4350003E+03  0.7818608E-02  0.1032292E+00
         -2   -1    0    0    0  501 -0.00000000000E+00  0.00000000000E+00  0.47719010394E+02  0.47719010462E+02  0.25500000000E-02 0. -1.
          2   -1    0    0  501    0  0.00000000000E+00 -0.00000000000E+00 -0.99135148825E+03  0.99135148826E+03  0.25500000000E-02 0.  1.
    5000001    1    1    2    0    0  0.24355845056E+02 -0.75214730918E+02 -0.19089802791E+03  0.26441921261E+03  0.16500000000E+03 0.  0.
   -5000001    1    1    2    0    0 -0.24355845056E+02  0.75214730918E+02 -0.75273444995E+03  0.77465128611E+03  0.16500000000E+03 0.  0.
<mgrwt>
<rscale>  0 0.43500029E+03</rscale>
<asrwt>0</asrwt>
<pdfrwt beam="1">  1        2 0.14162163E+00 0.43500029E+03</pdfrwt>
<pdfrwt beam="2">  1       -2 0.68170021E-02 0.43500029E+03</pdfrwt>
<totfact> 0.35980592E+03</totfact>
</mgrwt>
</event>
<event>
 4    1  0.5387486E-005  0.3717652E+03  0.7818608E-02  0.1054020E+00
          2   -1    0    0  501    0  0.00000000000E+00  0.00000000000E+00  0.37800148484E+03  0.37800148485E+03  0.25500000000E-02 0.  1.
         -2   -1    0    0    0  501 -0.00000000000E+00 -0.00000000000E+00 -0.91407974815E+02  0.91407974851E+02  0.25500000000E-02 0. -1.
    5000001    1    1    2    0    0  0.33295260284E+02 -0.78782675630E+02  0.14768269361E+03  0.23738252322E+03  0.16500000000E+03 0.  0.
   -5000001    1    1    2    0    0 -0.33295260284E+02  0.78782675630E+02  0.13891081641E+03  0.23202693648E+03  0.16500000000E+03 0.  0.
<mgrwt>
<rscale>  0 0.37176525E+03</rscale>
<asrwt>0</asrwt>
<pdfrwt beam="1">  1        2 0.54000213E-01 0.37176525E+03</pdfrwt>
<pdfrwt beam="2">  1       -2 0.13058282E-01 0.37176525E+03</pdfrwt>
<totfact> 0.39885999E+03</totfact>
</mgrwt>
</event>
<event>
 4    1  0.5387486E-005  0.3449783E+03  0.7818608E-02  0.1064695E+00
          2   -1    0    0  501    0  0.00000000000E+00  0.00000000000E+00  0.89628106592E+03  0.89628106592E+03  0.25500000000E-02 0.  1.
         -2   -1    0    0    0  501 -0.00000000000E+00 -0.00000000000E+00 -0.33195507562E+02  0.33195507660E+02  0.25500000000E-02 0. -1.
    5000001    1    1    2    0    0  0.77860227427E+01 -0.14558763687E+02  0.55948466699E+03  0.58354149154E+03  0.16500000000E+03 0.  0.
   -5000001    1    1    2    0    0 -0.77860227427E+01  0.14558763687E+02  0.30360089136E+03  0.34593508204E+03  0.16500000000E+03 0.  0.
<mgrwt>
<rscale>  0 0.34497829E+03</rscale>
<asrwt>0</asrwt>
<pdfrwt beam="1">  1        2 0.12804013E+00 0.34497829E+03</pdfrwt>
<pdfrwt beam="2">  1       -2 0.47422164E-02 0.34497829E+03</pdfrwt>
<totfact> 0.71900944E+03</totfact>
</mgrwt>
</event>
<event>
 4    1  0.5387486E-005  0.8037182E+03  0.7818608E-02  0.9554651E-01
         -2   -1    0    0    0  501 -0.00000000000E+00  0.00000000000E+00  0.33250948206E+03  0.33250948207E+03  0.25500000000E-02 0. -1.
          2   -1    0    0  501    0  0.00000000000E+00 -0.00000000000E+00 -0.48567251623E+03  0.48567251624E+03  0.25500000000E-02 0.  1.
    5000001    1    1    2    0    0  0.84462246936E+02  0.26022464276E+03  0.17155696674E+03  0.36263966785E+03  0.16500000000E+03 0.  0.
   -5000001    1    1    2    0    0 -0.84462246936E+02 -0.26022464276E+03 -0.32472000091E+03  0.45554233047E+03  0.16500000000E+03 0.  0.
<mgrwt>
<rscale>  0 0.80371815E+03</rscale>
<asrwt>0</asrwt>
<pdfrwt beam="1">  1        2 0.69381788E-01 0.80371815E+03</pdfrwt>
<pdfrwt beam="2">  1       -2 0.47501355E-01 0.80371815E+03</pdfrwt>
<totfact> 0.29327435E+02</totfact>
</mgrwt>
</event>
<event>
 4    1  0.5387486E-005  0.4197760E+03  0.7818608E-02  0.1037139E+00
         -2   -1    0    0    0  501 -0.00000000000E+00  0.00000000000E+00  0.11180151033E+03  0.11180151036E+03  0.25500000000E-02 0. -1.
          2   -1    0    0  501    0  0.00000000000E+00 -0.00000000000E+00 -0.39402840772E+03  0.39402840773E+03  0.25500000000E-02 0.  1.
    5000001    1    1    2    0    0  0.15781050713E+02  0.11173816330E+03 -0.21821000338E+03  0.29593084373E+03  0.16500000000E+03 0.  0.
   -5000001    1    1    2    0    0 -0.15781050713E+02 -0.11173816330E+03 -0.64016894013E+02  0.20989907436E+03  0.16500000000E+03 0.  0.
<mgrwt>
<rscale>  0 0.41977599E+03</rscale>
<asrwt>0</asrwt>
<pdfrwt beam="1">  1        2 0.56289772E-01 0.41977599E+03</pdfrwt>
<pdfrwt beam="2">  1       -2 0.15971645E-01 0.41977599E+03</pdfrwt>
<totfact> 0.27340094E+03</totfact>
</mgrwt>
</event>
<event>
 4    1  0.5387486E-005  0.6482854E+03  0.7818608E-02  0.9810002E-01
          2   -1    0    0  501    0  0.00000000000E+00  0.00000000000E+00  0.39523994765E+03  0.39523994766E+03  0.25500000000E-02 0. -1.
         -2   -1    0    0    0  501 -0.00000000000E+00 -0.00000000000E+00 -0.26583471796E+03  0.26583471798E+03  0.25500000000E-02 0.  1.
    5000001    1    1    2    0    0 -0.18588183263E+03 -0.14989725835E+03  0.21184850810E+03  0.35934111113E+03  0.16500000000E+03 0.  0.
   -5000001    1    1    2    0    0  0.18588183263E+03  0.14989725835E+03 -0.82443278412E+02  0.30173355451E+03  0.16500000000E+03 0.  0.
<mgrwt>
<rscale>  0 0.64828543E+03</rscale>
<asrwt>0</asrwt>
<pdfrwt beam="1">  1        2 0.56462850E-01 0.64828543E+03</pdfrwt>
<pdfrwt beam="2">  1       -2 0.37976388E-01 0.64828543E+03</pdfrwt>
<totfact> 0.57719352E+02</totfact>
</mgrwt>
</event>
<event>
 4    1  0.5387486E-005  0.5130216E+03  0.7818608E-02  0.1010435E+00
         -2   -1    0    0    0  501 -0.00000000000E+00  0.00000000000E+00  0.20842071926E+02  0.20842072082E+02  0.25500000000E-02 0. -1.
          2   -1    0    0  501    0  0.00000000000E+00 -0.00000000000E+00 -0.31569700683E+04  0.31569700683E+04  0.25500000000E-02 0.  1.
    5000001    1    1    2    0    0 -0.15072866560E+03  0.57376270407E+02 -0.87381453548E+03  0.90376324856E+03  0.16500000000E+03 0.  0.
   -5000001    1    1    2    0    0  0.15072866560E+03 -0.57376270407E+02 -0.22623134609E+04  0.22740488919E+04  0.16500000000E+03 0.  0.
<mgrwt>
<rscale>  0 0.51302163E+03</rscale>
<asrwt>0</asrwt>
<pdfrwt beam="1">  1        2 0.45099542E+00 0.51302163E+03</pdfrwt>
<pdfrwt beam="2">  1       -2 0.29774409E-02 0.51302163E+03</pdfrwt>
<totfact> 0.94751573E+02</totfact>
</mgrwt>
</event>
<event>
 4    1  0.5387486E-005  0.9494367E+03  0.7818608E-02  0.9365809E-01
         -2   -1    0    0    0  501 -0.00000000000E+00  0.00000000000E+00  0.17281316617E+03  0.17281316618E+03  0.25500000000E-02 0. -1.
          2   -1    0    0  501    0  0.00000000000E+00 -0.00000000000E+00 -0.13040529567E+04  0.13040529567E+04  0.25500000000E-02 0.  1.
    5000001    1    1    2    0    0  0.28504899795E+03  0.31415070210E+03 -0.77540692151E+03  0.89912428996E+03  0.16500000000E+03 0.  0.
   -5000001    1    1    2    0    0 -0.28504899795E+03 -0.31415070210E+03 -0.35583286906E+03  0.57774183297E+03  0.16500000000E+03 0.  0.
<mgrwt>
<rscale>  0 0.94943672E+03</rscale>
<asrwt>0</asrwt>
<pdfrwt beam="1">  1        2 0.18629327E+00 0.94943672E+03</pdfrwt>
<pdfrwt beam="2">  1       -2 0.24687596E-01 0.94943672E+03</pdfrwt>
<totfact> 0.27343097E+02</totfact>
</mgrwt>
</event>
<event>
 4    1  0.5387486E-005  0.4586324E+03  0.7818608E-02  0.1025179E+00
          2   -1    0    0  501    0  0.00000000000E+00  0.00000000000E+00  0.13985463476E+04  0.13985463476E+04  0.25500000000E-02 0.  1.
         -2   -1    0    0    0  501 -0.00000000000E+00 -0.00000000000E+00 -0.37600416645E+02  0.37600416732E+02  0.25500000000E-02 0. -1.
    5000001    1    1    2    0    0  0.13667547190E+03 -0.72564757365E+02  0.56267788798E+03  0.60644639850E+03  0.16500000000E+03 0.  0.
   -5000001    1    1    2    0    0 -0.13667547190E+03  0.72564757365E+02  0.79826804296E+03  0.82970036582E+03  0.16500000000E+03 0.  0.
<mgrwt>
<rscale>  0 0.45863243E+03</rscale>
<asrwt>0</asrwt>
<pdfrwt beam="1">  1        2 0.19979237E+00 0.45863243E+03</pdfrwt>
<pdfrwt beam="2">  1       -2 0.53714870E-02 0.45863243E+03</pdfrwt>
<totfact> 0.30887382E+03</totfact>
</mgrwt>
</event>
<event>
 4    1  0.5387486E-005  0.8402533E+03  0.7818608E-02  0.9503513E-01
         -2   -1    0    0    0  501 -0.00000000000E+00  0.00000000000E+00  0.51605176257E+03  0.51605176257E+03  0.25500000000E-02 0. -1.
          2   -1    0    0  501    0  0.00000000000E+00 -0.00000000000E+00 -0.34203234880E+03  0.34203234881E+03  0.25500000000E-02 0.  1.
    5000001    1    1    2    0    0  0.34367965137E+03  0.72150116799E+02  0.25155006535E+03  0.46241083195E+03  0.16500000000E+03 0.  0.
   -5000001    1    1    2    0    0 -0.34367965137E+03 -0.72150116799E+02 -0.77530651585E+02  0.39567327943E+03  0.16500000000E+03 0.  0.
<mgrwt>
<rscale>  0 0.84025329E+03</rscale>
<asrwt>0</asrwt>
<pdfrwt beam="1">  1        2 0.48861764E-01 0.84025329E+03</pdfrwt>
<pdfrwt beam="2">  1       -2 0.73721680E-01 0.84025329E+03</pdfrwt>
<totfact> 0.17196722E+02</totfact>
</mgrwt>
</event>
<event>
 4    1  0.5387486E-005  0.4612078E+03  0.7818608E-02  0.1024432E+00
          2   -1    0    0  501    0  0.00000000000E+00  0.00000000000E+00  0.18525848060E+03  0.18525848062E+03  0.25500000000E-02 0.  1.
         -2   -1    0    0    0  501 -0.00000000000E+00 -0.00000000000E+00 -0.28704847191E+03  0.28704847192E+03  0.25500000000E-02 0. -1.
    5000001    1    1    2    0    0  0.12683851756E+03 -0.70548310725E+02 -0.12249239955E+03  0.25158390574E+03  0.16500000000E+03 0.  0.
   -5000001    1    1    2    0    0 -0.12683851756E+03  0.70548310725E+02  0.20702408240E+02  0.22072304680E+03  0.16500000000E+03 0.  0.
<mgrwt>
<rscale>  0 0.46120782E+03</rscale>
<asrwt>0</asrwt>
<pdfrwt beam="1">  1        2 0.26465497E-01 0.46120782E+03</pdfrwt>
<pdfrwt beam="2">  1       -2 0.41006925E-01 0.46120782E+03</pdfrwt>
<totfact> 0.11552229E+03</totfact>
</mgrwt>
</event>
<event>
 4    1  0.5387486E-005  0.5110100E+03  0.7818608E-02  0.1010944E+00
          2   -1    0    0  501    0  0.00000000000E+00  0.00000000000E+00  0.16267761127E+04  0.16267761127E+04  0.25500000000E-02 0.  1.
         -2   -1    0    0    0  501 -0.00000000000E+00 -0.00000000000E+00 -0.40130174442E+02  0.40130174523E+02  0.25500000000E-02 0. -1.
    5000001    1    1    2    0    0 -0.11777226844E+03 -0.58006231061E+02  0.32261546868E+03  0.38540987362E+03  0.16500000000E+03 0.  0.
   -5000001    1    1    2    0    0  0.11777226844E+03  0.58006231061E+02  0.12640304696E+04  0.12814964136E+04  0.16500000000E+03 0.  0.
<mgrwt>
<rscale>  0 0.51101002E+03</rscale>
<asrwt>0</asrwt>
<pdfrwt beam="1">  1        2 0.23239657E+00 0.51101002E+03</pdfrwt>
<pdfrwt beam="2">  1       -2 0.57328825E-02 0.51101002E+03</pdfrwt>
<totfact> 0.21263044E+03</totfact>
</mgrwt>
</event>
<event>
 4    1  0.5387486E-005  0.6116925E+03  0.7818608E-02  0.9881440E-01
          2   -1    0    0  501    0  0.00000000000E+00  0.00000000000E+00  0.26845944710E+03  0.26845944712E+03  0.25500000000E-02 0.  1.
         -2   -1    0    0    0  501 -0.00000000000E+00 -0.00000000000E+00 -0.34843971361E+03  0.34843971362E+03  0.25500000000E-02 0. -1.
    5000001    1    1    2    0    0  0.35792455849E+02  0.22594124511E+03  0.79280570077E+02  0.29298627089E+03  0.16500000000E+03 0.  0.
   -5000001    1    1    2    0    0 -0.35792455849E+02 -0.22594124511E+03 -0.15926083659E+03  0.32391288985E+03  0.16500000000E+03 0.  0.
<mgrwt>
<rscale>  0 0.61169251E+03</rscale>
<asrwt>0</asrwt>
<pdfrwt beam="1">  1        2 0.38351350E-01 0.61169251E+03</pdfrwt>
<pdfrwt beam="2">  1       -2 0.49777102E-01 0.61169251E+03</pdfrwt>
<totfact> 0.51955966E+02</totfact>
</mgrwt>
</event>
<event>
 4    1  0.5387486E-005  0.5043532E+03  0.7818608E-02  0.1012649E+00
         -2   -1    0    0    0  501 -0.00000000000E+00  0.00000000000E+00  0.23873393967E+02  0.23873394103E+02  0.25500000000E-02 0. -1.
          2   -1    0    0  501    0  0.00000000000E+00 -0.00000000000E+00 -0.26637614401E+04  0.26637614401E+04  0.25500000000E-02 0.  1.
    5000001    1    1    2    0    0 -0.14319671154E+03  0.11179282092E+03 -0.16290689912E+04  0.16474506703E+04  0.16500000000E+03 0.  0.
   -5000001    1    1    2    0    0  0.14319671154E+03 -0.11179282092E+03 -0.10108190549E+04  0.10401841639E+04  0.16500000000E+03 0.  0.
<mgrwt>
<rscale>  0 0.50435316E+03</rscale>
<asrwt>0</asrwt>
<pdfrwt beam="1">  1        2 0.38053716E+00 0.50435316E+03</pdfrwt>
<pdfrwt beam="2">  1       -2 0.34104866E-02 0.50435316E+03</pdfrwt>
<totfact> 0.14169057E+03</totfact>
</mgrwt>
</event>
<event>
 4    1  0.5387486E-005  0.4681171E+03  0.7818608E-02  0.1022453E+00
         -2   -1    0    0    0  501 -0.00000000000E+00  0.00000000000E+00  0.70319333747E+02  0.70319333794E+02  0.25500000000E-02 0. -1.
          2   -1    0    0  501    0  0.00000000000E+00 -0.00000000000E+00 -0.77906610032E+03  0.77906610032E+03  0.25500000000E-02 0.  1.
    5000001    1    1    2    0    0  0.71213594442E+02 -0.12031673201E+03 -0.51677539516E+03  0.56020469569E+03  0.16500000000E+03 0.  0.
   -5000001    1    1    2    0    0 -0.71213594442E+02  0.12031673201E+03 -0.19197137141E+03  0.28918073842E+03  0.16500000000E+03 0.  0.
<mgrwt>
<rscale>  0 0.46811712E+03</rscale>
<asrwt>0</asrwt>
<pdfrwt beam="1">  1        2 0.11129515E+00 0.46811712E+03</pdfrwt>
<pdfrwt beam="2">  1       -2 0.10045620E-01 0.46811712E+03</pdfrwt>
<totfact> 0.26689862E+03</totfact>
</mgrwt>
</event>
<event>
 4    1  0.5387486E-005  0.4356297E+03  0.7818608E-02  0.1032096E+00
         -2   -1    0    0    0  501 -0.00000000000E+00  0.00000000000E+00  0.69608249056E+02  0.69608249103E+02  0.25500000000E-02 0. -1.
          2   -1    0    0  501    0  0.00000000000E+00 -0.00000000000E+00 -0.68157603634E+03  0.68157603635E+03  0.25500000000E-02 0.  1.
    5000001    1    1    2    0    0  0.11164987800E+03  0.81298508414E+02 -0.24768172160E+03  0.32809507455E+03  0.16500000000E+03 0.  0.
   -5000001    1    1    2    0    0 -0.11164987800E+03 -0.81298508414E+02 -0.36428606568E+03  0.42308921090E+03  0.16500000000E+03 0.  0.
<mgrwt>
<rscale>  0 0.43562973E+03</rscale>
<asrwt>0</asrwt>
<pdfrwt beam="1">  1        2 0.97368001E-01 0.43562973E+03</pdfrwt>
<pdfrwt beam="2">  1       -2 0.99440360E-02 0.43562973E+03</pdfrwt>
<totfact> 0.31942802E+03</totfact>
</mgrwt>
</event>
<event>
 4    1  0.5387486E-005  0.4627373E+03  0.7818608E-02  0.1023990E+00
         -2   -1    0    0    0  501 -0.00000000000E+00  0.00000000000E+00  0.74716117976E+02  0.74716118019E+02  0.25500000000E-02 0. -1.
          2   -1    0    0  501    0  0.00000000000E+00 -0.00000000000E+00 -0.71646460181E+03  0.71646460182E+03  0.25500000000E-02 0.  1.
    5000001    1    1    2    0    0 -0.84434507157E+02 -0.13837264776E+03 -0.33028241725E+03  0.40322159018E+03  0.16500000000E+03 0.  0.
   -5000001    1    1    2    0    0  0.84434507157E+02  0.13837264776E+03 -0.31146606659E+03  0.38795912965E+03  0.16500000000E+03 0.  0.
<mgrwt>
<rscale>  0 0.46273731E+03</rscale>
<asrwt>0</asrwt>
<pdfrwt beam="1">  1        2 0.10235208E+00 0.46273731E+03</pdfrwt>
<pdfrwt beam="2">  1       -2 0.10673732E-01 0.46273731E+03</pdfrwt>
<totfact> 0.26838034E+03</totfact>
</mgrwt>
</event>
<event>
 4    1  0.5387486E-005  0.4815708E+03  0.7818608E-02  0.1018704E+00
          2   -1    0    0  501    0  0.00000000000E+00  0.00000000000E+00  0.24332221106E+03  0.24332221107E+03  0.25500000000E-02 0. -1.
         -2   -1    0    0    0  501 -0.00000000000E+00 -0.00000000000E+00 -0.23827501145E+03  0.23827501146E+03  0.25500000000E-02 0.  1.
    5000001    1    1    2    0    0  0.15935246003E+03  0.70457846208E+02 -0.17354313049E+02  0.24059028823E+03  0.16500000000E+03 0.  0.
   -5000001    1    1    2    0    0 -0.15935246003E+03 -0.70457846208E+02  0.22401512658E+02  0.24100693430E+03  0.16500000000E+03 0.  0.
<mgrwt>
<rscale>  0 0.48157077E+03</rscale>
<asrwt>0</asrwt>
<pdfrwt beam="1">  1        2 0.34760316E-01 0.48157077E+03</pdfrwt>
<pdfrwt beam="2">  1       -2 0.34039287E-01 0.48157077E+03</pdfrwt>
<totfact> 0.12160430E+03</totfact>
</mgrwt>
</event>
<event>
 4    1  0.5387486E-005  0.5481101E+03  0.7818608E-02  0.1001932E+00
          2   -1    0    0  501    0  0.00000000000E+00  0.00000000000E+00  0.13876048074E+04  0.13876048074E+04  0.25500000000E-02 0.  1.
         -2   -1    0    0    0  501 -0.00000000000E+00 -0.00000000000E+00 -0.54126477874E+02  0.54126477934E+02  0.25500000000E-02 0. -1.
    5000001    1    1    2    0    0 -0.40639889152E+02 -0.21475423151E+03  0.69434931301E+03  0.74640267217E+03  0.16500000000E+03 0.  0.
   -5000001    1    1    2    0    0  0.40639889152E+02  0.21475423151E+03  0.63912901654E+03  0.69532861319E+03  0.16500000000E+03 0.  0.
<mgrwt>
<rscale>  0 0.54811007E+03</rscale>
<asrwt>0</asrwt>
<pdfrwt beam="1">  1        2 0.19822926E+00 0.54811007E+03</pdfrwt>
<pdfrwt beam="2">  1       -2 0.77323541E-02 0.54811007E+03</pdfrwt>
<totfact> 0.17665503E+03</totfact>
</mgrwt>
</event>
<event>
 4    1  0.5387486E-005  0.7453090E+03  0.7818608E-02  0.9642739E-01
          2   -1    0    0  501    0  0.00000000000E+00  0.00000000000E+00  0.21187576867E+03  0.21187576869E+03  0.25500000000E-02 0. -1.
         -2   -1    0    0    0  501 -0.00000000000E+00 -0.00000000000E+00 -0.65543779148E+03  0.65543779148E+03  0.25500000000E-02 0.  1.
    5000001    1    1    2    0    0  0.31863569104E+03 -0.46769448887E+02 -0.32541079476E+03  0.48665518625E+03  0.16500000000E+03 0.  0.
   -5000001    1    1    2    0    0 -0.31863569104E+03  0.46769448887E+02 -0.11815122804E+03  0.38065837392E+03  0.16500000000E+03 0.  0.
<mgrwt>
<rscale>  0 0.74530903E+03</rscale>
<asrwt>0</asrwt>
<pdfrwt beam="1">  1        2 0.30267967E-01 0.74530903E+03</pdfrwt>
<pdfrwt beam="2">  1       -2 0.93633969E-01 0.74530903E+03</pdfrwt>
<totfact> 0.17135132E+02</totfact>
</mgrwt>
</event>
<event>
 4    1  0.5387486E-005  0.7558732E+03  0.7818608E-02  0.9626181E-01
          2   -1    0    0  501    0  0.00000000000E+00  0.00000000000E+00  0.11531677374E+03  0.11531677377E+03  0.25500000000E-02 0.  1.
         -2   -1    0    0    0  501 -0.00000000000E+00 -0.00000000000E+00 -0.12386409225E+04  0.12386409225E+04  0.25500000000E-02 0. -1.
    5000001    1    1    2    0    0  0.28850845256E+03 -0.12073346557E+03 -0.80062699885E+03  0.87523841792E+03  0.16500000000E+03 0.  0.
   -5000001    1    1    2    0    0 -0.28850845256E+03  0.12073346557E+03 -0.32269714990E+03  0.47871927835E+03  0.16500000000E+03 0.  0.
<mgrwt>
<rscale>  0 0.75587320E+03</rscale>
<asrwt>0</asrwt>
<pdfrwt beam="1">  1        2 0.16473826E-01 0.75587320E+03</pdfrwt>
<pdfrwt beam="2">  1       -2 0.17694870E+00 0.75587320E+03</pdfrwt>
<totfact> 0.69100609E+01</totfact>
</mgrwt>
</event>
<event>
 4    1  0.5387486E-005  0.5540284E+03  0.7818608E-02  0.1000566E+00
          2   -1    0    0  501    0  0.00000000000E+00  0.00000000000E+00  0.25690958722E+04  0.25690958722E+04  0.25500000000E-02 0.  1.
         -2   -1    0    0    0  501 -0.00000000000E+00 -0.00000000000E+00 -0.29869206851E+02  0.29869206960E+02  0.25500000000E-02 0. -1.
    5000001    1    1    2    0    0 -0.37147940035E+02 -0.20355171400E+03  0.16535503886E+04  0.16745946248E+04  0.16500000000E+03 0.  0.
   -5000001    1    1    2    0    0  0.37147940035E+02  0.20355171400E+03  0.88567627669E+03  0.92437045431E+03  0.16500000000E+03 0.  0.
<mgrwt>
<rscale>  0 0.55402836E+03</rscale>
<asrwt>0</asrwt>
<pdfrwt beam="1">  1        2 0.36701373E+00 0.55402836E+03</pdfrwt>
<pdfrwt beam="2">  1       -2 0.42670292E-02 0.55402836E+03</pdfrwt>
<totfact> 0.11217056E+03</totfact>
</mgrwt>
</event>
<event>
 4    1  0.5387486E-005  0.4156611E+03  0.7818608E-02  0.1038488E+00
          2   -1    0    0  501    0  0.00000000000E+00  0.00000000000E+00  0.26932012235E+03  0.26932012236E+03  0.25500000000E-02 0.  1.
         -2   -1    0    0    0  501 -0.00000000000E+00 -0.00000000000E+00 -0.16037989787E+03  0.16037989789E+03  0.25500000000E-02 0. -1.
    5000001    1    1    2    0    0  0.33767944745E+02 -0.10577703814E+03 -0.78955516590E+01  0.19903867872E+03  0.16500000000E+03 0.  0.
   -5000001    1    1    2    0    0 -0.33767944745E+02  0.10577703814E+03  0.11683577614E+03  0.23066134153E+03  0.16500000000E+03 0.  0.
<mgrwt>
<rscale>  0 0.41566108E+03</rscale>
<asrwt>0</asrwt>
<pdfrwt beam="1">  1        2 0.38474303E-01 0.41566108E+03</pdfrwt>
<pdfrwt beam="2">  1       -2 0.22911414E-01 0.41566108E+03</pdfrwt>
<totfact> 0.22290112E+03</totfact>
</mgrwt>
</event>
<event>
 4    1  0.5387486E-005  0.4861057E+03  0.7818608E-02  0.1017471E+00
         -2   -1    0    0    0  501 -0.00000000000E+00  0.00000000000E+00  0.65609439498E+02  0.65609439548E+02  0.25500000000E-02 0. -1.
          2   -1    0    0  501    0  0.00000000000E+00 -0.00000000000E+00 -0.90039919790E+03  0.90039919790E+03  0.25500000000E-02 0.  1.
    5000001    1    1    2    0    0  0.15822807771E+03  0.79933245220E+02 -0.37646360003E+03  0.44763298629E+03  0.16500000000E+03 0.  0.
   -5000001    1    1    2    0    0 -0.15822807771E+03 -0.79933245220E+02 -0.45832615837E+03  0.51837565116E+03  0.16500000000E+03 0.  0.
<mgrwt>
<rscale>  0 0.48610570E+03</rscale>
<asrwt>0</asrwt>
<pdfrwt beam="1">  1        2 0.12862845E+00 0.48610570E+03</pdfrwt>
<pdfrwt beam="2">  1       -2 0.93727776E-02 0.48610570E+03</pdfrwt>
<totfact> 0.24762994E+03</totfact>
</mgrwt>
</event>
<event>
 4    1  0.5387486E-005  0.5526548E+03  0.7818608E-02  0.1000881E+00
         -2   -1    0    0    0  501 -0.00000000000E+00  0.00000000000E+00  0.22232399513E+03  0.22232399515E+03  0.25500000000E-02 0. -1.
          2   -1    0    0  501    0  0.00000000000E+00 -0.00000000000E+00 -0.34344850201E+03  0.34344850202E+03  0.25500000000E-02 0.  1.
    5000001    1    1    2    0    0 -0.11846422045E+03 -0.24915054550E+02  0.12952568090E+03  0.24219090297E+03  0.16500000000E+03 0.  0.
   -5000001    1    1    2    0    0  0.11846422045E+03  0.24915054550E+02 -0.25065018778E+03  0.32358159420E+03  0.16500000000E+03 0.  0.
<mgrwt>
<rscale>  0 0.55265484E+03</rscale>
<asrwt>0</asrwt>
<pdfrwt beam="1">  1        2 0.49064072E-01 0.55265484E+03</pdfrwt>
<pdfrwt beam="2">  1       -2 0.31760571E-01 0.55265484E+03</pdfrwt>
<totfact> 0.94705328E+02</totfact>
</mgrwt>
</event>
<event>
 4    1  0.5387486E-005  0.4896216E+03  0.7818608E-02  0.1016524E+00
         -2   -1    0    0    0  501 -0.00000000000E+00  0.00000000000E+00  0.45680428393E+02  0.45680428465E+02  0.25500000000E-02 0. -1.
          2   -1    0    0  501    0  0.00000000000E+00 -0.00000000000E+00 -0.13119912800E+04  0.13119912800E+04  0.25500000000E-02 0.  1.
    5000001    1    1    2    0    0  0.17521055078E+03  0.11906916422E+02 -0.75296306398E+03  0.79058136044E+03  0.16500000000E+03 0.  0.
   -5000001    1    1    2    0    0 -0.17521055078E+03 -0.11906916422E+02 -0.51334778764E+03  0.56709034803E+03  0.16500000000E+03 0.  0.
<mgrwt>
<rscale>  0 0.48962158E+03</rscale>
<asrwt>0</asrwt>
<pdfrwt beam="1">  1        2 0.18742730E+00 0.48962158E+03</pdfrwt>
<pdfrwt beam="2">  1       -2 0.65257763E-02 0.48962158E+03</pdfrwt>
<totfact> 0.25359257E+03</totfact>
</mgrwt>
</event>
<event>
 4    1  0.5387486E-005  0.4438679E+03  0.7818608E-02  0.1029567E+00
         -2   -1    0    0    0  501 -0.00000000000E+00  0.00000000000E+00  0.53267405023E+02  0.53267405084E+02  0.25500000000E-02 0. -1.
          2   -1    0    0  501    0  0.00000000000E+00 -0.00000000000E+00 -0.92466811861E+03  0.92466811861E+03  0.25500000000E-02 0.  1.
    5000001    1    1    2    0    0 -0.12157812450E+03 -0.26491708118E+02 -0.61396494880E+03  0.64781248005E+03  0.16500000000E+03 0.  0.
   -5000001    1    1    2    0    0  0.12157812450E+03  0.26491708118E+02 -0.25743576479E+03  0.33012304365E+03  0.16500000000E+03 0.  0.
<mgrwt>
<rscale>  0 0.44386787E+03</rscale>
<asrwt>0</asrwt>
<pdfrwt beam="1">  1        2 0.13209544E+00 0.44386787E+03</pdfrwt>
<pdfrwt beam="2">  1       -2 0.76096298E-02 0.44386787E+03</pdfrwt>
<totfact> 0.33278228E+03</totfact>
</mgrwt>
</event>
<event>
 4    1  0.5387486E-005  0.6027480E+03  0.7818608E-02  0.9899721E-01
         -2   -1    0    0    0  501 -0.00000000000E+00  0.00000000000E+00  0.63767321903E+02  0.63767321954E+02  0.25500000000E-02 0. -1.
          2   -1    0    0  501    0  0.00000000000E+00 -0.00000000000E+00 -0.14243391885E+04  0.14243391885E+04  0.25500000000E-02 0.  1.
    5000001    1    1    2    0    0  0.19970759205E+03 -0.14783519616E+03 -0.57372543107E+03  0.64662526845E+03  0.16500000000E+03 0.  0.
   -5000001    1    1    2    0    0 -0.19970759205E+03  0.14783519616E+03 -0.78684643555E+03  0.84148124203E+03  0.16500000000E+03 0.  0.
<mgrwt>
<rscale>  0 0.60274803E+03</rscale>
<asrwt>0</asrwt>
<pdfrwt beam="1">  1        2 0.20347701E+00 0.60274803E+03</pdfrwt>
<pdfrwt beam="2">  1       -2 0.91096183E-02 0.60274803E+03</pdfrwt>
<totfact> 0.12978572E+03</totfact>
</mgrwt>
</event>
<event>
 4    1  0.5387486E-005  0.5812887E+03  0.7818608E-02  0.9945005E-01
          2   -1    0    0  501    0  0.00000000000E+00  0.00000000000E+00  0.10738973801E+04  0.10738973801E+04  0.25500000000E-02 0.  1.
         -2   -1    0    0    0  501 -0.00000000000E+00 -0.00000000000E+00 -0.78661273137E+02  0.78661273178E+02  0.25500000000E-02 0. -1.
    5000001    1    1    2    0    0  0.21261898174E+03 -0.71415484975E+00  0.71519694259E+03  0.76415902017E+03  0.16500000000E+03 0.  0.
   -5000001    1    1    2    0    0 -0.21261898174E+03  0.71415484975E+00  0.28003916436E+03  0.38839963309E+03  0.16500000000E+03 0.  0.
<mgrwt>
<rscale>  0 0.58128869E+03</rscale>
<asrwt>0</asrwt>
<pdfrwt beam="1">  1        2 0.15341391E+00 0.58128869E+03</pdfrwt>
<pdfrwt beam="2">  1       -2 0.11237325E-01 0.58128869E+03</pdfrwt>
<totfact> 0.14442240E+03</totfact>
</mgrwt>
</event>
<event>
 4    1  0.5387486E-005  0.5538440E+03  0.7818608E-02  0.1000608E+00
         -2   -1    0    0    0  501 -0.00000000000E+00  0.00000000000E+00  0.18471249153E+03  0.18471249155E+03  0.25500000000E-02 0. -1.
          2   -1    0    0  501    0  0.00000000000E+00 -0.00000000000E+00 -0.41516303072E+03  0.41516303073E+03  0.25500000000E-02 0.  1.
    5000001    1    1    2    0    0 -0.22233157346E+03 -0.26644309788E+01 -0.12034806719E+03  0.30190575520E+03  0.16500000000E+03 0.  0.
   -5000001    1    1    2    0    0  0.22233157346E+03  0.26644309788E+01 -0.11010247201E+03  0.29796976707E+03  0.16500000000E+03 0.  0.
<mgrwt>
<rscale>  0 0.55384401E+03</rscale>
<asrwt>0</asrwt>
<pdfrwt beam="1">  1        2 0.59309004E-01 0.55384401E+03</pdfrwt>
<pdfrwt beam="2">  1       -2 0.26387499E-01 0.55384401E+03</pdfrwt>
<totfact> 0.10786365E+03</totfact>
</mgrwt>
</event>
<event>
 4    1  0.5387486E-005  0.3864700E+03  0.7818608E-02  0.1048568E+00
          2   -1    0    0  501    0  0.00000000000E+00  0.00000000000E+00  0.37721897586E+04  0.37721897586E+04  0.25500000000E-02 0.  1.
         -2   -1    0    0    0  501 -0.00000000000E+00 -0.00000000000E+00 -0.98986951286E+01  0.98986954571E+01  0.25500000000E-02 0. -1.
    5000001    1    1    2    0    0  0.42323910291E+02  0.90061315758E+02  0.17385203211E+04  0.17491655899E+04  0.16500000000E+03 0.  0.
   -5000001    1    1    2    0    0 -0.42323910291E+02 -0.90061315758E+02  0.20237707424E+04  0.20329228642E+04  0.16500000000E+03 0.  0.
<mgrwt>
<rscale>  0 0.38646996E+03</rscale>
<asrwt>0</asrwt>
<pdfrwt beam="1">  1        2 0.53888345E+00 0.38646996E+03</pdfrwt>
<pdfrwt beam="2">  1       -2 0.14141014E-02 0.38646996E+03</pdfrwt>
<totfact> 0.12753982E+03</totfact>
</mgrwt>
</event>
<event>
 4    1  0.5387486E-005  0.9372196E+03  0.7818608E-02  0.9380215E-01
          2   -1    0    0  501    0  0.00000000000E+00  0.00000000000E+00  0.63769491890E+03  0.63769491890E+03  0.25500000000E-02 0.  1.
         -2   -1    0    0    0  501 -0.00000000000E+00 -0.00000000000E+00 -0.34435766721E+03  0.34435766722E+03  0.25500000000E-02 0. -1.
    5000001    1    1    2    0    0  0.32389830719E+03 -0.18762539154E+03 -0.92863915153E+02  0.41947837571E+03  0.16500000000E+03 0.  0.
   -5000001    1    1    2    0    0 -0.32389830719E+03  0.18762539154E+03  0.38620116684E+03  0.56257421041E+03  0.16500000000E+03 0.  0.
<mgrwt>
<rscale>  0 0.93721958E+03</rscale>
<asrwt>0</asrwt>
<pdfrwt beam="1">  1        2 0.91099274E-01 0.93721958E+03</pdfrwt>
<pdfrwt beam="2">  1       -2 0.49193953E-01 0.93721958E+03</pdfrwt>
<totfact> 0.19752658E+02</totfact>
</mgrwt>
</event>
<event>
 4    1  0.5387486E-005  0.4933827E+03  0.7818608E-02  0.1015521E+00
         -2   -1    0    0    0  501 -0.00000000000E+00  0.00000000000E+00  0.35745047322E+02  0.35745047413E+02  0.25500000000E-02 0.  1.
          2   -1    0    0  501    0  0.00000000000E+00 -0.00000000000E+00 -0.17025192835E+04  0.17025192835E+04  0.25500000000E-02 0. -1.
    5000001    1    1    2    0    0 -0.11343910989E+03 -0.61851582886E+02 -0.37486786516E+03  0.42947056510E+03  0.16500000000E+03 0.  0.
   -5000001    1    1    2    0    0  0.11343910989E+03  0.61851582886E+02 -0.12919063710E+04  0.13087937658E+04  0.16500000000E+03 0.  0.
<mgrwt>
<rscale>  0 0.49338274E+03</rscale>
<asrwt>0</asrwt>
<pdfrwt beam="1">  1        2 0.24321699E+00 0.49338274E+03</pdfrwt>
<pdfrwt beam="2">  1       -2 0.51064364E-02 0.49338274E+03</pdfrwt>
<totfact> 0.23301199E+03</totfact>
</mgrwt>
</event>
<event>
 4    1  0.5387486E-005  0.4204457E+03  0.7818608E-02  0.1036921E+00
          2   -1    0    0  501    0  0.00000000000E+00  0.00000000000E+00  0.12005871374E+04  0.12005871374E+04  0.25500000000E-02 0.  1.
         -2   -1    0    0    0  501 -0.00000000000E+00 -0.00000000000E+00 -0.36810030552E+02  0.36810030641E+02  0.25500000000E-02 0. -1.
    5000001    1    1    2    0    0  0.36185283507E+02  0.70882236488E+02  0.27838233665E+03  0.33324974351E+03  0.16500000000E+03 0.  0.
   -5000001    1    1    2    0    0 -0.36185283507E+02 -0.70882236488E+02  0.88539477015E+03  0.90414742449E+03  0.16500000000E+03 0.  0.
<mgrwt>
<rscale>  0 0.42044571E+03</rscale>
<asrwt>0</asrwt>
<pdfrwt beam="1">  1        2 0.17151245E+00 0.42044571E+03</pdfrwt>
<pdfrwt beam="2">  1       -2 0.52585758E-02 0.42044571E+03</pdfrwt>
<totfact> 0.40781628E+03</totfact>
</mgrwt>
</event>
<event>
 4    1  0.5387486E-005  0.6476984E+03  0.7818608E-02  0.9811108E-01
          2   -1    0    0  501    0  0.00000000000E+00  0.00000000000E+00  0.46218163100E+03  0.46218163101E+03  0.25500000000E-02 0.  1.
         -2   -1    0    0    0  501 -0.00000000000E+00 -0.00000000000E+00 -0.22692010331E+03  0.22692010332E+03  0.25500000000E-02 0. -1.
    5000001    1    1    2    0    0  0.26252992231E+03  0.76702260041E+02  0.17440988226E+03  0.36393543910E+03  0.16500000000E+03 0.  0.
   -5000001    1    1    2    0    0 -0.26252992231E+03 -0.76702260041E+02  0.60851645430E+02  0.32516629523E+03  0.16500000000E+03 0.  0.
<mgrwt>
<rscale>  0 0.64769840E+03</rscale>
<asrwt>0</asrwt>
<pdfrwt beam="1">  1        2 0.66025947E-01 0.64769840E+03</pdfrwt>
<pdfrwt beam="2">  1       -2 0.32417158E-01 0.64769840E+03</pdfrwt>
<totfact> 0.65426732E+02</totfact>
</mgrwt>
</event>
<event>
 4    1  0.5387486E-005  0.8784136E+03  0.7818608E-02  0.9452975E-01
         -2   -1    0    0    0  501 -0.00000000000E+00  0.00000000000E+00  0.31974306688E+03  0.31974306689E+03  0.25500000000E-02 0. -1.
          2   -1    0    0  501    0  0.00000000000E+00 -0.00000000000E+00 -0.60330513042E+03  0.60330513043E+03  0.25500000000E-02 0.  1.
    5000001    1    1    2    0    0  0.10644758856E+03 -0.38127542847E+03 -0.42227461985E+02  0.43094106327E+03  0.16500000000E+03 0.  0.
   -5000001    1    1    2    0    0 -0.10644758856E+03  0.38127542847E+03 -0.24133460156E+03  0.49210713404E+03  0.16500000000E+03 0.  0.
<mgrwt>
<rscale>  0 0.87841364E+03</rscale>
<asrwt>0</asrwt>
<pdfrwt beam="1">  1        2 0.86186447E-01 0.87841364E+03</pdfrwt>
<pdfrwt beam="2">  1       -2 0.45677581E-01 0.87841364E+03</pdfrwt>
<totfact> 0.24576634E+02</totfact>
</mgrwt>
</event>
<event>
 4    1  0.5387486E-005  0.3733146E+03  0.7818608E-02  0.1053433E+00
         -2   -1    0    0    0  501 -0.00000000000E+00  0.00000000000E+00  0.73615596705E+02  0.73615596749E+02  0.25500000000E-02 0. -1.
          2   -1    0    0  501    0  0.00000000000E+00 -0.00000000000E+00 -0.47328220034E+03  0.47328220034E+03  0.25500000000E-02 0.  1.
    5000001    1    1    2    0    0  0.67159575176E+02 -0.44573268955E+02 -0.15083275222E+03  0.23763986195E+03  0.16500000000E+03 0.  0.
   -5000001    1    1    2    0    0 -0.67159575176E+02  0.44573268955E+02 -0.24883385141E+03  0.30925793514E+03  0.16500000000E+03 0.  0.
<mgrwt>
<rscale>  0 0.37331462E+03</rscale>
<asrwt>0</asrwt>
<pdfrwt beam="1">  1        2 0.67611741E-01 0.37331462E+03</pdfrwt>
<pdfrwt beam="2">  1       -2 0.10516514E-01 0.37331462E+03</pdfrwt>
<totfact> 0.44284233E+03</totfact>
</mgrwt>
</event>
<event>
 4    1  0.5387486E-005  0.5952489E+03  0.7818608E-02  0.9915312E-01
         -2   -1    0    0    0  501 -0.00000000000E+00  0.00000000000E+00  0.50679803269E+02  0.50679803333E+02  0.25500000000E-02 0. -1.
          2   -1    0    0  501    0  0.00000000000E+00 -0.00000000000E+00 -0.17478424571E+04  0.17478424571E+04  0.25500000000E-02 0.  1.
    5000001    1    1    2    0    0  0.15727235329E+02 -0.20679650880E+03 -0.12577990306E+04  0.12854164864E+04  0.16500000000E+03 0.  0.
   -5000001    1    1    2    0    0 -0.15727235329E+02  0.20679650880E+03 -0.43936362320E+03  0.51310577407E+03  0.16500000000E+03 0.  0.
<mgrwt>
<rscale>  0 0.59524890E+03</rscale>
<asrwt>0</asrwt>
<pdfrwt beam="1">  1        2 0.24969174E+00 0.59524890E+03</pdfrwt>
<pdfrwt beam="2">  1       -2 0.72399730E-02 0.59524890E+03</pdfrwt>
<totfact> 0.12755964E+03</totfact>
</mgrwt>
</event>
<event>
 4    1  0.5387486E-005  0.8258887E+03  0.7818608E-02  0.9523282E-01
         -2   -1    0    0    0  501 -0.00000000000E+00  0.00000000000E+00  0.37432710710E+03  0.37432710711E+03  0.25500000000E-02 0. -1.
          2   -1    0    0  501    0  0.00000000000E+00 -0.00000000000E+00 -0.45554554375E+03  0.45554554376E+03  0.25500000000E-02 0.  1.
    5000001    1    1    2    0    0 -0.69329415009E+01 -0.36239048317E+03 -0.15032897346E+03  0.42567443925E+03  0.16500000000E+03 0.  0.
   -5000001    1    1    2    0    0  0.69329415009E+01  0.36239048317E+03  0.69110536813E+02  0.40419821161E+03  0.16500000000E+03 0.  0.
<mgrwt>
<rscale>  0 0.82588872E+03</rscale>
<asrwt>0</asrwt>
<pdfrwt beam="1">  1        2 0.65077934E-01 0.82588872E+03</pdfrwt>
<pdfrwt beam="2">  1       -2 0.53475301E-01 0.82588872E+03</pdfrwt>
<totfact> 0.24756239E+02</totfact>
</mgrwt>
</event>
<event>
 4    1  0.5387486E-005  0.5101964E+03  0.7818608E-02  0.1011151E+00
          2   -1    0    0  501    0  0.00000000000E+00  0.00000000000E+00  0.35086437686E+03  0.35086437687E+03  0.25500000000E-02 0.  1.
         -2   -1    0    0    0  501 -0.00000000000E+00 -0.00000000000E+00 -0.18547076301E+03  0.18547076303E+03  0.25500000000E-02 0. -1.
    5000001    1    1    2    0    0 -0.90184276083E+02 -0.48930735367E+02 -0.91067432230E+02  0.21458261283E+03  0.16500000000E+03 0.  0.
   -5000001    1    1    2    0    0  0.90184276083E+02  0.48930735367E+02  0.25646104608E+03  0.32175252706E+03  0.16500000000E+03 0.  0.
<mgrwt>
<rscale>  0 0.51019637E+03</rscale>
<asrwt>0</asrwt>
<pdfrwt beam="1">  1        2 0.50123482E-01 0.51019637E+03</pdfrwt>
<pdfrwt beam="2">  1       -2 0.26495824E-01 0.51019637E+03</pdfrwt>
<totfact> 0.12896215E+03</totfact>
</mgrwt>
</event>
<event>
 4    1  0.5387486E-005  0.4259072E+03  0.7818608E-02  0.1035161E+00
          2   -1    0    0  501    0  0.00000000000E+00  0.00000000000E+00  0.72944238829E+03  0.72944238830E+03  0.25500000000E-02 0.  1.
         -2   -1    0    0    0  501 -0.00000000000E+00 -0.00000000000E+00 -0.62169719950E+02  0.62169720003E+02  0.25500000000E-02 0. -1.
    5000001    1    1    2    0    0 -0.13423630020E+03  0.23584580319E+01  0.35215602045E+03  0.41141683164E+03  0.16500000000E+03 0.  0.
   -5000001    1    1    2    0    0  0.13423630020E+03 -0.23584580319E+01  0.31511664789E+03  0.38019527666E+03  0.16500000000E+03 0.  0.
<mgrwt>
<rscale>  0 0.42590717E+03</rscale>
<asrwt>0</asrwt>
<pdfrwt beam="1">  1        2 0.10420605E+00 0.42590717E+03</pdfrwt>
<pdfrwt beam="2">  1       -2 0.88813887E-02 0.42590717E+03</pdfrwt>
<totfact> 0.35244750E+03</totfact>
</mgrwt>
</event>
<event>
 4    1  0.5387486E-005  0.4205751E+03  0.7818608E-02  0.1036879E+00
          2   -1    0    0  501    0  0.00000000000E+00  0.00000000000E+00  0.11715003094E+04  0.11715003094E+04  0.25500000000E-02 0.  1.
         -2   -1    0    0    0  501 -0.00000000000E+00 -0.00000000000E+00 -0.37747196123E+02  0.37747196209E+02  0.25500000000E-02 0. -1.
    5000001    1    1    2    0    0  0.72802957768E+00  0.13029485440E+03  0.55448541596E+03  0.59300620201E+03  0.16500000000E+03 0.  0.
   -5000001    1    1    2    0    0 -0.72802957768E+00 -0.13029485440E+03  0.57926769735E+03  0.61624130363E+03  0.16500000000E+03 0.  0.
<mgrwt>
<rscale>  0 0.42057509E+03</rscale>
<asrwt>0</asrwt>
<pdfrwt beam="1">  1        2 0.16735718E+00 0.42057509E+03</pdfrwt>
<pdfrwt beam="2">  1       -2 0.53924568E-02 0.42057509E+03</pdfrwt>
<totfact> 0.40717087E+03</totfact>
</mgrwt>
</event>
<event>
 4    1  0.5387486E-005  0.4340245E+03  0.7818608E-02  0.1032596E+00
         -2   -1    0    0    0  501 -0.00000000000E+00  0.00000000000E+00  0.72905384930E+03  0.72905384930E+03  0.25500000000E-02 0. -1.
          2   -1    0    0  501    0  0.00000000000E+00 -0.00000000000E+00 -0.64596474950E+02  0.64596475000E+02  0.25500000000E-02 0.  1.
    5000001    1    1    2    0    0 -0.90651676301E+00 -0.10773118106E+03  0.49844367761E+03  0.53598314236E+03  0.16500000000E+03 0.  0.
   -5000001    1    1    2    0    0  0.90651676301E+00  0.10773118106E+03  0.16601369674E+03  0.25766718194E+03  0.16500000000E+03 0.  0.
<mgrwt>
<rscale>  0 0.43402446E+03</rscale>
<asrwt>0</asrwt>
<pdfrwt beam="1">  1        2 0.92280682E-02 0.43402446E+03</pdfrwt>
<pdfrwt beam="2">  1       -2 0.10415055E+00 0.43402446E+03</pdfrwt>
<totfact> 0.55631227E+02</totfact>
</mgrwt>
</event>
<event>
 4    1  0.5387486E-005  0.8002766E+03  0.7818608E-02  0.9559617E-01
         -2   -1    0    0    0  501 -0.00000000000E+00  0.00000000000E+00  0.98451761480E+02  0.98451761513E+02  0.25500000000E-02 0. -1.
          2   -1    0    0  501    0  0.00000000000E+00 -0.00000000000E+00 -0.16262852313E+04  0.16262852313E+04  0.25500000000E-02 0.  1.
    5000001    1    1    2    0    0 -0.33435254793E+03  0.16687030621E+02 -0.45297654959E+03  0.58692660340E+03  0.16500000000E+03 0.  0.
   -5000001    1    1    2    0    0  0.33435254793E+03 -0.16687030621E+02 -0.10748569202E+04  0.11378103894E+04  0.16500000000E+03 0.  0.
<mgrwt>
<rscale>  0 0.80027657E+03</rscale>
<asrwt>0</asrwt>
<pdfrwt beam="1">  1        2 0.23232645E+00 0.80027657E+03</pdfrwt>
<pdfrwt beam="2">  1       -2 0.14064538E-01 0.80027657E+03</pdfrwt>
<totfact> 0.49413509E+02</totfact>
</mgrwt>
</event>
<event>
 4    1  0.5387486E-005  0.8112782E+03  0.7818608E-02  0.9543834E-01
          2   -1    0    0  501    0  0.00000000000E+00  0.00000000000E+00  0.87143424348E+03  0.87143424348E+03  0.25500000000E-02 0.  1.
         -2   -1    0    0    0  501 -0.00000000000E+00 -0.00000000000E+00 -0.18881872053E+03  0.18881872054E+03  0.25500000000E-02 0. -1.
    5000001    1    1    2    0    0  0.35729982604E+03  0.42225253690E+02  0.45726053320E+03  0.60477957387E+03  0.16500000000E+03 0.  0.
   -5000001    1    1    2    0    0 -0.35729982604E+03 -0.42225253690E+02  0.22535498975E+03  0.45547339016E+03  0.16500000000E+03 0.  0.
<mgrwt>
<rscale>  0 0.81127825E+03</rscale>
<asrwt>0</asrwt>
<pdfrwt beam="1">  1        2 0.12449061E+00 0.81127825E+03</pdfrwt>
<pdfrwt beam="2">  1       -2 0.26974103E-01 0.81127825E+03</pdfrwt>
<totfact> 0.42478441E+02</totfact>
</mgrwt>
</event>
<event>
 4    1  0.5387486E-005  0.4619678E+03  0.7818608E-02  0.1024212E+00
          2   -1    0    0  501    0  0.00000000000E+00  0.00000000000E+00  0.47125865205E+02  0.47125865274E+02  0.25500000000E-02 0.  1.
         -2   -1    0    0    0  501 -0.00000000000E+00 -0.00000000000E+00 -0.11321502181E+04  0.11321502181E+04  0.25500000000E-02 0. -1.
    5000001    1    1    2    0    0  0.11760414377E+03 -0.10266762012E+03 -0.64951922603E+03  0.68809272619E+03  0.16500000000E+03 0.  0.
   -5000001    1    1    2    0    0 -0.11760414377E+03  0.10266762012E+03 -0.43550512690E+03  0.49118335722E+03  0.16500000000E+03 0.  0.
<mgrwt>
<rscale>  0 0.46196779E+03</rscale>
<asrwt>0</asrwt>
<pdfrwt beam="1">  1        2 0.67322672E-02 0.46196779E+03</pdfrwt>
<pdfrwt beam="2">  1       -2 0.16173573E+00 0.46196779E+03</pdfrwt>
<totfact> 0.27677560E+02</totfact>
</mgrwt>
</event>
<event>
 4    1  0.5387486E-005  0.5399006E+03  0.7818608E-02  0.1003859E+00
         -2   -1    0    0    0  501 -0.00000000000E+00  0.00000000000E+00  0.12931921361E+03  0.12931921364E+03  0.25500000000E-02 0.  1.
          2   -1    0    0  501    0  0.00000000000E+00 -0.00000000000E+00 -0.56351385353E+03  0.56351385353E+03  0.25500000000E-02 0. -1.
    5000001    1    1    2    0    0  0.14965801394E+03  0.15229387094E+03 -0.22680475391E+03  0.35250012860E+03  0.16500000000E+03 0.  0.
   -5000001    1    1    2    0    0 -0.14965801394E+03 -0.15229387094E+03 -0.20738988600E+03  0.34033293858E+03  0.16500000000E+03 0.  0.
<mgrwt>
<rscale>  0 0.53990061E+03</rscale>
<asrwt>0</asrwt>
<pdfrwt beam="1">  1        2 0.80501978E-01 0.53990061E+03</pdfrwt>
<pdfrwt beam="2">  1       -2 0.18474174E-01 0.53990061E+03</pdfrwt>
<totfact> 0.14309686E+03</totfact>
</mgrwt>
</event>
<event>
 4    1  0.5387486E-005  0.5455107E+03  0.7818608E-02  0.1002538E+00
          2   -1    0    0  501    0  0.00000000000E+00  0.00000000000E+00  0.55963829368E+03  0.55963829369E+03  0.25500000000E-02 0.  1.
         -2   -1    0    0    0  501 -0.00000000000E+00 -0.00000000000E+00 -0.13293493451E+03  0.13293493454E+03  0.25500000000E-02 0. -1.
    5000001    1    1    2    0    0 -0.21503372144E+03  0.19937000125E+02  0.24267596541E+03  0.36435368739E+03  0.16500000000E+03 0.  0.
   -5000001    1    1    2    0    0  0.21503372144E+03 -0.19937000125E+02  0.18402739376E+03  0.32821954083E+03  0.16500000000E+03 0.  0.
<mgrwt>
<rscale>  0 0.54551070E+03</rscale>
<asrwt>0</asrwt>
<pdfrwt beam="1">  1        2 0.79948328E-01 0.54551070E+03</pdfrwt>
<pdfrwt beam="2">  1       -2 0.18990705E-01 0.54551070E+03</pdfrwt>
<totfact> 0.13754777E+03</totfact>
</mgrwt>
</event>
<event>
 4    1  0.5387486E-005  0.4245580E+03  0.7818608E-02  0.1035593E+00
          2   -1    0    0  501    0  0.00000000000E+00  0.00000000000E+00  0.60834275586E+03  0.60834275586E+03  0.25500000000E-02 0.  1.
         -2   -1    0    0    0  501 -0.00000000000E+00 -0.00000000000E+00 -0.74073976396E+02  0.74073976440E+02  0.25500000000E-02 0. -1.
    5000001    1    1    2    0    0 -0.36674820828E+02  0.88299632335E+02  0.41701999845E+03  0.45855484586E+03  0.16500000000E+03 0.  0.
   -5000001    1    1    2    0    0  0.36674820828E+02 -0.88299632335E+02  0.11724878101E+03  0.22386188644E+03  0.16500000000E+03 0.  0.
<mgrwt>
<rscale>  0 0.42455797E+03</rscale>
<asrwt>0</asrwt>
<pdfrwt beam="1">  1        2 0.86906105E-01 0.42455797E+03</pdfrwt>
<pdfrwt beam="2">  1       -2 0.10581997E-01 0.42455797E+03</pdfrwt>
<totfact> 0.33043378E+03</totfact>
</mgrwt>
</event>
<event>
 4    1  0.5387486E-005  0.4727357E+03  0.7818608E-02  0.1021151E+00
          2   -1    0    0  501    0  0.00000000000E+00  0.00000000000E+00  0.28736568131E+04  0.28736568131E+04  0.25500000000E-02 0.  1.
         -2   -1    0    0    0  501 -0.00000000000E+00 -0.00000000000E+00 -0.19442042802E+02  0.19442042969E+02  0.25500000000E-02 0. -1.
    5000001    1    1    2    0    0  0.88077760677E+02 -0.14451011776E+03  0.14391822919E+04  0.14584620446E+04  0.16500000000E+03 0.  0.
   -5000001    1    1    2    0    0 -0.88077760677E+02  0.14451011776E+03  0.14150324784E+04  0.14346368115E+04  0.16500000000E+03 0.  0.
<mgrwt>
<rscale>  0 0.47273569E+03</rscale>
<asrwt>0</asrwt>
<pdfrwt beam="1">  1        2 0.41052213E+00 0.47273569E+03</pdfrwt>
<pdfrwt beam="2">  1       -2 0.27774365E-02 0.47273569E+03</pdfrwt>
<totfact> 0.15046678E+03</totfact>
</mgrwt>
</event>
<event>
 4    1  0.5387486E-005  0.4429046E+03  0.7818608E-02  0.1029859E+00
         -2   -1    0    0    0  501 -0.00000000000E+00  0.00000000000E+00  0.51492850369E+02  0.51492850432E+02  0.25500000000E-02 0. -1.
          2   -1    0    0  501    0  0.00000000000E+00 -0.00000000000E+00 -0.95238705335E+03  0.95238705335E+03  0.25500000000E-02 0.  1.
    5000001    1    1    2    0    0 -0.31572359808E+02 -0.14015245809E+03 -0.52819447560E+03  0.57171140401E+03  0.16500000000E+03 0.  0.
   -5000001    1    1    2    0    0  0.31572359808E+02  0.14015245809E+03 -0.37269972738E+03  0.43216849978E+03  0.16500000000E+03 0.  0.
<mgrwt>
<rscale>  0 0.44290461E+03</rscale>
<asrwt>0</asrwt>
<pdfrwt beam="1">  1        2 0.13605528E+00 0.44290461E+03</pdfrwt>
<pdfrwt beam="2">  1       -2 0.73561221E-02 0.44290461E+03</pdfrwt>
<totfact> 0.33733445E+03</totfact>
</mgrwt>
</event>
<event>
 4    1  0.5387486E-005  0.3938396E+03  0.7818608E-02  0.1045934E+00
          2   -1    0    0  501    0  0.00000000000E+00  0.00000000000E+00  0.90828369561E+03  0.90828369562E+03  0.25500000000E-02 0.  1.
         -2   -1    0    0    0  501 -0.00000000000E+00 -0.00000000000E+00 -0.42693058546E+02  0.42693058622E+02  0.25500000000E-02 0. -1.
    5000001    1    1    2    0    0  0.87019984977E+01 -0.88395596013E+02  0.28665730077E+03  0.34247177147E+03  0.16500000000E+03 0.  0.
   -5000001    1    1    2    0    0 -0.87019984977E+01  0.88395596013E+02  0.57893333630E+03  0.60850498277E+03  0.16500000000E+03 0.  0.
<mgrwt>
<rscale>  0 0.39383961E+03</rscale>
<asrwt>0</asrwt>
<pdfrwt beam="1">  1        2 0.12975480E+00 0.39383961E+03</pdfrwt>
<pdfrwt beam="2">  1       -2 0.60990090E-02 0.39383961E+03</pdfrwt>
<totfact> 0.48106176E+03</totfact>
</mgrwt>
</event>
<event>
 4    1  0.5387486E-005  0.4329027E+03  0.7818608E-02  0.1032947E+00
          2   -1    0    0  501    0  0.00000000000E+00  0.00000000000E+00  0.35290839958E+04  0.35290839958E+04  0.25500000000E-02 0.  1.
         -2   -1    0    0    0  501 -0.00000000000E+00 -0.00000000000E+00 -0.13275733190E+02  0.13275733434E+02  0.25500000000E-02 0. -1.
    5000001    1    1    2    0    0  0.10784272726E+03 -0.86074851853E+02  0.19561991076E+04  0.19679885372E+04  0.16500000000E+03 0.  0.
   -5000001    1    1    2    0    0 -0.10784272726E+03  0.86074851853E+02  0.15596091550E+04  0.15743711920E+04  0.16500000000E+03 0.  0.
<mgrwt>
<rscale>  0 0.43290266E+03</rscale>
<asrwt>0</asrwt>
<pdfrwt beam="1">  1        2 0.50415526E+00 0.43290266E+03</pdfrwt>
<pdfrwt beam="2">  1       -2 0.18965318E-02 0.43290266E+03</pdfrwt>
<totfact> 0.11521992E+03</totfact>
</mgrwt>
</event>
<event>
 4    1  0.5387486E-005  0.7314784E+03  0.7818608E-02  0.9664864E-01
          2   -1    0    0  501    0  0.00000000000E+00  0.00000000000E+00  0.80059685812E+02  0.80059685852E+02  0.25500000000E-02 0. -1.
         -2   -1    0    0    0  501 -0.00000000000E+00 -0.00000000000E+00 -0.16708179853E+04  0.16708179853E+04  0.25500000000E-02 0.  1.
    5000001    1    1    2    0    0 -0.47010201523E+02 -0.10824810138E+03 -0.66946801028E+02  0.21362229441E+03  0.16500000000E+03 0.  0.
   -5000001    1    1    2    0    0  0.47010201523E+02  0.10824810138E+03 -0.15238114985E+04  0.15372553767E+04  0.16500000000E+03 0.  0.
<mgrwt>
<rscale>  0 0.73147840E+03</rscale>
<asrwt>0</asrwt>
<pdfrwt beam="1">  1        2 0.11437099E-01 0.73147840E+03</pdfrwt>
<pdfrwt beam="2">  1       -2 0.23868826E+00 0.73147840E+03</pdfrwt>
<totfact> 0.43469357E+01</totfact>
</mgrwt>
</event>
<event>
 4    1  0.5387486E-005  0.4087733E+03  0.7818608E-02  0.1040783E+00
         -2   -1    0    0    0  501 -0.00000000000E+00  0.00000000000E+00  0.25273743775E+03  0.25273743776E+03  0.25500000000E-02 0. -1.
          2   -1    0    0  501    0  0.00000000000E+00 -0.00000000000E+00 -0.16528574135E+03  0.16528574137E+03  0.25500000000E-02 0.  1.
    5000001    1    1    2    0    0  0.82167172651E+02  0.82719504648E+02  0.12124575335E+02  0.20240050899E+03  0.16500000000E+03 0.  0.
   -5000001    1    1    2    0    0 -0.82167172651E+02 -0.82719504648E+02  0.75327121065E+02  0.21562267014E+03  0.16500000000E+03 0.  0.
<mgrwt>
<rscale>  0 0.40877326E+03</rscale>
<asrwt>0</asrwt>
<pdfrwt beam="1">  1        2 0.23612249E-01 0.40877326E+03</pdfrwt>
<pdfrwt beam="2">  1       -2 0.36105348E-01 0.40877326E+03</pdfrwt>
<totfact> 0.16760488E+03</totfact>
</mgrwt>
</event>
<event>
 4    1  0.5387486E-005  0.5416519E+03  0.7818608E-02  0.1003445E+00
         -2   -1    0    0    0  501 -0.00000000000E+00  0.00000000000E+00  0.50783751753E+02  0.50783751817E+02  0.25500000000E-02 0. -1.
          2   -1    0    0  501    0  0.00000000000E+00 -0.00000000000E+00 -0.14442945563E+04  0.14442945563E+04  0.25500000000E-02 0.  1.
    5000001    1    1    2    0    0  0.62154242910E+02 -0.10460887922E+03 -0.20830154815E+03  0.29226820300E+03  0.16500000000E+03 0.  0.
   -5000001    1    1    2    0    0 -0.62154242910E+02  0.10460887922E+03 -0.11852092564E+04  0.12028101051E+04  0.16500000000E+03 0.  0.
<mgrwt>
<rscale>  0 0.54165190E+03</rscale>
<asrwt>0</asrwt>
<pdfrwt beam="1">  1        2 0.20632777E+00 0.54165190E+03</pdfrwt>
<pdfrwt beam="2">  1       -2 0.72548225E-02 0.54165190E+03</pdfrwt>
<totfact> 0.18244704E+03</totfact>
</mgrwt>
</event>
<event>
 4    1  0.5387486E-005  0.5327713E+03  0.7818608E-02  0.1005562E+00
          2   -1    0    0  501    0  0.00000000000E+00  0.00000000000E+00  0.22266491091E+04  0.22266491091E+04  0.25500000000E-02 0.  1.
         -2   -1    0    0    0  501 -0.00000000000E+00 -0.00000000000E+00 -0.31869107858E+02  0.31869107960E+02  0.25500000000E-02 0. -1.
    5000001    1    1    2    0    0  0.19548708541E+03  0.34044125702E+02  0.81740714024E+03  0.85717771551E+03  0.16500000000E+03 0.  0.
   -5000001    1    1    2    0    0 -0.19548708541E+03 -0.34044125702E+02  0.13773728610E+04  0.14013405016E+04  0.16500000000E+03 0.  0.
<mgrwt>
<rscale>  0 0.53277132E+03</rscale>
<asrwt>0</asrwt>
<pdfrwt beam="1">  1        2 0.31809285E+00 0.53277132E+03</pdfrwt>
<pdfrwt beam="2">  1       -2 0.45527280E-02 0.53277132E+03</pdfrwt>
<totfact> 0.15172881E+03</totfact>
</mgrwt>
</event>
<event>
 4    1  0.5387486E-005  0.3751244E+03  0.7818608E-02  0.1052751E+00
          2   -1    0    0  501    0  0.00000000000E+00  0.00000000000E+00  0.10773894350E+03  0.10773894353E+03  0.25500000000E-02 0.  1.
         -2   -1    0    0    0  501 -0.00000000000E+00 -0.00000000000E+00 -0.32652619802E+03  0.32652619803E+03  0.25500000000E-02 0. -1.
    5000001    1    1    2    0    0  0.83694823324E+02  0.17691422861E+02 -0.80180804053E+02  0.20241484934E+03  0.16500000000E+03 0.  0.
   -5000001    1    1    2    0    0 -0.83694823324E+02 -0.17691422861E+02 -0.13860645047E+03  0.23185029223E+03  0.16500000000E+03 0.  0.
<mgrwt>
<rscale>  0 0.37512445E+03</rscale>
<asrwt>0</asrwt>
<pdfrwt beam="1">  1        2 0.15391278E-01 0.37512445E+03</pdfrwt>
<pdfrwt beam="2">  1       -2 0.46646599E-01 0.37512445E+03</pdfrwt>
<totfact> 0.16788766E+03</totfact>
</mgrwt>
</event>
<event>
 4    1  0.5387486E-005  0.4661476E+03  0.7818608E-02  0.1023013E+00
         -2   -1    0    0    0  501 -0.00000000000E+00  0.00000000000E+00  0.33720838158E+02  0.33720838255E+02  0.25500000000E-02 0. -1.
          2   -1    0    0  501    0  0.00000000000E+00 -0.00000000000E+00 -0.16109742622E+04  0.16109742622E+04  0.25500000000E-02 0.  1.
    5000001    1    1    2    0    0  0.87632941593E+02 -0.12974119236E+03 -0.60920128386E+03  0.65027956580E+03  0.16500000000E+03 0.  0.
   -5000001    1    1    2    0    0 -0.87632941593E+02  0.12974119236E+03 -0.96805214022E+03  0.99441553468E+03  0.16500000000E+03 0.  0.
<mgrwt>
<rscale>  0 0.46614763E+03</rscale>
<asrwt>0</asrwt>
<pdfrwt beam="1">  1        2 0.23013913E+00 0.46614763E+03</pdfrwt>
<pdfrwt beam="2">  1       -2 0.48172636E-02 0.46614763E+03</pdfrwt>
<totfact> 0.28383647E+03</totfact>
</mgrwt>
</event>
<event>
 4    1  0.5387486E-005  0.8197427E+03  0.7818608E-02  0.9531872E-01
          2   -1    0    0  501    0  0.00000000000E+00  0.00000000000E+00  0.71716268099E+03  0.71716268099E+03  0.25500000000E-02 0.  1.
         -2   -1    0    0    0  501 -0.00000000000E+00 -0.00000000000E+00 -0.23424880854E+03  0.23424880855E+03  0.25500000000E-02 0. -1.
    5000001    1    1    2    0    0  0.36391596368E+03 -0.81559154915E+02  0.28906762075E+03  0.49987179730E+03  0.16500000000E+03 0.  0.
   -5000001    1    1    2    0    0 -0.36391596368E+03  0.81559154915E+02  0.19384625170E+03  0.45153969224E+03  0.16500000000E+03 0.  0.
<mgrwt>
<rscale>  0 0.81974265E+03</rscale>
<asrwt>0</asrwt>
<pdfrwt beam="1">  1        2 0.10245181E+00 0.81974265E+03</pdfrwt>
<pdfrwt beam="2">  1       -2 0.33464116E-01 0.81974265E+03</pdfrwt>
<totfact> 0.36552552E+02</totfact>
</mgrwt>
</event>
<event>
 4    1  0.5387486E-005  0.1152301E+04  0.7818608E-02  0.9155663E-01
          2   -1    0    0  501    0  0.00000000000E+00  0.00000000000E+00  0.46844487289E+03  0.46844487290E+03  0.25500000000E-02 0.  1.
         -2   -1    0    0    0  501 -0.00000000000E+00 -0.00000000000E+00 -0.70862026960E+03  0.70862026961E+03  0.25500000000E-02 0. -1.
    5000001    1    1    2    0    0 -0.54979303977E+03  0.43966065953E+02 -0.14336179233E+03  0.59328155629E+03  0.16500000000E+03 0.  0.
   -5000001    1    1    2    0    0  0.54979303977E+03 -0.43966065953E+02 -0.96813604387E+02  0.58378358621E+03  0.16500000000E+03 0.  0.
<mgrwt>
<rscale>  0 0.11523012E+04</rscale>
<asrwt>0</asrwt>
<pdfrwt beam="1">  1        2 0.66920696E-01 0.11523012E+04</pdfrwt>
<pdfrwt beam="2">  1       -2 0.10123147E+00 0.11523012E+04</pdfrwt>
<totfact> 0.57505489E+01</totfact>
</mgrwt>
</event>
<event>
 4    1  0.5387486E-005  0.4659170E+03  0.7818608E-02  0.1023079E+00
          2   -1    0    0  501    0  0.00000000000E+00  0.00000000000E+00  0.39913549454E+04  0.39913549454E+04  0.25500000000E-02 0.  1.
         -2   -1    0    0    0  501 -0.00000000000E+00 -0.00000000000E+00 -0.13596799572E+02  0.13596799811E+02  0.25500000000E-02 0. -1.
    5000001    1    1    2    0    0 -0.13161165289E+03 -0.16253679803E+02  0.11528761270E+04  0.11721493819E+04  0.16500000000E+03 0.  0.
   -5000001    1    1    2    0    0  0.13161165289E+03  0.16253679803E+02  0.28248820189E+04  0.28328023634E+04  0.16500000000E+03 0.  0.
<mgrwt>
<rscale>  0 0.46591696E+03</rscale>
<asrwt>0</asrwt>
<pdfrwt beam="1">  1        2 0.57019325E+00 0.46591696E+03</pdfrwt>
<pdfrwt beam="2">  1       -2 0.19424010E-02 0.46591696E+03</pdfrwt>
<totfact> 0.56953948E+02</totfact>
</mgrwt>
</event>
<event>
 4    1  0.5387486E-005  0.1715151E+04  0.7818608E-02  0.8752770E-01
          2   -1    0    0  501    0  0.00000000000E+00  0.00000000000E+00  0.49978914327E+03  0.49978914328E+03  0.25500000000E-02 0.  1.
         -2   -1    0    0    0  501 -0.00000000000E+00 -0.00000000000E+00 -0.14714925360E+04  0.14714925360E+04  0.25500000000E-02 0. -1.
    5000001    1    1    2    0    0 -0.56521100651E+03  0.29123278764E+03  0.14777538564E+03  0.67330719814E+03  0.16500000000E+03 0.  0.
   -5000001    1    1    2    0    0  0.56521100651E+03 -0.29123278764E+03 -0.11194787784E+04  0.12979744811E+04  0.16500000000E+03 0.  0.
<mgrwt>
<rscale>  0 0.17151513E+04</rscale>
<asrwt>0</asrwt>
<pdfrwt beam="1">  1        2 0.71398450E-01 0.17151513E+04</pdfrwt>
<pdfrwt beam="2">  1       -2 0.21021322E+00 0.17151513E+04</pdfrwt>
<totfact> 0.73009381E+00</totfact>
</mgrwt>
</event>
<event>
 4    1  0.5387486E-005  0.8090816E+03  0.7818608E-02  0.9546964E-01
          2   -1    0    0  501    0  0.00000000000E+00  0.00000000000E+00  0.25841531430E+04  0.25841531430E+04  0.25500000000E-02 0.  1.
         -2   -1    0    0    0  501 -0.00000000000E+00 -0.00000000000E+00 -0.63329558511E+02  0.63329558562E+02  0.25500000000E-02 0. -1.
    5000001    1    1    2    0    0  0.11283593544E+03 -0.32866413426E+03  0.16701074911E+04  0.17138366588E+04  0.16500000000E+03 0.  0.
   -5000001    1    1    2    0    0 -0.11283593544E+03  0.32866413426E+03  0.85071609340E+03  0.93364604270E+03  0.16500000000E+03 0.  0.
<mgrwt>
<rscale>  0 0.80908165E+03</rscale>
<asrwt>0</asrwt>
<pdfrwt beam="1">  1        2 0.36916474E+00 0.80908165E+03</pdfrwt>
<pdfrwt beam="2">  1       -2 0.90470796E-02 0.80908165E+03</pdfrwt>
<totfact> 0.33071961E+02</totfact>
</mgrwt>
</event>
<event>
 4    1  0.5387486E-005  0.3812908E+03  0.7818608E-02  0.1050458E+00
          2   -1    0    0  501    0  0.00000000000E+00  0.00000000000E+00  0.70989976472E+03  0.70989976473E+03  0.25500000000E-02 0.  1.
         -2   -1    0    0    0  501 -0.00000000000E+00 -0.00000000000E+00 -0.51198309582E+02  0.51198309646E+02  0.25500000000E-02 0. -1.
    5000001    1    1    2    0    0  0.65618680518E+02 -0.45393433615E+02  0.22459220574E+03  0.28988451826E+03  0.16500000000E+03 0.  0.
   -5000001    1    1    2    0    0 -0.65618680518E+02  0.45393433615E+02  0.43410924940E+03  0.47121355611E+03  0.16500000000E+03 0.  0.
<mgrwt>
<rscale>  0 0.38129080E+03</rscale>
<asrwt>0</asrwt>
<pdfrwt beam="1">  1        2 0.10141425E+00 0.38129080E+03</pdfrwt>
<pdfrwt beam="2">  1       -2 0.73140446E-02 0.38129080E+03</pdfrwt>
<totfact> 0.49412323E+03</totfact>
</mgrwt>
</event>
<event>
 4    1  0.5387486E-005  0.4659343E+03  0.7818608E-02  0.1023074E+00
         -2   -1    0    0    0  501 -0.00000000000E+00  0.00000000000E+00  0.48427260379E+03  0.48427260380E+03  0.25500000000E-02 0. -1.
          2   -1    0    0  501    0  0.00000000000E+00 -0.00000000000E+00 -0.11207263025E+03  0.11207263028E+03  0.25500000000E-02 0.  1.
    5000001    1    1    2    0    0  0.10298153548E+03 -0.12819258258E+03  0.18201843858E+03  0.29562517968E+03  0.16500000000E+03 0.  0.
   -5000001    1    1    2    0    0 -0.10298153548E+03  0.12819258258E+03  0.19018153496E+03  0.30072005440E+03  0.16500000000E+03 0.  0.
<mgrwt>
<rscale>  0 0.46593435E+03</rscale>
<asrwt>0</asrwt>
<pdfrwt beam="1">  1        2 0.16010376E-01 0.46593435E+03</pdfrwt>
<pdfrwt beam="2">  1       -2 0.69181799E-01 0.46593435E+03</pdfrwt>
<totfact> 0.71053879E+02</totfact>
</mgrwt>
</event>
<event>
 4    1  0.5387486E-005  0.7126857E+03  0.7818608E-02  0.9695781E-01
         -2   -1    0    0    0  501 -0.00000000000E+00  0.00000000000E+00  0.22654321753E+03  0.22654321754E+03  0.25500000000E-02 0. -1.
          2   -1    0    0  501    0  0.00000000000E+00 -0.00000000000E+00 -0.56051221962E+03  0.56051221963E+03  0.25500000000E-02 0.  1.
    5000001    1    1    2    0    0 -0.15369517357E+03  0.96016645462E+02 -0.45265489061E+03  0.51474542502E+03  0.16500000000E+03 0.  0.
   -5000001    1    1    2    0    0  0.15369517357E+03 -0.96016645462E+02  0.11868588852E+03  0.27231001215E+03  0.16500000000E+03 0.  0.
<mgrwt>
<rscale>  0 0.71268574E+03</rscale>
<asrwt>0</asrwt>
<pdfrwt beam="1">  1        2 0.80073173E-01 0.71268574E+03</pdfrwt>
<pdfrwt beam="2">  1       -2 0.32363317E-01 0.71268574E+03</pdfrwt>
<totfact> 0.52534890E+02</totfact>
</mgrwt>
</event>
<event>
 4    1  0.5387486E-005  0.6024954E+03  0.7818608E-02  0.9900242E-01
          2   -1    0    0  501    0  0.00000000000E+00  0.00000000000E+00  0.26420430024E+04  0.26420430024E+04  0.25500000000E-02 0. -1.
         -2   -1    0    0    0  501 -0.00000000000E+00 -0.00000000000E+00 -0.34348489019E+02  0.34348489114E+02  0.25500000000E-02 0.  1.
    5000001    1    1    2    0    0  0.14639539093E+03 -0.19680487640E+03  0.15613945397E+04  0.15891323666E+04  0.16500000000E+03 0.  0.
   -5000001    1    1    2    0    0 -0.14639539093E+03  0.19680487640E+03  0.10462999737E+04  0.10872591250E+04  0.16500000000E+03 0.  0.
<mgrwt>
<rscale>  0 0.60249543E+03</rscale>
<asrwt>0</asrwt>
<pdfrwt beam="1">  1        2 0.37743490E+00 0.60249543E+03</pdfrwt>
<pdfrwt beam="2">  1       -2 0.49069246E-02 0.60249543E+03</pdfrwt>
<totfact> 0.82564257E+02</totfact>
</mgrwt>
</event>
<event>
 4    1  0.5387486E-005  0.4991970E+03  0.7818608E-02  0.1013989E+00
         -2   -1    0    0    0  501 -0.00000000000E+00  0.00000000000E+00  0.49841932115E+02  0.49841932180E+02  0.25500000000E-02 0. -1.
          2   -1    0    0  501    0  0.00000000000E+00 -0.00000000000E+00 -0.12499397707E+04  0.12499397707E+04  0.25500000000E-02 0.  1.
    5000001    1    1    2    0    0  0.20836341936E+02 -0.15863117409E+03 -0.34658252746E+03  0.41586350029E+03  0.16500000000E+03 0.  0.
   -5000001    1    1    2    0    0 -0.20836341936E+02  0.15863117409E+03 -0.85351531109E+03  0.88391820255E+03  0.16500000000E+03 0.  0.
<mgrwt>
<rscale>  0 0.49919701E+03</rscale>
<asrwt>0</asrwt>
<pdfrwt beam="1">  1        2 0.17856281E+00 0.49919701E+03</pdfrwt>
<pdfrwt beam="2">  1       -2 0.71202768E-02 0.49919701E+03</pdfrwt>
<totfact> 0.23894618E+03</totfact>
</mgrwt>
</event>
<event>
 4    1  0.5387486E-005  0.4034820E+03  0.7818608E-02  0.1042581E+00
         -2   -1    0    0    0  501 -0.00000000000E+00  0.00000000000E+00  0.89828792279E+02  0.89828792315E+02  0.25500000000E-02 0. -1.
          2   -1    0    0  501    0  0.00000000000E+00 -0.00000000000E+00 -0.45307785158E+03  0.45307785158E+03  0.25500000000E-02 0.  1.
    5000001    1    1    2    0    0 -0.27804550592E+02  0.71541524805E+02 -0.29879708072E+03  0.34985136594E+03  0.16500000000E+03 0.  0.
   -5000001    1    1    2    0    0  0.27804550592E+02 -0.71541524805E+02 -0.64451978581E+02  0.19305527796E+03  0.16500000000E+03 0.  0.
<mgrwt>
<rscale>  0 0.40348203E+03</rscale>
<asrwt>0</asrwt>
<pdfrwt beam="1">  1        2 0.64725406E-01 0.40348203E+03</pdfrwt>
<pdfrwt beam="2">  1       -2 0.12832685E-01 0.40348203E+03</pdfrwt>
<totfact> 0.33691423E+03</totfact>
</mgrwt>
</event>
<event>
 4    1  0.5387486E-005  0.6594979E+03  0.7818608E-02  0.9789118E-01
          2   -1    0    0  501    0  0.00000000000E+00  0.00000000000E+00  0.69955265389E+03  0.69955265390E+03  0.25500000000E-02 0.  1.
         -2   -1    0    0    0  501 -0.00000000000E+00 -0.00000000000E+00 -0.15543414727E+03  0.15543414729E+03  0.25500000000E-02 0. -1.
    5000001    1    1    2    0    0  0.18117086834E+03 -0.21971722701E+03  0.29833623068E+03  0.44421621978E+03  0.16500000000E+03 0.  0.
   -5000001    1    1    2    0    0 -0.18117086834E+03  0.21971722701E+03  0.24578227595E+03  0.41077058141E+03  0.16500000000E+03 0.  0.
<mgrwt>
<rscale>  0 0.65949790E+03</rscale>
<asrwt>0</asrwt>
<pdfrwt beam="1">  1        2 0.99936094E-01 0.65949790E+03</pdfrwt>
<pdfrwt beam="2">  1       -2 0.22204878E-01 0.65949790E+03</pdfrwt>
<totfact> 0.80140009E+02</totfact>
</mgrwt>
</event>
<event>
 4    1  0.5387486E-005  0.5661141E+03  0.7818608E-02  0.9978315E-01
          2   -1    0    0  501    0  0.00000000000E+00  0.00000000000E+00  0.89437965358E+03  0.89437965359E+03  0.25500000000E-02 0.  1.
         -2   -1    0    0    0  501 -0.00000000000E+00 -0.00000000000E+00 -0.89583075538E+02  0.89583075574E+02  0.25500000000E-02 0. -1.
    5000001    1    1    2    0    0 -0.20378416312E+03 -0.10661833580E+03  0.40397739679E+03  0.49327293842E+03  0.16500000000E+03 0.  0.
   -5000001    1    1    2    0    0  0.20378416312E+03  0.10661833580E+03  0.40081918126E+03  0.49068979074E+03  0.16500000000E+03 0.  0.
<mgrwt>
<rscale>  0 0.56611405E+03</rscale>
<asrwt>0</asrwt>
<pdfrwt beam="1">  1        2 0.12776852E+00 0.56611405E+03</pdfrwt>
<pdfrwt beam="2">  1       -2 0.12797582E-01 0.56611405E+03</pdfrwt>
<totfact> 0.15039322E+03</totfact>
</mgrwt>
</event>
<event>
 4    1  0.5387486E-005  0.6761997E+03  0.7818608E-02  0.9758822E-01
          2   -1    0    0  501    0  0.00000000000E+00  0.00000000000E+00  0.22852744295E+04  0.22852744295E+04  0.25500000000E-02 0.  1.
         -2   -1    0    0    0  501 -0.00000000000E+00 -0.00000000000E+00 -0.50020908352E+02  0.50020908417E+02  0.25500000000E-02 0. -1.
    5000001    1    1    2    0    0 -0.42115347814E+02  0.29143690661E+03  0.10505414533E+04  0.11034362320E+04  0.16500000000E+03 0.  0.
   -5000001    1    1    2    0    0  0.42115347814E+02 -0.29143690661E+03  0.11847120678E+04  0.12318591059E+04  0.16500000000E+03 0.  0.
<mgrwt>
<rscale>  0 0.67619968E+03</rscale>
<asrwt>0</asrwt>
<pdfrwt beam="1">  1        2 0.32646775E+00 0.67619968E+03</pdfrwt>
<pdfrwt beam="2">  1       -2 0.71458445E-02 0.67619968E+03</pdfrwt>
<totfact> 0.69438688E+02</totfact>
</mgrwt>
</event>
<event>
 4    1  0.5387486E-005  0.4873290E+03  0.7818608E-02  0.1017140E+00
         -2   -1    0    0    0  501 -0.00000000000E+00  0.00000000000E+00  0.24361009025E+03  0.24361009027E+03  0.25500000000E-02 0. -1.
          2   -1    0    0  501    0  0.00000000000E+00 -0.00000000000E+00 -0.24371893292E+03  0.24371893293E+03  0.25500000000E-02 0.  1.
    5000001    1    1    2    0    0  0.10337614408E+03  0.13161699353E+03  0.64270778289E+02  0.24365014487E+03  0.16500000000E+03 0.  0.
   -5000001    1    1    2    0    0 -0.10337614408E+03 -0.13161699353E+03 -0.64379620956E+02  0.24367887833E+03  0.16500000000E+03 0.  0.
<mgrwt>
<rscale>  0 0.48732901E+03</rscale>
<asrwt>0</asrwt>
<pdfrwt beam="1">  1        2 0.34816990E-01 0.48732901E+03</pdfrwt>
<pdfrwt beam="2">  1       -2 0.34801441E-01 0.48732901E+03</pdfrwt>
<totfact> 0.11643690E+03</totfact>
</mgrwt>
</event>
<event>
 4    1  0.5387486E-005  0.4991151E+03  0.7818608E-02  0.1014010E+00
         -2   -1    0    0    0  501 -0.00000000000E+00  0.00000000000E+00  0.13720033800E+04  0.13720033800E+04  0.25500000000E-02 0. -1.
          2   -1    0    0  501    0  0.00000000000E+00 -0.00000000000E+00 -0.45392715729E+02  0.45392715800E+02  0.25500000000E-02 0.  1.
    5000001    1    1    2    0    0  0.24185655230E+02 -0.15727202581E+03  0.38311837798E+03  0.44645730766E+03  0.16500000000E+03 0.  0.
   -5000001    1    1    2    0    0 -0.24185655230E+02  0.15727202581E+03  0.94349228634E+03  0.97093878818E+03  0.16500000000E+03 0.  0.
<mgrwt>
<rscale>  0 0.49911505E+03</rscale>
<asrwt>0</asrwt>
<pdfrwt beam="1">  1        2 0.64846738E-02 0.49911505E+03</pdfrwt>
<pdfrwt beam="2">  1       -2 0.19600048E+00 0.49911505E+03</pdfrwt>
<totfact> 0.16953787E+02</totfact>
</mgrwt>
</event>
<event>
 4    1  0.5387486E-005  0.4947666E+03  0.7818608E-02  0.1015154E+00
         -2   -1    0    0    0  501 -0.00000000000E+00  0.00000000000E+00  0.13912739042E+03  0.13912739045E+03  0.25500000000E-02 0. -1.
          2   -1    0    0  501    0  0.00000000000E+00 -0.00000000000E+00 -0.43987387257E+03  0.43987387258E+03  0.25500000000E-02 0.  1.
    5000001    1    1    2    0    0  0.13043054707E+03 -0.12862360652E+03 -0.12646617228E+03  0.27708275387E+03  0.16500000000E+03 0.  0.
   -5000001    1    1    2    0    0 -0.13043054707E+03  0.12862360652E+03 -0.17428030986E+03  0.30191850915E+03  0.16500000000E+03 0.  0.
<mgrwt>
<rscale>  0 0.49476663E+03</rscale>
<asrwt>0</asrwt>
<pdfrwt beam="1">  1        2 0.62839124E-01 0.49476663E+03</pdfrwt>
<pdfrwt beam="2">  1       -2 0.19875342E-01 0.49476663E+03</pdfrwt>
<totfact> 0.16697033E+03</totfact>
</mgrwt>
</event>
<event>
 4    1  0.5387486E-005  0.7304151E+03  0.7818608E-02  0.9666587E-01
          2   -1    0    0  501    0  0.00000000000E+00  0.00000000000E+00  0.77431845967E+03  0.77431845967E+03  0.25500000000E-02 0.  1.
         -2   -1    0    0    0  501 -0.00000000000E+00 -0.00000000000E+00 -0.17225027518E+03  0.17225027520E+03  0.25500000000E-02 0. -1.
    5000001    1    1    2    0    0 -0.16794359484E+03  0.27570213772E+03  0.35803815576E+03  0.50954199118E+03  0.16500000000E+03 0.  0.
   -5000001    1    1    2    0    0  0.16794359484E+03 -0.27570213772E+03  0.24403002872E+03  0.43702674370E+03  0.16500000000E+03 0.  0.
<mgrwt>
<rscale>  0 0.73041514E+03</rscale>
<asrwt>0</asrwt>
<pdfrwt beam="1">  1        2 0.11061692E+00 0.73041514E+03</pdfrwt>
<pdfrwt beam="2">  1       -2 0.24607182E-01 0.73041514E+03</pdfrwt>
<totfact> 0.58668305E+02</totfact>
</mgrwt>
</event>
<event>
 4    1  0.5387486E-005  0.5825817E+03  0.7818608E-02  0.9942217E-01
         -2   -1    0    0    0  501 -0.00000000000E+00  0.00000000000E+00  0.63994029219E+02  0.63994029270E+02  0.25500000000E-02 0. -1.
          2   -1    0    0  501    0  0.00000000000E+00 -0.00000000000E+00 -0.13259105990E+04  0.13259105990E+04  0.25500000000E-02 0.  1.
    5000001    1    1    2    0    0 -0.54503824111E+02  0.15296214698E+03 -0.10527555146E+04  0.10779087433E+04  0.16500000000E+03 0.  0.
   -5000001    1    1    2    0    0  0.54503824111E+02 -0.15296214698E+03 -0.20916105510E+03  0.31199588494E+03  0.16500000000E+03 0.  0.
<mgrwt>
<rscale>  0 0.58258171E+03</rscale>
<asrwt>0</asrwt>
<pdfrwt beam="1">  1        2 0.18941578E+00 0.58258171E+03</pdfrwt>
<pdfrwt beam="2">  1       -2 0.91420050E-02 0.58258171E+03</pdfrwt>
<totfact> 0.14573414E+03</totfact>
</mgrwt>
</event>
<event>
 4    1  0.5387486E-005  0.5017195E+03  0.7818608E-02  0.1013331E+00
          2   -1    0    0  501    0  0.00000000000E+00  0.00000000000E+00  0.40834183542E+02  0.40834183622E+02  0.25500000000E-02 0.  1.
         -2   -1    0    0    0  501 -0.00000000000E+00 -0.00000000000E+00 -0.15411258370E+04  0.15411258370E+04  0.25500000000E-02 0. -1.
    5000001    1    1    2    0    0  0.89513030159E+02  0.75160779679E+02 -0.28200271629E+03  0.34700469357E+03  0.16500000000E+03 0.  0.
   -5000001    1    1    2    0    0 -0.89513030159E+02 -0.75160779679E+02 -0.12182889371E+04  0.12349553270E+04  0.16500000000E+03 0.  0.
<mgrwt>
<rscale>  0 0.50171950E+03</rscale>
<asrwt>0</asrwt>
<pdfrwt beam="1">  1        2 0.58334558E-02 0.50171950E+03</pdfrwt>
<pdfrwt beam="2">  1       -2 0.22016080E+00 0.50171950E+03</pdfrwt>
<totfact> 0.13713918E+02</totfact>
</mgrwt>
</event>
<event>
 4    1  0.5387486E-005  0.4194463E+03  0.7818608E-02  0.1037247E+00
         -2   -1    0    0    0  501 -0.00000000000E+00  0.00000000000E+00  0.29994346889E+02  0.29994346997E+02  0.25500000000E-02 0. -1.
          2   -1    0    0  501    0  0.00000000000E+00 -0.00000000000E+00 -0.14664029645E+04  0.14664029645E+04  0.25500000000E-02 0.  1.
    5000001    1    1    2    0    0 -0.86322878850E+02 -0.96468509734E+02 -0.72174769456E+03  0.75159999161E+03  0.16500000000E+03 0.  0.
   -5000001    1    1    2    0    0  0.86322878850E+02  0.96468509734E+02 -0.71466092310E+03  0.74479731994E+03  0.16500000000E+03 0.  0.
<mgrwt>
<rscale>  0 0.41944630E+03</rscale>
<asrwt>0</asrwt>
<pdfrwt beam="1">  1        2 0.20948609E+00 0.41944630E+03</pdfrwt>
<pdfrwt beam="2">  1       -2 0.42849076E-02 0.41944630E+03</pdfrwt>
<totfact> 0.40296596E+03</totfact>
</mgrwt>
</event>
<event>
 4    1  0.5387486E-005  0.4738655E+03  0.7818608E-02  0.1020835E+00
          2   -1    0    0  501    0  0.00000000000E+00  0.00000000000E+00  0.96986107842E+03  0.96986107842E+03  0.25500000000E-02 0. -1.
         -2   -1    0    0    0  501 -0.00000000000E+00 -0.00000000000E+00 -0.57881625037E+02  0.57881625093E+02  0.25500000000E-02 0.  1.
    5000001    1    1    2    0    0  0.14990629865E+03 -0.17272762961E+02  0.28601660507E+03  0.36304372339E+03  0.16500000000E+03 0.  0.
   -5000001    1    1    2    0    0 -0.14990629865E+03  0.17272762961E+02  0.62596284831E+03  0.66469898013E+03  0.16500000000E+03 0.  0.
<mgrwt>
<rscale>  0 0.47386553E+03</rscale>
<asrwt>0</asrwt>
<pdfrwt beam="1">  1        2 0.13855157E+00 0.47386553E+03</pdfrwt>
<pdfrwt beam="2">  1       -2 0.82688042E-02 0.47386553E+03</pdfrwt>
<totfact> 0.27361508E+03</totfact>
</mgrwt>
</event>
<event>
 4    1  0.5387486E-005  0.3965793E+03  0.7818608E-02  0.1044971E+00
          2   -1    0    0  501    0  0.00000000000E+00  0.00000000000E+00  0.81714595785E+02  0.81714595824E+02  0.25500000000E-02 0.  1.
         -2   -1    0    0    0  501 -0.00000000000E+00 -0.00000000000E+00 -0.48117207622E+03  0.48117207623E+03  0.25500000000E-02 0. -1.
    5000001    1    1    2    0    0 -0.56934026769E+02 -0.93950307974E+02 -0.19254198907E+03  0.27634319483E+03  0.16500000000E+03 0.  0.
   -5000001    1    1    2    0    0  0.56934026769E+02  0.93950307974E+02 -0.20691549137E+03  0.28654347722E+03  0.16500000000E+03 0.  0.
<mgrwt>
<rscale>  0 0.39657928E+03</rscale>
<asrwt>0</asrwt>
<pdfrwt beam="1">  1        2 0.11673514E-01 0.39657928E+03</pdfrwt>
<pdfrwt beam="2">  1       -2 0.68738867E-01 0.39657928E+03</pdfrwt>
<totfact> 0.10565505E+03</totfact>
</mgrwt>
</event>
<event>
 4    1  0.5387486E-005  0.4012809E+03  0.7818608E-02  0.1043337E+00
          2   -1    0    0  501    0  0.00000000000E+00  0.00000000000E+00  0.40180710070E+03  0.40180710071E+03  0.25500000000E-02 0.  1.
         -2   -1    0    0    0  501 -0.00000000000E+00 -0.00000000000E+00 -0.10018886864E+03  0.10018886867E+03  0.25500000000E-02 0. -1.
    5000001    1    1    2    0    0  0.10844051887E+03 -0.18622692184E+02  0.11275271493E+03  0.22813225445E+03  0.16500000000E+03 0.  0.
   -5000001    1    1    2    0    0 -0.10844051887E+03  0.18622692184E+02  0.18886551714E+03  0.27386371494E+03  0.16500000000E+03 0.  0.
<mgrwt>
<rscale>  0 0.40128094E+03</rscale>
<asrwt>0</asrwt>
<pdfrwt beam="1">  1        2 0.57401015E-01 0.40128094E+03</pdfrwt>
<pdfrwt beam="2">  1       -2 0.14312695E-01 0.40128094E+03</pdfrwt>
<totfact> 0.32115365E+03</totfact>
</mgrwt>
</event>
<event>
 4    1  0.5387486E-005  0.4196980E+03  0.7818608E-02  0.1037165E+00
         -2   -1    0    0    0  501 -0.00000000000E+00  0.00000000000E+00  0.19574199703E+03  0.19574199705E+03  0.25500000000E-02 0. -1.
          2   -1    0    0  501    0  0.00000000000E+00 -0.00000000000E+00 -0.22497265393E+03  0.22497265395E+03  0.25500000000E-02 0.  1.
    5000001    1    1    2    0    0 -0.82804043220E+02  0.97748328089E+02  0.54419227919E+01  0.20896377615E+03  0.16500000000E+03 0.  0.
   -5000001    1    1    2    0    0  0.82804043220E+02 -0.97748328089E+02 -0.34672579694E+02  0.21175087485E+03  0.16500000000E+03 0.  0.
<mgrwt>
<rscale>  0 0.41969797E+03</rscale>
<asrwt>0</asrwt>
<pdfrwt beam="1">  1        2 0.32138950E-01 0.41969797E+03</pdfrwt>
<pdfrwt beam="2">  1       -2 0.27963143E-01 0.41969797E+03</pdfrwt>
<totfact> 0.19041757E+03</totfact>
</mgrwt>
</event>
<event>
 4    1  0.5387486E-005  0.4164407E+03  0.7818608E-02  0.1038231E+00
         -2   -1    0    0    0  501 -0.00000000000E+00  0.00000000000E+00  0.19222782662E+02  0.19222782831E+02  0.25500000000E-02 0.  1.
          2   -1    0    0  501    0  0.00000000000E+00 -0.00000000000E+00 -0.22554333439E+04  0.22554333439E+04  0.25500000000E-02 0. -1.
    5000001    1    1    2    0    0 -0.90186702651E+02 -0.39688336754E+02 -0.15558232639E+04  0.15676478666E+04  0.16500000000E+03 0.  0.
   -5000001    1    1    2    0    0  0.90186702651E+02  0.39688336754E+02 -0.68038729741E+03  0.70700826012E+03  0.16500000000E+03 0.  0.
<mgrwt>
<rscale>  0 0.41644066E+03</rscale>
<asrwt>0</asrwt>
<pdfrwt beam="1">  1        2 0.32220459E+00 0.41644066E+03</pdfrwt>
<pdfrwt beam="2">  1       -2 0.27461133E-02 0.41644066E+03</pdfrwt>
<totfact> 0.31837505E+03</totfact>
</mgrwt>
</event>
<event>
 4    1  0.5387486E-005  0.4688799E+03  0.7818608E-02  0.1022237E+00
          2   -1    0    0  501    0  0.00000000000E+00  0.00000000000E+00  0.27780994074E+04  0.27780994074E+04  0.25500000000E-02 0.  1.
         -2   -1    0    0    0  501 -0.00000000000E+00 -0.00000000000E+00 -0.19784062567E+02  0.19784062731E+02  0.25500000000E-02 0. -1.
    5000001    1    1    2    0    0 -0.43402511227E+02  0.98660759634E+02  0.21367612530E+04  0.21458311620E+04  0.16500000000E+03 0.  0.
   -5000001    1    1    2    0    0  0.43402511227E+02 -0.98660759634E+02  0.62155409185E+03  0.65205230815E+03  0.16500000000E+03 0.  0.
<mgrwt>
<rscale>  0 0.46887991E+03</rscale>
<asrwt>0</asrwt>
<pdfrwt beam="1">  1        2 0.39687121E+00 0.46887991E+03</pdfrwt>
<pdfrwt beam="2">  1       -2 0.28262956E-02 0.46887991E+03</pdfrwt>
<totfact> 0.16463634E+03</totfact>
</mgrwt>
</event>
<event>
 4    1  0.5387486E-005  0.8166392E+03  0.7818608E-02  0.9536240E-01
         -2   -1    0    0    0  501 -0.00000000000E+00  0.00000000000E+00  0.16973229687E+03  0.16973229689E+03  0.25500000000E-02 0. -1.
          2   -1    0    0  501    0  0.00000000000E+00 -0.00000000000E+00 -0.98228160735E+03  0.98228160736E+03  0.25500000000E-02 0.  1.
    5000001    1    1    2    0    0 -0.21688582666E+03  0.26020476553E+03 -0.18432750755E+03  0.41946109695E+03  0.16500000000E+03 0.  0.
   -5000001    1    1    2    0    0  0.21688582666E+03 -0.26020476553E+03 -0.62822180293E+03  0.73255280730E+03  0.16500000000E+03 0.  0.
<mgrwt>
<rscale>  0 0.81663924E+03</rscale>
<asrwt>0</asrwt>
<pdfrwt beam="1">  1        2 0.14032594E+00 0.81663924E+03</pdfrwt>
<pdfrwt beam="2">  1       -2 0.24247472E-01 0.81663924E+03</pdfrwt>
<totfact> 0.43727806E+02</totfact>
</mgrwt>
</event>
<event>
 4    1  0.5387486E-005  0.4057712E+03  0.7818608E-02  0.1041799E+00
         -2   -1    0    0    0  501 -0.00000000000E+00  0.00000000000E+00  0.25974207096E+02  0.25974207221E+02  0.25500000000E-02 0. -1.
          2   -1    0    0  501    0  0.00000000000E+00 -0.00000000000E+00 -0.15847476890E+04  0.15847476890E+04  0.25500000000E-02 0.  1.
    5000001    1    1    2    0    0  0.67755738932E+02  0.92158005054E+02 -0.89536413678E+03  0.91759788332E+03  0.16500000000E+03 0.  0.
   -5000001    1    1    2    0    0 -0.67755738932E+02 -0.92158005054E+02 -0.66340934511E+03  0.69312401288E+03  0.16500000000E+03 0.  0.
<mgrwt>
<rscale>  0 0.40577119E+03</rscale>
<asrwt>0</asrwt>
<pdfrwt beam="1">  1        2 0.22639247E+00 0.40577119E+03</pdfrwt>
<pdfrwt beam="2">  1       -2 0.37106020E-02 0.40577119E+03</pdfrwt>
<totfact> 0.43628773E+03</totfact>
</mgrwt>
</event>
<event>
 4    1  0.5387486E-005  0.5576935E+03  0.7818608E-02  0.9997287E-01
         -2   -1    0    0    0  501 -0.00000000000E+00  0.00000000000E+00  0.77301001168E+02  0.77301001210E+02  0.25500000000E-02 0.  1.
          2   -1    0    0  501    0  0.00000000000E+00 -0.00000000000E+00 -0.10058795673E+04  0.10058795673E+04  0.25500000000E-02 0. -1.
    5000001    1    1    2    0    0 -0.19907365477E+03 -0.10397503216E+03 -0.48265051872E+03  0.55733082685E+03  0.16500000000E+03 0.  0.
   -5000001    1    1    2    0    0  0.19907365477E+03  0.10397503216E+03 -0.44592804742E+03  0.52584974167E+03  0.16500000000E+03 0.  0.
<mgrwt>
<rscale>  0 0.55769346E+03</rscale>
<asrwt>0</asrwt>
<pdfrwt beam="1">  1        2 0.14369707E+00 0.55769346E+03</pdfrwt>
<pdfrwt beam="2">  1       -2 0.11043001E-01 0.55769346E+03</pdfrwt>
<totfact> 0.16321298E+03</totfact>
</mgrwt>
</event>
<event>
 4    1  0.5387486E-005  0.5469809E+03  0.7818608E-02  0.1002195E+00
          2   -1    0    0  501    0  0.00000000000E+00  0.00000000000E+00  0.32279212888E+04  0.32279212888E+04  0.25500000000E-02 0.  1.
         -2   -1    0    0    0  501 -0.00000000000E+00 -0.00000000000E+00 -0.23171888176E+02  0.23171888316E+02  0.25500000000E-02 0. -1.
    5000001    1    1    2    0    0  0.19563458850E+03  0.85725743525E+02  0.18648574885E+04  0.18842877296E+04  0.16500000000E+03 0.  0.
   -5000001    1    1    2    0    0 -0.19563458850E+03 -0.85725743525E+02  0.13398919120E+04  0.13668054475E+04  0.16500000000E+03 0.  0.
<mgrwt>
<rscale>  0 0.54698092E+03</rscale>
<asrwt>0</asrwt>
<pdfrwt beam="1">  1        2 0.46113087E+00 0.54698092E+03</pdfrwt>
<pdfrwt beam="2">  1       -2 0.33102751E-02 0.54698092E+03</pdfrwt>
<totfact> 0.73377415E+02</totfact>
</mgrwt>
</event>
<event>
 4    1  0.5387486E-005  0.6617964E+03  0.7818608E-02  0.9784892E-01
          2   -1    0    0  501    0  0.00000000000E+00  0.00000000000E+00  0.12636364607E+03  0.12636364609E+03  0.25500000000E-02 0.  1.
         -2   -1    0    0    0  501 -0.00000000000E+00 -0.00000000000E+00 -0.86649614062E+03  0.86649614062E+03  0.25500000000E-02 0. -1.
    5000001    1    1    2    0    0 -0.26518615417E+03  0.10914225580E+03 -0.37866927067E+03  0.50284306192E+03  0.16500000000E+03 0.  0.
   -5000001    1    1    2    0    0  0.26518615417E+03 -0.10914225580E+03 -0.36146322388E+03  0.49001672480E+03  0.16500000000E+03 0.  0.
<mgrwt>
<rscale>  0 0.66179638E+03</rscale>
<asrwt>0</asrwt>
<pdfrwt beam="1">  1        2 0.18051950E-01 0.66179638E+03</pdfrwt>
<pdfrwt beam="2">  1       -2 0.12378516E+00 0.66179638E+03</pdfrwt>
<totfact> 0.15957436E+02</totfact>
</mgrwt>
</event>
<event>
 4    1  0.5387486E-005  0.3904807E+03  0.7818608E-02  0.1047127E+00
          2   -1    0    0  501    0  0.00000000000E+00  0.00000000000E+00  0.12201621782E+04  0.12201621782E+04  0.25500000000E-02 0. -1.
         -2   -1    0    0    0  501 -0.00000000000E+00 -0.00000000000E+00 -0.31240758734E+02  0.31240758838E+02  0.25500000000E-02 0.  1.
    5000001    1    1    2    0    0 -0.23203329395E+02 -0.60281559056E+02  0.33171736451E+03  0.37607668204E+03  0.16500000000E+03 0.  0.
   -5000001    1    1    2    0    0  0.23203329395E+02  0.60281559056E+02  0.85720405494E+03  0.87532625498E+03  0.16500000000E+03 0.  0.
<mgrwt>
<rscale>  0 0.39048069E+03</rscale>
<asrwt>0</asrwt>
<pdfrwt beam="1">  1        2 0.17430885E+00 0.39048069E+03</pdfrwt>
<pdfrwt beam="2">  1       -2 0.44629664E-02 0.39048069E+03</pdfrwt>
<totfact> 0.51134694E+03</totfact>
</mgrwt>
</event>
<event>
 4    1  0.5387486E-005  0.1245756E+04  0.7818608E-02  0.9073723E-01
         -2   -1    0    0    0  501 -0.00000000000E+00  0.00000000000E+00  0.65983205246E+03  0.65983205247E+03  0.25500000000E-02 0. -1.
          2   -1    0    0  501    0  0.00000000000E+00 -0.00000000000E+00 -0.58799322306E+03  0.58799322307E+03  0.25500000000E-02 0.  1.
    5000001    1    1    2    0    0 -0.46231156537E+03  0.28194914843E+03 -0.22436700427E+03  0.60892762984E+03  0.16500000000E+03 0.  0.
   -5000001    1    1    2    0    0  0.46231156537E+03 -0.28194914843E+03  0.29620583367E+03  0.63889764570E+03  0.16500000000E+03 0.  0.
<mgrwt>
<rscale>  0 0.12457556E+04</rscale>
<asrwt>0</asrwt>
<pdfrwt beam="1">  1        2 0.83999032E-01 0.12457556E+04</pdfrwt>
<pdfrwt beam="2">  1       -2 0.94261722E-01 0.12457556E+04</pdfrwt>
<totfact> 0.51973426E+01</totfact>
</mgrwt>
</event>
<event>
 4    1  0.5387486E-005  0.5268324E+03  0.7818608E-02  0.1007003E+00
         -2   -1    0    0    0  501 -0.00000000000E+00  0.00000000000E+00  0.49772900140E+02  0.49772900205E+02  0.25500000000E-02 0. -1.
          2   -1    0    0  501    0  0.00000000000E+00 -0.00000000000E+00 -0.13940937293E+04  0.13940937293E+04  0.25500000000E-02 0.  1.
    5000001    1    1    2    0    0  0.84905112406E+02  0.16291344388E+03 -0.42077452289E+03  0.48787894751E+03  0.16500000000E+03 0.  0.
   -5000001    1    1    2    0    0 -0.84905112406E+02 -0.16291344388E+03 -0.92354630625E+03  0.95598768198E+03  0.16500000000E+03 0.  0.
<mgrwt>
<rscale>  0 0.52683238E+03</rscale>
<asrwt>0</asrwt>
<pdfrwt beam="1">  1        2 0.19915622E+00 0.52683238E+03</pdfrwt>
<pdfrwt beam="2">  1       -2 0.71104152E-02 0.52683238E+03</pdfrwt>
<totfact> 0.20022364E+03</totfact>
</mgrwt>
</event>
<event>
 4    1  0.5387486E-005  0.6278478E+03  0.7818608E-02  0.9849258E-01
          2   -1    0    0  501    0  0.00000000000E+00  0.00000000000E+00  0.41696924100E+03  0.41696924101E+03  0.25500000000E-02 0.  1.
         -2   -1    0    0    0  501 -0.00000000000E+00 -0.00000000000E+00 -0.23634409153E+03  0.23634409154E+03  0.25500000000E-02 0. -1.
    5000001    1    1    2    0    0  0.17215225677E+00  0.17300788206E+03 -0.12138823135E+03  0.26812657384E+03  0.16500000000E+03 0.  0.
   -5000001    1    1    2    0    0 -0.17215225677E+00 -0.17300788206E+03  0.30201338082E+03  0.38518675871E+03  0.16500000000E+03 0.  0.
<mgrwt>
<rscale>  0 0.62784780E+03</rscale>
<asrwt>0</asrwt>
<pdfrwt beam="1">  1        2 0.59567034E-01 0.62784780E+03</pdfrwt>
<pdfrwt beam="2">  1       -2 0.33763442E-01 0.62784780E+03</pdfrwt>
<totfact> 0.68055770E+02</totfact>
</mgrwt>
</event>
<event>
 4    1  0.5387486E-005  0.3855893E+03  0.7818608E-02  0.1048887E+00
          2   -1    0    0  501    0  0.00000000000E+00  0.00000000000E+00  0.13456258414E+04  0.13456258414E+04  0.25500000000E-02 0.  1.
         -2   -1    0    0    0  501 -0.00000000000E+00 -0.00000000000E+00 -0.27622674094E+02  0.27622674211E+02  0.25500000000E-02 0. -1.
    5000001    1    1    2    0    0 -0.36907453421E+02 -0.53138659025E+02  0.38873387866E+03  0.42722933610E+03  0.16500000000E+03 0.  0.
   -5000001    1    1    2    0    0  0.36907453421E+02  0.53138659025E+02  0.92926928869E+03  0.94601917957E+03  0.16500000000E+03 0.  0.
<mgrwt>
<rscale>  0 0.38558934E+03</rscale>
<asrwt>0</asrwt>
<pdfrwt beam="1">  1        2 0.19223223E+00 0.38558934E+03</pdfrwt>
<pdfrwt beam="2">  1       -2 0.39460970E-02 0.38558934E+03</pdfrwt>
<totfact> 0.52798464E+03</totfact>
</mgrwt>
</event>
<event>
 4    1  0.5387486E-005  0.4138439E+03  0.7818608E-02  0.1039089E+00
          2   -1    0    0  501    0  0.00000000000E+00  0.00000000000E+00  0.10581812901E+03  0.10581812904E+03  0.25500000000E-02 0.  1.
         -2   -1    0    0    0  501 -0.00000000000E+00 -0.00000000000E+00 -0.40462533066E+03  0.40462533067E+03  0.25500000000E-02 0. -1.
    5000001    1    1    2    0    0  0.89625075656E+02  0.68340575231E+02 -0.83112488277E+02  0.21641574369E+03  0.16500000000E+03 0.  0.
   -5000001    1    1    2    0    0 -0.89625075656E+02 -0.68340575231E+02 -0.21569471337E+03  0.29402771602E+03  0.16500000000E+03 0.  0.
<mgrwt>
<rscale>  0 0.41384391E+03</rscale>
<asrwt>0</asrwt>
<pdfrwt beam="1">  1        2 0.15116876E-01 0.41384391E+03</pdfrwt>
<pdfrwt beam="2">  1       -2 0.57803618E-01 0.41384391E+03</pdfrwt>
<totfact> 0.11122470E+03</totfact>
</mgrwt>
</event>
<event>
 4    1  0.5387486E-005  0.9725476E+03  0.7818608E-02  0.9339177E-01
          2   -1    0    0  501    0  0.00000000000E+00  0.00000000000E+00  0.20366855789E+04  0.20366855789E+04  0.25500000000E-02 0.  1.
         -2   -1    0    0    0  501 -0.00000000000E+00 -0.00000000000E+00 -0.11610147862E+03  0.11610147865E+03  0.25500000000E-02 0. -1.
    5000001    1    1    2    0    0  0.43070330609E+03  0.12153471252E+03  0.11698349172E+04  0.12633347765E+04  0.16500000000E+03 0.  0.
   -5000001    1    1    2    0    0 -0.43070330609E+03 -0.12153471252E+03  0.75074918309E+03  0.88945228097E+03  0.16500000000E+03 0.  0.
<mgrwt>
<rscale>  0 0.97254760E+03</rscale>
<asrwt>0</asrwt>
<pdfrwt beam="1">  1        2 0.29095510E+00 0.97254760E+03</pdfrwt>
<pdfrwt beam="2">  1       -2 0.16585925E-01 0.97254760E+03</pdfrwt>
<totfact> 0.22781775E+02</totfact>
</mgrwt>
</event>
<event>
 4    1  0.5387486E-005  0.3788244E+03  0.7818608E-02  0.1051369E+00
         -2   -1    0    0    0  501 -0.00000000000E+00  0.00000000000E+00  0.10610137430E+02  0.10610137736E+02  0.25500000000E-02 0. -1.
          2   -1    0    0  501    0  0.00000000000E+00 -0.00000000000E+00 -0.33813878626E+04  0.33813878626E+04  0.25500000000E-02 0.  1.
    5000001    1    1    2    0    0  0.88464276422E+02  0.28176048491E+02 -0.17361767599E+04  0.17464691693E+04  0.16500000000E+03 0.  0.
   -5000001    1    1    2    0    0 -0.88464276422E+02 -0.28176048491E+02 -0.16346009653E+04  0.16455288310E+04  0.16500000000E+03 0.  0.
<mgrwt>
<rscale>  0 0.37882445E+03</rscale>
<asrwt>0</asrwt>
<pdfrwt beam="1">  1        2 0.48305472E+00 0.37882445E+03</pdfrwt>
<pdfrwt beam="2">  1       -2 0.15157361E-02 0.37882445E+03</pdfrwt>
<totfact> 0.19698776E+03</totfact>
</mgrwt>
</event>
<event>
 4    1  0.5387486E-005  0.5092448E+03  0.7818608E-02  0.1011394E+00
          2   -1    0    0  501    0  0.00000000000E+00  0.00000000000E+00  0.33835714430E+03  0.33835714431E+03  0.25500000000E-02 0.  1.
         -2   -1    0    0    0  501 -0.00000000000E+00 -0.00000000000E+00 -0.19160986045E+03  0.19160986047E+03  0.25500000000E-02 0. -1.
    5000001    1    1    2    0    0 -0.41951335783E+02  0.98391656021E+02 -0.94970102152E+02  0.21836930382E+03  0.16500000000E+03 0.  0.
   -5000001    1    1    2    0    0  0.41951335783E+02 -0.98391656021E+02  0.24171738600E+03  0.31159770096E+03  0.16500000000E+03 0.  0.
<mgrwt>
<rscale>  0 0.50924479E+03</rscale>
<asrwt>0</asrwt>
<pdfrwt beam="1">  1        2 0.48336735E-01 0.50924479E+03</pdfrwt>
<pdfrwt beam="2">  1       -2 0.27372837E-01 0.50924479E+03</pdfrwt>
<totfact> 0.12653255E+03</totfact>
</mgrwt>
</event>
<event>
 4    1  0.5387486E-005  0.3581845E+03  0.7818608E-02  0.1059305E+00
          2   -1    0    0  501    0  0.00000000000E+00  0.00000000000E+00  0.97797329702E+03  0.97797329702E+03  0.25500000000E-02 0.  1.
         -2   -1    0    0    0  501 -0.00000000000E+00 -0.00000000000E+00 -0.32796437534E+02  0.32796437633E+02  0.25500000000E-02 0. -1.
    5000001    1    1    2    0    0  0.68084593149E+02 -0.23447361390E+01  0.43188706280E+03  0.46732477425E+03  0.16500000000E+03 0.  0.
   -5000001    1    1    2    0    0 -0.68084593149E+02  0.23447361390E+01  0.51328979668E+03  0.54344496040E+03  0.16500000000E+03 0.  0.
<mgrwt>
<rscale>  0 0.35818453E+03</rscale>
<asrwt>0</asrwt>
<pdfrwt beam="1">  1        2 0.13971046E+00 0.35818453E+03</pdfrwt>
<pdfrwt beam="2">  1       -2 0.46852058E-02 0.35818453E+03</pdfrwt>
<totfact> 0.65255437E+03</totfact>
</mgrwt>
</event>
<event>
 4    1  0.5387486E-005  0.7413843E+03  0.7818608E-02  0.9648965E-01
         -2   -1    0    0    0  501 -0.00000000000E+00  0.00000000000E+00  0.11451236990E+03  0.11451236992E+03  0.25500000000E-02 0. -1.
          2   -1    0    0  501    0  0.00000000000E+00 -0.00000000000E+00 -0.11999811211E+04  0.11999811211E+04  0.25500000000E-02 0.  1.
    5000001    1    1    2    0    0  0.20841999715E+03  0.19376551330E+03 -0.84572840421E+03  0.90745000030E+03  0.16500000000E+03 0.  0.
   -5000001    1    1    2    0    0 -0.20841999715E+03 -0.19376551330E+03 -0.23974034696E+03  0.40704349070E+03  0.16500000000E+03 0.  0.
<mgrwt>
<rscale>  0 0.74138433E+03</rscale>
<asrwt>0</asrwt>
<pdfrwt beam="1">  1        2 0.17142587E+00 0.74138433E+03</pdfrwt>
<pdfrwt beam="2">  1       -2 0.16358911E-01 0.74138433E+03</pdfrwt>
<totfact> 0.64954229E+02</totfact>
</mgrwt>
</event>
<event>
 4    1  0.5387486E-005  0.4168184E+03  0.7818608E-02  0.1038107E+00
          2   -1    0    0  501    0  0.00000000000E+00  0.00000000000E+00  0.20215966234E+04  0.20215966234E+04  0.25500000000E-02 0.  1.
         -2   -1    0    0    0  501 -0.00000000000E+00 -0.00000000000E+00 -0.21485195826E+02  0.21485195978E+02  0.25500000000E-02 0. -1.
    5000001    1    1    2    0    0 -0.63527451545E+02  0.99438549714E+02  0.12343935971E+04  0.12509501648E+04  0.16500000000E+03 0.  0.
   -5000001    1    1    2    0    0  0.63527451545E+02 -0.99438549714E+02  0.76571783047E+03  0.79213165456E+03  0.16500000000E+03 0.  0.
<mgrwt>
<rscale>  0 0.41681842E+03</rscale>
<asrwt>0</asrwt>
<pdfrwt beam="1">  1        2 0.28879945E+00 0.41681842E+03</pdfrwt>
<pdfrwt beam="2">  1       -2 0.30693144E-02 0.41681842E+03</pdfrwt>
<totfact> 0.35182196E+03</totfact>
</mgrwt>
</event>
<event>
 4    1  0.5387486E-005  0.4306409E+03  0.7818608E-02  0.1033658E+00
         -2   -1    0    0    0  501 -0.00000000000E+00  0.00000000000E+00  0.37569927066E+02  0.37569927153E+02  0.25500000000E-02 0. -1.
          2   -1    0    0  501    0  0.00000000000E+00 -0.00000000000E+00 -0.12340428333E+04  0.12340428333E+04  0.25500000000E-02 0.  1.
    5000001    1    1    2    0    0 -0.11098401412E+03  0.82500059967E+02 -0.58711400460E+03  0.62534115943E+03  0.16500000000E+03 0.  0.
   -5000001    1    1    2    0    0  0.11098401412E+03 -0.82500059967E+02 -0.60935890164E+03  0.64627160102E+03  0.16500000000E+03 0.  0.
<mgrwt>
<rscale>  0 0.43064091E+03</rscale>
<asrwt>0</asrwt>
<pdfrwt beam="1">  1        2 0.17629181E+00 0.43064091E+03</pdfrwt>
<pdfrwt beam="2">  1       -2 0.53671332E-02 0.43064091E+03</pdfrwt>
<totfact> 0.37881745E+03</totfact>
</mgrwt>
</event>
<event>
 4    1  0.5387486E-005  0.5156024E+03  0.7818608E-02  0.1009785E+00
          2   -1    0    0  501    0  0.00000000000E+00  0.00000000000E+00  0.15823833702E+04  0.15823833702E+04  0.25500000000E-02 0.  1.
         -2   -1    0    0    0  501 -0.00000000000E+00 -0.00000000000E+00 -0.42000865419E+02  0.42000865497E+02  0.25500000000E-02 0. -1.
    5000001    1    1    2    0    0 -0.70215785879E+02 -0.17353161399E+03  0.97419393806E+03  0.10056452190E+04  0.16500000000E+03 0.  0.
   -5000001    1    1    2    0    0  0.70215785879E+02  0.17353161399E+03  0.56618856673E+03  0.61873901666E+03  0.16500000000E+03 0.  0.
<mgrwt>
<rscale>  0 0.51560245E+03</rscale>
<asrwt>0</asrwt>
<pdfrwt beam="1">  1        2 0.22605476E+00 0.51560245E+03</pdfrwt>
<pdfrwt beam="2">  1       -2 0.60001238E-02 0.51560245E+03</pdfrwt>
<totfact> 0.20864541E+03</totfact>
</mgrwt>
</event>
<event>
 4    1  0.5387486E-005  0.5333742E+03  0.7818608E-02  0.1005417E+00
          2   -1    0    0  501    0  0.00000000000E+00  0.00000000000E+00  0.79713497684E+02  0.79713497725E+02  0.25500000000E-02 0.  1.
         -2   -1    0    0    0  501 -0.00000000000E+00 -0.00000000000E+00 -0.89222041684E+03  0.89222041685E+03  0.25500000000E-02 0. -1.
    5000001    1    1    2    0    0  0.15985485470E+03  0.10834779747E+03 -0.55433963649E+03  0.60976245569E+03  0.16500000000E+03 0.  0.
   -5000001    1    1    2    0    0 -0.15985485470E+03 -0.10834779747E+03 -0.25816728268E+03  0.36217145889E+03  0.16500000000E+03 0.  0.
<mgrwt>
<rscale>  0 0.53337420E+03</rscale>
<asrwt>0</asrwt>
<pdfrwt beam="1">  1        2 0.11387643E-01 0.53337420E+03</pdfrwt>
<pdfrwt beam="2">  1       -2 0.12746005E+00 0.53337420E+03</pdfrwt>
<totfact> 0.26101532E+02</totfact>
</mgrwt>
</event>
<event>
 4    1  0.5387486E-005  0.6685645E+03  0.7818608E-02  0.9772555E-01
         -2   -1    0    0    0  501 -0.00000000000E+00  0.00000000000E+00  0.73215751597E+02  0.73215751641E+02  0.25500000000E-02 0. -1.
          2   -1    0    0  501    0  0.00000000000E+00 -0.00000000000E+00 -0.15262373559E+04  0.15262373559E+04  0.25500000000E-02 0.  1.
    5000001    1    1    2    0    0  0.25493634017E+03  0.86282678744E+02 -0.46354189284E+03  0.56083270643E+03  0.16500000000E+03 0.  0.
   -5000001    1    1    2    0    0 -0.25493634017E+03 -0.86282678744E+02 -0.98947971144E+03  0.10386204011E+04  0.16500000000E+03 0.  0.
<mgrwt>
<rscale>  0 0.66856448E+03</rscale>
<asrwt>0</asrwt>
<pdfrwt beam="1">  1        2 0.21803389E+00 0.66856448E+03</pdfrwt>
<pdfrwt beam="2">  1       -2 0.10459394E-01 0.66856448E+03</pdfrwt>
<totfact> 0.91507455E+02</totfact>
</mgrwt>
</event>
<event>
 4    1  0.5387486E-005  0.5192534E+03  0.7818608E-02  0.1008872E+00
         -2   -1    0    0    0  501 -0.00000000000E+00  0.00000000000E+00  0.26765307848E+02  0.26765307970E+02  0.25500000000E-02 0. -1.
          2   -1    0    0  501    0  0.00000000000E+00 -0.00000000000E+00 -0.25184105998E+04  0.25184105998E+04  0.25500000000E-02 0.  1.
    5000001    1    1    2    0    0  0.18774157633E+03 -0.32194703377E+02 -0.93981019538E+03  0.97301161439E+03  0.16500000000E+03 0.  0.
   -5000001    1    1    2    0    0 -0.18774157633E+03  0.32194703377E+02 -0.15518350965E+04  0.15721642933E+04  0.16500000000E+03 0.  0.
<mgrwt>
<rscale>  0 0.51925345E+03</rscale>
<asrwt>0</asrwt>
<pdfrwt beam="1">  1        2 0.35977279E+00 0.51925345E+03</pdfrwt>
<pdfrwt beam="2">  1       -2 0.38236170E-02 0.51925345E+03</pdfrwt>
<totfact> 0.14125659E+03</totfact>
</mgrwt>
</event>
<event>
 4    1  0.5387486E-005  0.7902601E+03  0.7818608E-02  0.9574223E-01
         -2   -1    0    0    0  501 -0.00000000000E+00  0.00000000000E+00  0.55838805585E+03  0.55838805586E+03  0.25500000000E-02 0. -1.
          2   -1    0    0  501    0  0.00000000000E+00 -0.00000000000E+00 -0.27960436994E+03  0.27960436995E+03  0.25500000000E-02 0.  1.
    5000001    1    1    2    0    0  0.34983671800E+03 -0.42031932803E+02  0.21247744941E+03  0.44331036436E+03  0.16500000000E+03 0.  0.
   -5000001    1    1    2    0    0 -0.34983671800E+03  0.42031932803E+02  0.66306236500E+02  0.39468206146E+03  0.16500000000E+03 0.  0.
<mgrwt>
<rscale>  0 0.79026006E+03</rscale>
<asrwt>0</asrwt>
<pdfrwt beam="1">  1        2 0.39943481E-01 0.79026006E+03</pdfrwt>
<pdfrwt beam="2">  1       -2 0.79769723E-01 0.79026006E+03</pdfrwt>
<totfact> 0.18084043E+02</totfact>
</mgrwt>
</event>
<event>
 4    1  0.5387486E-005  0.6851661E+03  0.7818608E-02  0.9742942E-01
         -2   -1    0    0    0  501 -0.00000000000E+00  0.00000000000E+00  0.48666831256E+02  0.48666831323E+02  0.25500000000E-02 0. -1.
          2   -1    0    0  501    0  0.00000000000E+00 -0.00000000000E+00 -0.24115634396E+04  0.24115634396E+04  0.25500000000E-02 0.  1.
    5000001    1    1    2    0    0 -0.23274839902E+02 -0.28235149430E+03 -0.82464578940E+03  0.88742873656E+03  0.16500000000E+03 0.  0.
   -5000001    1    1    2    0    0  0.23274839902E+02  0.28235149430E+03 -0.15382508190E+04  0.15728015344E+04  0.16500000000E+03 0.  0.
<mgrwt>
<rscale>  0 0.68516611E+03</rscale>
<asrwt>0</asrwt>
<pdfrwt beam="1">  1        2 0.34450899E+00 0.68516611E+03</pdfrwt>
<pdfrwt beam="2">  1       -2 0.69524060E-02 0.68516611E+03</pdfrwt>
<totfact> 0.62496111E+02</totfact>
</mgrwt>
</event>
<event>
 4    1  0.5387486E-005  0.5205121E+03  0.7818608E-02  0.1008559E+00
          2   -1    0    0  501    0  0.00000000000E+00  0.00000000000E+00  0.37852045733E+03  0.37852045734E+03  0.25500000000E-02 0.  1.
         -2   -1    0    0    0  501 -0.00000000000E+00 -0.00000000000E+00 -0.17894201235E+03  0.17894201237E+03  0.25500000000E-02 0. -1.
    5000001    1    1    2    0    0  0.57588775574E+02 -0.10885684870E+03  0.27028147983E+03  0.33976956739E+03  0.16500000000E+03 0.  0.
   -5000001    1    1    2    0    0 -0.57588775574E+02  0.10885684870E+03 -0.70703034857E+02  0.21769290232E+03  0.16500000000E+03 0.  0.
<mgrwt>
<rscale>  0 0.52051210E+03</rscale>
<asrwt>0</asrwt>
<pdfrwt beam="1">  1        2 0.54074352E-01 0.52051210E+03</pdfrwt>
<pdfrwt beam="2">  1       -2 0.25563144E-01 0.52051210E+03</pdfrwt>
<totfact> 0.12652659E+03</totfact>
</mgrwt>
</event>
<event>
 4    1  0.5387486E-005  0.4418513E+03  0.7818608E-02  0.1030180E+00
          2   -1    0    0  501    0  0.00000000000E+00  0.00000000000E+00  0.17468400067E+03  0.17468400068E+03  0.25500000000E-02 0.  1.
         -2   -1    0    0    0  501 -0.00000000000E+00 -0.00000000000E+00 -0.27940818013E+03  0.27940818014E+03  0.25500000000E-02 0. -1.
    5000001    1    1    2    0    0 -0.12535523953E+03 -0.67112678471E+02 -0.90332799307E+02  0.23580301593E+03  0.16500000000E+03 0.  0.
   -5000001    1    1    2    0    0  0.12535523953E+03  0.67112678471E+02 -0.14391380157E+02  0.21828916490E+03  0.16500000000E+03 0.  0.
<mgrwt>
<rscale>  0 0.44185128E+03</rscale>
<asrwt>0</asrwt>
<pdfrwt beam="1">  1        2 0.24954857E-01 0.44185128E+03</pdfrwt>
<pdfrwt beam="2">  1       -2 0.39915454E-01 0.44185128E+03</pdfrwt>
<totfact> 0.13004763E+03</totfact>
</mgrwt>
</event>
<event>
 4    1  0.5387486E-005  0.4919592E+03  0.7818608E-02  0.1015899E+00
          2   -1    0    0  501    0  0.00000000000E+00  0.00000000000E+00  0.16898555463E+03  0.16898555465E+03  0.25500000000E-02 0.  1.
         -2   -1    0    0    0  501 -0.00000000000E+00 -0.00000000000E+00 -0.35805406349E+03  0.35805406350E+03  0.25500000000E-02 0. -1.
    5000001    1    1    2    0    0  0.17944679369E+03 -0.29905635549E+02 -0.10912394178E+03  0.26875366690E+03  0.16500000000E+03 0.  0.
   -5000001    1    1    2    0    0 -0.17944679369E+03  0.29905635549E+02 -0.79944567090E+02  0.25828595125E+03  0.16500000000E+03 0.  0.
<mgrwt>
<rscale>  0 0.49195920E+03</rscale>
<asrwt>0</asrwt>
<pdfrwt beam="1">  1        2 0.24140793E-01 0.49195920E+03</pdfrwt>
<pdfrwt beam="2">  1       -2 0.51150581E-01 0.49195920E+03</pdfrwt>
<totfact> 0.82738055E+02</totfact>
</mgrwt>
</event>
<event>
 4    1  0.5387486E-005  0.7238999E+03  0.7818608E-02  0.9677211E-01
          2   -1    0    0  501    0  0.00000000000E+00  0.00000000000E+00  0.12122564973E+04  0.12122564973E+04  0.25500000000E-02 0.  1.
         -2   -1    0    0    0  501 -0.00000000000E+00 -0.00000000000E+00 -0.10806935366E+03  0.10806935369E+03  0.25500000000E-02 0. -1.
    5000001    1    1    2    0    0  0.79316250817E+02  0.30552367586E+03  0.43463919848E+03  0.56193595455E+03  0.16500000000E+03 0.  0.
   -5000001    1    1    2    0    0 -0.79316250817E+02 -0.30552367586E+03  0.66954794519E+03  0.75838989646E+03  0.16500000000E+03 0.  0.
<mgrwt>
<rscale>  0 0.72389993E+03</rscale>
<asrwt>0</asrwt>
<pdfrwt beam="1">  1        2 0.17317949E+00 0.72389993E+03</pdfrwt>
<pdfrwt beam="2">  1       -2 0.15438480E-01 0.72389993E+03</pdfrwt>
<totfact> 0.70593268E+02</totfact>
</mgrwt>
</event>
<event>
 4    1  0.5387486E-005  0.1327118E+04  0.7818608E-02  0.9008333E-01
          2   -1    0    0  501    0  0.00000000000E+00  0.00000000000E+00  0.69640762138E+03  0.69640762138E+03  0.25500000000E-02 0.  1.
         -2   -1    0    0    0  501 -0.00000000000E+00 -0.00000000000E+00 -0.63225972719E+03  0.63225972720E+03  0.25500000000E-02 0. -1.
    5000001    1    1    2    0    0  0.40039172221E+02  0.51771487259E+03 -0.34712103199E+03  0.64602618791E+03  0.16500000000E+03 0.  0.
   -5000001    1    1    2    0    0 -0.40039172221E+02 -0.51771487259E+03  0.41126892618E+03  0.68264116068E+03  0.16500000000E+03 0.  0.
<mgrwt>
<rscale>  0 0.13271179E+04</rscale>
<asrwt>0</asrwt>
<pdfrwt beam="1">  1        2 0.99486803E-01 0.13271179E+04</pdfrwt>
<pdfrwt beam="2">  1       -2 0.90322818E-01 0.13271179E+04</pdfrwt>
<totfact> 0.46525804E+01</totfact>
</mgrwt>
</event>
<event>
 4    1  0.5387486E-005  0.7071870E+03  0.7818608E-02  0.9705020E-01
         -2   -1    0    0    0  501 -0.00000000000E+00  0.00000000000E+00  0.12189027414E+03  0.12189027417E+03  0.25500000000E-02 0. -1.
          2   -1    0    0  501    0  0.00000000000E+00 -0.00000000000E+00 -0.10257453252E+04  0.10257453252E+04  0.25500000000E-02 0.  1.
    5000001    1    1    2    0    0 -0.18474825951E+03 -0.24005982983E+03 -0.32577772041E+03  0.47446471355E+03  0.16500000000E+03 0.  0.
   -5000001    1    1    2    0    0  0.18474825951E+03  0.24005982983E+03 -0.57807733063E+03  0.67317088579E+03  0.16500000000E+03 0.  0.
<mgrwt>
<rscale>  0 0.70718704E+03</rscale>
<asrwt>0</asrwt>
<pdfrwt beam="1">  1        2 0.14653504E+00 0.70718704E+03</pdfrwt>
<pdfrwt beam="2">  1       -2 0.17412897E-01 0.70718704E+03</pdfrwt>
<totfact> 0.73853849E+02</totfact>
</mgrwt>
</event>
<event>
 4    1  0.5387486E-005  0.1205114E+04  0.7818608E-02  0.9108392E-01
          2   -1    0    0  501    0  0.00000000000E+00  0.00000000000E+00  0.35997071122E+04  0.35997071122E+04  0.25500000000E-02 0.  1.
         -2   -1    0    0    0  501 -0.00000000000E+00 -0.00000000000E+00 -0.10086234972E+03  0.10086234975E+03  0.25500000000E-02 0. -1.
    5000001    1    1    2    0    0  0.45289976059E+03  0.34038823292E+03  0.13750011072E+04  0.14962738343E+04  0.16500000000E+03 0.  0.
   -5000001    1    1    2    0    0 -0.45289976059E+03 -0.34038823292E+03  0.21238436552E+04  0.22042956276E+04  0.16500000000E+03 0.  0.
<mgrwt>
<rscale>  0 0.12051140E+04</rscale>
<asrwt>0</asrwt>
<pdfrwt beam="1">  1        2 0.51424392E+00 0.12051140E+04</pdfrwt>
<pdfrwt beam="2">  1       -2 0.14408906E-01 0.12051140E+04</pdfrwt>
<totfact> 0.39570339E+01</totfact>
</mgrwt>
</event>
<event>
 4    1  0.5387486E-005  0.3806065E+03  0.7818608E-02  0.1050710E+00
          2   -1    0    0  501    0  0.00000000000E+00  0.00000000000E+00  0.21151661184E+04  0.21151661184E+04  0.25500000000E-02 0.  1.
         -2   -1    0    0    0  501 -0.00000000000E+00 -0.00000000000E+00 -0.17121737684E+02  0.17121737873E+02  0.25500000000E-02 0. -1.
    5000001    1    1    2    0    0 -0.25498470069E+01 -0.91298805299E+02  0.90637174945E+03  0.92578438190E+03  0.16500000000E+03 0.  0.
   -5000001    1    1    2    0    0  0.25498470069E+01  0.91298805299E+02  0.11916726312E+04  0.12065034744E+04  0.16500000000E+03 0.  0.
<mgrwt>
<rscale>  0 0.38060646E+03</rscale>
<asrwt>0</asrwt>
<pdfrwt beam="1">  1        2 0.30216631E+00 0.38060646E+03</pdfrwt>
<pdfrwt beam="2">  1       -2 0.24459648E-02 0.38060646E+03</pdfrwt>
<totfact> 0.44491369E+03</totfact>
</mgrwt>
</event>
<event>
 4    1  0.5387486E-005  0.5758122E+03  0.7818608E-02  0.9956899E-01
          2   -1    0    0  501    0  0.00000000000E+00  0.00000000000E+00  0.31412601823E+04  0.31412601823E+04  0.25500000000E-02 0.  1.
         -2   -1    0    0    0  501 -0.00000000000E+00 -0.00000000000E+00 -0.26387473256E+02  0.26387473379E+02  0.25500000000E-02 0. -1.
    5000001    1    1    2    0    0 -0.17561072886E+03 -0.13683814910E+03  0.11277411402E+04  0.11612875985E+04  0.16500000000E+03 0.  0.
   -5000001    1    1    2    0    0  0.17561072886E+03  0.13683814910E+03  0.19871315689E+04  0.20063600572E+04  0.16500000000E+03 0.  0.
<mgrwt>
<rscale>  0 0.57581219E+03</rscale>
<asrwt>0</asrwt>
<pdfrwt beam="1">  1        2 0.44875137E+00 0.57581219E+03</pdfrwt>
<pdfrwt beam="2">  1       -2 0.37696398E-02 0.57581219E+03</pdfrwt>
<totfact> 0.67071366E+02</totfact>
</mgrwt>
</event>
<event>
 4    1  0.5387486E-005  0.1984483E+04  0.7818608E-02  0.8613910E-01
          2   -1    0    0  501    0  0.00000000000E+00  0.00000000000E+00  0.17334153122E+04  0.17334153122E+04  0.25500000000E-02 0. -1.
         -2   -1    0    0    0  501 -0.00000000000E+00 -0.00000000000E+00 -0.56797911189E+03  0.56797911190E+03  0.25500000000E-02 0.  1.
    5000001    1    1    2    0    0 -0.95088546461E+03  0.12024972296E+03  0.35465150240E+03  0.10352032896E+04  0.16500000000E+03 0.  0.
   -5000001    1    1    2    0    0  0.95088546461E+03 -0.12024972296E+03  0.81078469791E+03  0.12661911345E+04  0.16500000000E+03 0.  0.
<mgrwt>
<rscale>  0 0.19844835E+04</rscale>
<asrwt>0</asrwt>
<pdfrwt beam="1">  1        2 0.24763076E+00 0.19844835E+04</pdfrwt>
<pdfrwt beam="2">  1       -2 0.81139874E-01 0.19844835E+04</pdfrwt>
<totfact> 0.13778038E+01</totfact>
</mgrwt>
</event>
<event>
 4    1  0.5387486E-005  0.6360320E+03  0.7818608E-02  0.9833348E-01
          2   -1    0    0  501    0  0.00000000000E+00  0.00000000000E+00  0.11122545537E+04  0.11122545537E+04  0.25500000000E-02 0.  1.
         -2   -1    0    0    0  501 -0.00000000000E+00 -0.00000000000E+00 -0.90927196050E+02  0.90927196086E+02  0.25500000000E-02 0. -1.
    5000001    1    1    2    0    0  0.12553654980E+03  0.23610238957E+03  0.60344233568E+03  0.68034654125E+03  0.16500000000E+03 0.  0.
   -5000001    1    1    2    0    0 -0.12553654980E+03 -0.23610238957E+03  0.41788502194E+03  0.52283520851E+03  0.16500000000E+03 0.  0.
<mgrwt>
<rscale>  0 0.63603204E+03</rscale>
<asrwt>0</asrwt>
<pdfrwt beam="1">  1        2 0.15889349E+00 0.63603204E+03</pdfrwt>
<pdfrwt beam="2">  1       -2 0.12989601E-01 0.63603204E+03</pdfrwt>
<totfact> 0.10788504E+03</totfact>
</mgrwt>
</event>
<event>
 4    1  0.5387486E-005  0.5846682E+03  0.7818608E-02  0.9937735E-01
          2   -1    0    0  501    0  0.00000000000E+00  0.00000000000E+00  0.25399140409E+04  0.25399140409E+04  0.25500000000E-02 0.  1.
         -2   -1    0    0    0  501 -0.00000000000E+00 -0.00000000000E+00 -0.33646508943E+02  0.33646509039E+02  0.25500000000E-02 0. -1.
    5000001    1    1    2    0    0  0.14432487315E+03  0.19241133447E+03  0.11670517957E+04  0.12029491613E+04  0.16500000000E+03 0.  0.
   -5000001    1    1    2    0    0 -0.14432487315E+03 -0.19241133447E+03  0.13392157363E+04  0.13706113887E+04  0.16500000000E+03 0.  0.
<mgrwt>
<rscale>  0 0.58466825E+03</rscale>
<asrwt>0</asrwt>
<pdfrwt beam="1">  1        2 0.36284499E+00 0.58466825E+03</pdfrwt>
<pdfrwt beam="2">  1       -2 0.48066425E-02 0.58466825E+03</pdfrwt>
<totfact> 0.96408380E+02</totfact>
</mgrwt>
</event>
<event>
 4    1  0.5387486E-005  0.3924629E+03  0.7818608E-02  0.1046421E+00
          2   -1    0    0  501    0  0.00000000000E+00  0.00000000000E+00  0.61110927824E+03  0.61110927824E+03  0.25500000000E-02 0.  1.
         -2   -1    0    0    0  501 -0.00000000000E+00 -0.00000000000E+00 -0.63011289743E+02  0.63011289794E+02  0.25500000000E-02 0. -1.
    5000001    1    1    2    0    0  0.16141819301E+02 -0.10334488733E+03  0.30577052903E+03  0.36285167836E+03  0.16500000000E+03 0.  0.
   -5000001    1    1    2    0    0 -0.16141819301E+02  0.10334488733E+03  0.24232745946E+03  0.31126888967E+03  0.16500000000E+03 0.  0.
<mgrwt>
<rscale>  0 0.39246291E+03</rscale>
<asrwt>0</asrwt>
<pdfrwt beam="1">  1        2 0.87301326E-01 0.39246291E+03</pdfrwt>
<pdfrwt beam="2">  1       -2 0.90016127E-02 0.39246291E+03</pdfrwt>
<totfact> 0.42544213E+03</totfact>
</mgrwt>
</event>
<event>
 4    1  0.5387486E-005  0.5590165E+03  0.7818608E-02  0.9994282E-01
         -2   -1    0    0    0  501 -0.00000000000E+00  0.00000000000E+00  0.42179477795E+02  0.42179477872E+02  0.25500000000E-02 0. -1.
          2   -1    0    0  501    0  0.00000000000E+00 -0.00000000000E+00 -0.18522010069E+04  0.18522010069E+04  0.25500000000E-02 0.  1.
    5000001    1    1    2    0    0 -0.18679968587E+03  0.56673413241E+02 -0.12883149610E+04  0.13134254593E+04  0.16500000000E+03 0.  0.
   -5000001    1    1    2    0    0  0.18679968587E+03 -0.56673413241E+02 -0.52170656803E+03  0.58095502540E+03  0.16500000000E+03 0.  0.
<mgrwt>
<rscale>  0 0.55901653E+03</rscale>
<asrwt>0</asrwt>
<pdfrwt beam="1">  1        2 0.26460009E+00 0.55901653E+03</pdfrwt>
<pdfrwt beam="2">  1       -2 0.60256409E-02 0.55901653E+03</pdfrwt>
<totfact> 0.15108925E+03</totfact>
</mgrwt>
</event>
<event>
 4    1  0.5387486E-005  0.5180393E+03  0.7818608E-02  0.1009175E+00
         -2   -1    0    0    0  501 -0.00000000000E+00  0.00000000000E+00  0.43957428568E+02  0.43957428642E+02  0.25500000000E-02 0.  1.
          2   -1    0    0  501    0  0.00000000000E+00 -0.00000000000E+00 -0.15262764065E+04  0.15262764065E+04  0.25500000000E-02 0. -1.
    5000001    1    1    2    0    0  0.14703568563E+03  0.86719325772E+02 -0.10550871936E+04  0.10814683169E+04  0.16500000000E+03 0.  0.
   -5000001    1    1    2    0    0 -0.14703568563E+03 -0.86719325772E+02 -0.42723178440E+03  0.48876551833E+03  0.16500000000E+03 0.  0.
<mgrwt>
<rscale>  0 0.51803933E+03</rscale>
<asrwt>0</asrwt>
<pdfrwt beam="1">  1        2 0.21803945E+00 0.51803933E+03</pdfrwt>
<pdfrwt beam="2">  1       -2 0.62796336E-02 0.51803933E+03</pdfrwt>
<totfact> 0.20764953E+03</totfact>
</mgrwt>
</event>
<event>
 4    1  0.5387486E-005  0.4260233E+03  0.7818608E-02  0.1035124E+00
         -2   -1    0    0    0  501 -0.00000000000E+00  0.00000000000E+00  0.11030549525E+04  0.11030549525E+04  0.25500000000E-02 0. -1.
          2   -1    0    0  501    0  0.00000000000E+00 -0.00000000000E+00 -0.41134819896E+02  0.41134819975E+02  0.25500000000E-02 0.  1.
    5000001    1    1    2    0    0  0.92718333143E+02 -0.78636512442E+02  0.68683916858E+03  0.71676595475E+03  0.16500000000E+03 0.  0.
   -5000001    1    1    2    0    0 -0.92718333143E+02  0.78636512442E+02  0.37508096402E+03  0.42742381773E+03  0.16500000000E+03 0.  0.
<mgrwt>
<rscale>  0 0.42602332E+03</rscale>
<asrwt>0</asrwt>
<pdfrwt beam="1">  1        2 0.58764030E-02 0.42602332E+03</pdfrwt>
<pdfrwt beam="2">  1       -2 0.15757927E+00 0.42602332E+03</pdfrwt>
<totfact> 0.35515951E+02</totfact>
</mgrwt>
</event>
<event>
 4    1  0.5387486E-005  0.5590409E+03  0.7818608E-02  0.9994227E-01
          2   -1    0    0  501    0  0.00000000000E+00  0.00000000000E+00  0.13493985993E+04  0.13493985993E+04  0.25500000000E-02 0.  1.
         -2   -1    0    0    0  501 -0.00000000000E+00 -0.00000000000E+00 -0.57901119766E+02  0.57901119822E+02  0.25500000000E-02 0. -1.
    5000001    1    1    2    0    0 -0.20716599601E+03  0.89307293180E+02  0.65487648440E+03  0.71202651098E+03  0.16500000000E+03 0.  0.
   -5000001    1    1    2    0    0  0.20716599601E+03 -0.89307293180E+02  0.63662099512E+03  0.69527320813E+03  0.16500000000E+03 0.  0.
<mgrwt>
<rscale>  0 0.55904093E+03</rscale>
<asrwt>0</asrwt>
<pdfrwt beam="1">  1        2 0.19277126E+00 0.55904093E+03</pdfrwt>
<pdfrwt beam="2">  1       -2 0.82715873E-02 0.55904093E+03</pdfrwt>
<totfact> 0.16626338E+03</totfact>
</mgrwt>
</event>
<event>
 4    1  0.5387486E-005  0.4032591E+03  0.7818608E-02  0.1042657E+00
          2   -1    0    0  501    0  0.00000000000E+00  0.00000000000E+00  0.45959044796E+04  0.45959044796E+04  0.25500000000E-02 0.  1.
         -2   -1    0    0    0  501 -0.00000000000E+00 -0.00000000000E+00 -0.88458067640E+01  0.88458071315E+01  0.25500000000E-02 0. -1.
    5000001    1    1    2    0    0 -0.43996589346E+02 -0.93966194350E+02  0.17041427612E+04  0.17152530123E+04  0.16500000000E+03 0.  0.
   -5000001    1    1    2    0    0  0.43996589346E+02  0.93966194350E+02  0.28829159116E+04  0.28894972744E+04  0.16500000000E+03 0.  0.
<mgrwt>
<rscale>  0 0.40325914E+03</rscale>
<asrwt>0</asrwt>
<pdfrwt beam="1">  1        2 0.65655887E+00 0.40325914E+03</pdfrwt>
<pdfrwt beam="2">  1       -2 0.12636846E-02 0.40325914E+03</pdfrwt>
<totfact> 0.39932777E+02</totfact>
</mgrwt>
</event>
<event>
 4    1  0.5387486E-005  0.3882005E+03  0.7818608E-02  0.1047944E+00
          2   -1    0    0  501    0  0.00000000000E+00  0.00000000000E+00  0.62404660540E+03  0.62404660540E+03  0.25500000000E-02 0.  1.
         -2   -1    0    0    0  501 -0.00000000000E+00 -0.00000000000E+00 -0.60371937389E+02  0.60371937442E+02  0.25500000000E-02 0. -1.
    5000001    1    1    2    0    0  0.92538132528E+02 -0.27889155227E+02  0.34054444072E+03  0.39055937712E+03  0.16500000000E+03 0.  0.
   -5000001    1    1    2    0    0 -0.92538132528E+02  0.27889155227E+02  0.22313022729E+03  0.29385916573E+03  0.16500000000E+03 0.  0.
<mgrwt>
<rscale>  0 0.38820048E+03</rscale>
<asrwt>0</asrwt>
<pdfrwt beam="1">  1        2 0.89149517E-01 0.38820048E+03</pdfrwt>
<pdfrwt beam="2">  1       -2 0.86245623E-02 0.38820048E+03</pdfrwt>
<totfact> 0.44427821E+03</totfact>
</mgrwt>
</event>
<event>
 4    1  0.5387486E-005  0.4568999E+03  0.7818608E-02  0.1025684E+00
          2   -1    0    0  501    0  0.00000000000E+00  0.00000000000E+00  0.40094257124E+03  0.40094257125E+03  0.25500000000E-02 0.  1.
         -2   -1    0    0    0  501 -0.00000000000E+00 -0.00000000000E+00 -0.13016673375E+03  0.13016673377E+03  0.25500000000E-02 0. -1.
    5000001    1    1    2    0    0 -0.31444771957E+02 -0.13965096188E+03  0.21313300660E+03  0.30519148635E+03  0.16500000000E+03 0.  0.
   -5000001    1    1    2    0    0  0.31444771957E+02  0.13965096188E+03  0.57642830891E+02  0.22591781867E+03  0.16500000000E+03 0.  0.
<mgrwt>
<rscale>  0 0.45689992E+03</rscale>
<asrwt>0</asrwt>
<pdfrwt beam="1">  1        2 0.57277510E-01 0.45689992E+03</pdfrwt>
<pdfrwt beam="2">  1       -2 0.18595248E-01 0.45689992E+03</pdfrwt>
<totfact> 0.20738776E+03</totfact>
</mgrwt>
</event>
<event>
 4    1  0.5387486E-005  0.6281733E+03  0.7818608E-02  0.9848620E-01
         -2   -1    0    0    0  501 -0.00000000000E+00  0.00000000000E+00  0.21333021910E+03  0.21333021912E+03  0.25500000000E-02 0. -1.
          2   -1    0    0  501    0  0.00000000000E+00 -0.00000000000E+00 -0.46243057349E+03  0.46243057349E+03  0.25500000000E-02 0.  1.
    5000001    1    1    2    0    0 -0.20162429388E+03  0.17206176767E+03 -0.16131218468E+03  0.35143168427E+03  0.16500000000E+03 0.  0.
   -5000001    1    1    2    0    0  0.20162429388E+03 -0.17206176767E+03 -0.87788169704E+02  0.32432910834E+03  0.16500000000E+03 0.  0.
<mgrwt>
<rscale>  0 0.62817327E+03</rscale>
<asrwt>0</asrwt>
<pdfrwt beam="1">  1        2 0.66061510E-01 0.62817327E+03</pdfrwt>
<pdfrwt beam="2">  1       -2 0.30475746E-01 0.62817327E+03</pdfrwt>
<totfact> 0.73387963E+02</totfact>
</mgrwt>
</event>
<event>
 4    1  0.5387486E-005  0.4192760E+03  0.7818608E-02  0.1037302E+00
         -2   -1    0    0    0  501 -0.00000000000E+00  0.00000000000E+00  0.11811219539E+02  0.11811219815E+02  0.25500000000E-02 0. -1.
          2   -1    0    0  501    0  0.00000000000E+00 -0.00000000000E+00 -0.37208771361E+04  0.37208771361E+04  0.25500000000E-02 0.  1.
    5000001    1    1    2    0    0  0.64775017361E+02 -0.10801794959E+03 -0.21155228297E+04  0.21256823665E+04  0.16500000000E+03 0.  0.
   -5000001    1    1    2    0    0 -0.64775017361E+02  0.10801794959E+03 -0.15935430869E+04  0.16070059895E+04  0.16500000000E+03 0.  0.
<mgrwt>
<rscale>  0 0.41927603E+03</rscale>
<asrwt>0</asrwt>
<pdfrwt beam="1">  1        2 0.53155313E+00 0.41927603E+03</pdfrwt>
<pdfrwt beam="2">  1       -2 0.16873195E-02 0.41927603E+03</pdfrwt>
<totfact> 0.10518236E+03</totfact>
</mgrwt>
</event>
<event>
 4    1  0.5387486E-005  0.6626582E+03  0.7818608E-02  0.9783313E-01
          2   -1    0    0  501    0  0.00000000000E+00  0.00000000000E+00  0.14627482636E+03  0.14627482638E+03  0.25500000000E-02 0. -1.
         -2   -1    0    0    0  501 -0.00000000000E+00 -0.00000000000E+00 -0.75049801489E+03  0.75049801489E+03  0.25500000000E-02 0.  1.
    5000001    1    1    2    0    0 -0.28389020886E+03  0.64376881760E+01 -0.24283053982E+03  0.40844432372E+03  0.16500000000E+03 0.  0.
   -5000001    1    1    2    0    0  0.28389020886E+03 -0.64376881760E+01 -0.36139264871E+03  0.48832851755E+03  0.16500000000E+03 0.  0.
<mgrwt>
<rscale>  0 0.66265818E+03</rscale>
<asrwt>0</asrwt>
<pdfrwt beam="1">  1        2 0.20896404E-01 0.66265818E+03</pdfrwt>
<pdfrwt beam="2">  1       -2 0.10721400E+00 0.66265818E+03</pdfrwt>
<totfact> 0.19078637E+02</totfact>
</mgrwt>
</event>
<event>
 4    1  0.5387486E-005  0.4101678E+03  0.7818608E-02  0.1040315E+00
         -2   -1    0    0    0  501 -0.00000000000E+00  0.00000000000E+00  0.20640085915E+02  0.20640086072E+02  0.25500000000E-02 0. -1.
          2   -1    0    0  501    0  0.00000000000E+00 -0.00000000000E+00 -0.20377537327E+04  0.20377537327E+04  0.25500000000E-02 0.  1.
    5000001    1    1    2    0    0  0.37982896870E+02 -0.45233688604E+02 -0.47401573868E+03  0.50537580824E+03  0.16500000000E+03 0.  0.
   -5000001    1    1    2    0    0 -0.37982896870E+02  0.45233688604E+02 -0.15430979081E+04  0.15530180106E+04  0.16500000000E+03 0.  0.
<mgrwt>
<rscale>  0 0.41016783E+03</rscale>
<asrwt>0</asrwt>
<pdfrwt beam="1">  1        2 0.29110755E+00 0.41016783E+03</pdfrwt>
<pdfrwt beam="2">  1       -2 0.29485850E-02 0.41016783E+03</pdfrwt>
<totfact> 0.36697736E+03</totfact>
</mgrwt>
</event>
<event>
 4    1  0.5387486E-005  0.6615909E+03  0.7818608E-02  0.9785270E-01
          2   -1    0    0  501    0  0.00000000000E+00  0.00000000000E+00  0.30764217943E+04  0.30764217943E+04  0.25500000000E-02 0. -1.
         -2   -1    0    0    0  501 -0.00000000000E+00 -0.00000000000E+00 -0.35569124926E+02  0.35569125017E+02  0.25500000000E-02 0.  1.
    5000001    1    1    2    0    0 -0.24503374718E+02  0.28110391983E+03  0.12814658166E+04  0.13224974360E+04  0.16500000000E+03 0.  0.
   -5000001    1    1    2    0    0  0.24503374718E+02 -0.28110391983E+03  0.17593868528E+04  0.17894934833E+04  0.16500000000E+03 0.  0.
<mgrwt>
<rscale>  0 0.66159090E+03</rscale>
<asrwt>0</asrwt>
<pdfrwt beam="1">  1        2 0.43948864E+00 0.66159090E+03</pdfrwt>
<pdfrwt beam="2">  1       -2 0.50813057E-02 0.66159090E+03</pdfrwt>
<totfact> 0.45561668E+02</totfact>
</mgrwt>
</event>
<event>
 4    1  0.5387486E-005  0.4436271E+03  0.7818608E-02  0.1029640E+00
          2   -1    0    0  501    0  0.00000000000E+00  0.00000000000E+00  0.24237948258E+04  0.24237948258E+04  0.25500000000E-02 0.  1.
         -2   -1    0    0    0  501 -0.00000000000E+00 -0.00000000000E+00 -0.20299264482E+02  0.20299264642E+02  0.25500000000E-02 0. -1.
    5000001    1    1    2    0    0 -0.77655354521E+02  0.12431148263E+03  0.13240196645E+04  0.13422878867E+04  0.16500000000E+03 0.  0.
   -5000001    1    1    2    0    0  0.77655354521E+02 -0.12431148263E+03  0.10794758969E+04  0.11018062038E+04  0.16500000000E+03 0.  0.
<mgrwt>
<rscale>  0 0.44362711E+03</rscale>
<asrwt>0</asrwt>
<pdfrwt beam="1">  1        2 0.34625661E+00 0.44362711E+03</pdfrwt>
<pdfrwt beam="2">  1       -2 0.28998932E-02 0.44362711E+03</pdfrwt>
<totfact> 0.24120040E+03</totfact>
</mgrwt>
</event>
<event>
 4    1  0.5387486E-005  0.7469749E+03  0.7818608E-02  0.9640108E-01
         -2   -1    0    0    0  501 -0.00000000000E+00  0.00000000000E+00  0.57705631035E+03  0.57705631035E+03  0.25500000000E-02 0. -1.
          2   -1    0    0  501    0  0.00000000000E+00 -0.00000000000E+00 -0.24173180537E+03  0.24173180539E+03  0.25500000000E-02 0.  1.
    5000001    1    1    2    0    0  0.28388020207E+03  0.17499907246E+03  0.20326937564E+03  0.42397651298E+03  0.16500000000E+03 0.  0.
   -5000001    1    1    2    0    0 -0.28388020207E+03 -0.17499907246E+03  0.13205512933E+03  0.39481160276E+03  0.16500000000E+03 0.  0.
<mgrwt>
<rscale>  0 0.74697487E+03</rscale>
<asrwt>0</asrwt>
<pdfrwt beam="1">  1        2 0.34533115E-01 0.74697487E+03</pdfrwt>
<pdfrwt beam="2">  1       -2 0.82436616E-01 0.74697487E+03</pdfrwt>
<totfact> 0.19784050E+02</totfact>
</mgrwt>
</event>
<event>
 4    1  0.5387486E-005  0.6182740E+03  0.7818608E-02  0.9868202E-01
         -2   -1    0    0    0  501 -0.00000000000E+00  0.00000000000E+00  0.43101840692E+04  0.43101840692E+04  0.25500000000E-02 0. -1.
          2   -1    0    0  501    0  0.00000000000E+00 -0.00000000000E+00 -0.22172065220E+02  0.22172065367E+02  0.25500000000E-02 0.  1.
    5000001    1    1    2    0    0 -0.52387427041E+02  0.77564079332E+02  0.43362203722E+03  0.47330085578E+03  0.16500000000E+03 0.  0.
   -5000001    1    1    2    0    0  0.52387427041E+02 -0.77564079332E+02  0.38543899667E+04  0.38590552787E+04  0.16500000000E+03 0.  0.
<mgrwt>
<rscale>  0 0.61827399E+03</rscale>
<asrwt>0</asrwt>
<pdfrwt beam="1">  1        2 0.31674352E-02 0.61827399E+03</pdfrwt>
<pdfrwt beam="2">  1       -2 0.61574111E+00 0.61827399E+03</pdfrwt>
<totfact> 0.14270763E+00</totfact>
</mgrwt>
</event>
<event>
 4    1  0.5387486E-005  0.5840721E+03  0.7818608E-02  0.9939014E-01
          2   -1    0    0  501    0  0.00000000000E+00  0.00000000000E+00  0.69714904736E+03  0.69714904737E+03  0.25500000000E-02 0.  1.
         -2   -1    0    0    0  501 -0.00000000000E+00 -0.00000000000E+00 -0.12233404791E+03  0.12233404794E+03  0.25500000000E-02 0. -1.
    5000001    1    1    2    0    0  0.11975983278E+03 -0.18594922744E+03  0.15326720582E+03  0.31565070745E+03  0.16500000000E+03 0.  0.
   -5000001    1    1    2    0    0 -0.11975983278E+03  0.18594922744E+03  0.42154779364E+03  0.50383238786E+03  0.16500000000E+03 0.  0.
<mgrwt>
<rscale>  0 0.58407214E+03</rscale>
<asrwt>0</asrwt>
<pdfrwt beam="1">  1        2 0.99592719E-01 0.58407214E+03</pdfrwt>
<pdfrwt beam="2">  1       -2 0.17476293E-01 0.58407214E+03</pdfrwt>
<totfact> 0.12222946E+03</totfact>
</mgrwt>
</event>
<event>
 4    1  0.5387486E-005  0.7595054E+03  0.7818608E-02  0.9620555E-01
         -2   -1    0    0    0  501 -0.00000000000E+00  0.00000000000E+00  0.25421915201E+03  0.25421915202E+03  0.25500000000E-02 0. -1.
          2   -1    0    0  501    0  0.00000000000E+00 -0.00000000000E+00 -0.56727474042E+03  0.56727474043E+03  0.25500000000E-02 0.  1.
    5000001    1    1    2    0    0 -0.70491911021E+02  0.27925170118E+03  0.43019487431E+02  0.33470329910E+03  0.16500000000E+03 0.  0.
   -5000001    1    1    2    0    0  0.70491911021E+02 -0.27925170118E+03 -0.35607507584E+03  0.48679059334E+03  0.16500000000E+03 0.  0.
<mgrwt>
<rscale>  0 0.75950537E+03</rscale>
<asrwt>0</asrwt>
<pdfrwt beam="1">  1        2 0.81039248E-01 0.75950537E+03</pdfrwt>
<pdfrwt beam="2">  1       -2 0.36317022E-01 0.75950537E+03</pdfrwt>
<totfact> 0.41580532E+02</totfact>
</mgrwt>
</event>
<event>
 4    1  0.5387486E-005  0.4842391E+03  0.7818608E-02  0.1017977E+00
          2   -1    0    0  501    0  0.00000000000E+00  0.00000000000E+00  0.30490280261E+04  0.30490280261E+04  0.25500000000E-02 0.  1.
         -2   -1    0    0    0  501 -0.00000000000E+00 -0.00000000000E+00 -0.19226415357E+02  0.19226415526E+02  0.25500000000E-02 0. -1.
    5000001    1    1    2    0    0 -0.16856056094E+03  0.24009187659E+02  0.18258142647E+04  0.18411441641E+04  0.16500000000E+03 0.  0.
   -5000001    1    1    2    0    0  0.16856056094E+03 -0.24009187659E+02  0.12039873460E+04  0.12271102775E+04  0.16500000000E+03 0.  0.
<mgrwt>
<rscale>  0 0.48423911E+03</rscale>
<asrwt>0</asrwt>
<pdfrwt beam="1">  1        2 0.43557572E+00 0.48423911E+03</pdfrwt>
<pdfrwt beam="2">  1       -2 0.27466290E-02 0.48423911E+03</pdfrwt>
<totfact> 0.12304766E+03</totfact>
</mgrwt>
</event>
<event>
 4    1  0.5387486E-005  0.4349506E+03  0.7818608E-02  0.1032307E+00
          2   -1    0    0  501    0  0.00000000000E+00  0.00000000000E+00  0.20109583227E+04  0.20109583227E+04  0.25500000000E-02 0.  1.
         -2   -1    0    0    0  501 -0.00000000000E+00 -0.00000000000E+00 -0.23518884574E+02  0.23518884713E+02  0.25500000000E-02 0. -1.
    5000001    1    1    2    0    0  0.13542152781E+03 -0.14478503305E+02  0.81124484193E+03  0.83898260459E+03  0.16500000000E+03 0.  0.
   -5000001    1    1    2    0    0 -0.13542152781E+03  0.14478503305E+02  0.11761945962E+04  0.11954946028E+04  0.16500000000E+03 0.  0.
<mgrwt>
<rscale>  0 0.43495056E+03</rscale>
<asrwt>0</asrwt>
<pdfrwt beam="1">  1        2 0.28727980E+00 0.43495056E+03</pdfrwt>
<pdfrwt beam="2">  1       -2 0.33598401E-02 0.43495056E+03</pdfrwt>
<totfact> 0.31049066E+03</totfact>
</mgrwt>
</event>
<event>
 4    1  0.5387486E-005  0.4843524E+03  0.7818608E-02  0.1017946E+00
         -2   -1    0    0    0  501 -0.00000000000E+00  0.00000000000E+00  0.12920706090E+03  0.12920706093E+03  0.25500000000E-02 0. -1.
          2   -1    0    0  501    0  0.00000000000E+00 -0.00000000000E+00 -0.45391718897E+03  0.45391718898E+03  0.25500000000E-02 0.  1.
    5000001    1    1    2    0    0 -0.66303477931E+02  0.15738846043E+03 -0.21955138146E+03  0.32341163826E+03  0.16500000000E+03 0.  0.
   -5000001    1    1    2    0    0  0.66303477931E+02 -0.15738846043E+03 -0.10515874662E+03  0.25971261165E+03  0.16500000000E+03 0.  0.
<mgrwt>
<rscale>  0 0.48435238E+03</rscale>
<asrwt>0</asrwt>
<pdfrwt beam="1">  1        2 0.64845312E-01 0.48435238E+03</pdfrwt>
<pdfrwt beam="2">  1       -2 0.18458152E-01 0.48435238E+03</pdfrwt>
<totfact> 0.18313641E+03</totfact>
</mgrwt>
</event>
<event>
 4    1  0.5387486E-005  0.5910022E+03  0.7818608E-02  0.9924252E-01
         -2   -1    0    0    0  501 -0.00000000000E+00  0.00000000000E+00  0.46624332324E+03  0.46624332325E+03  0.25500000000E-02 0. -1.
          2   -1    0    0  501    0  0.00000000000E+00 -0.00000000000E+00 -0.18728608980E+03  0.18728608982E+03  0.25500000000E-02 0.  1.
    5000001    1    1    2    0    0  0.20147956924E+03  0.13611774044E+03  0.10497073713E+03  0.31203511299E+03  0.16500000000E+03 0.  0.
   -5000001    1    1    2    0    0 -0.20147956924E+03 -0.13611774044E+03  0.17398649631E+03  0.34149430008E+03  0.16500000000E+03 0.  0.
<mgrwt>
<rscale>  0 0.59100216E+03</rscale>
<asrwt>0</asrwt>
<pdfrwt beam="1">  1        2 0.26755156E-01 0.59100216E+03</pdfrwt>
<pdfrwt beam="2">  1       -2 0.66606188E-01 0.59100216E+03</pdfrwt>
<totfact> 0.42373784E+02</totfact>
</mgrwt>
</event>
<event>
 4    1  0.5387486E-005  0.7619328E+03  0.7818608E-02  0.9616813E-01
          2   -1    0    0  501    0  0.00000000000E+00  0.00000000000E+00  0.12822895410E+04  0.12822895410E+04  0.25500000000E-02 0.  1.
         -2   -1    0    0    0  501 -0.00000000000E+00 -0.00000000000E+00 -0.11318457400E+03  0.11318457403E+03  0.25500000000E-02 0. -1.
    5000001    1    1    2    0    0 -0.41131377475E+02 -0.22988076981E+03  0.10456138674E+04  0.10840066044E+04  0.16500000000E+03 0.  0.
   -5000001    1    1    2    0    0  0.41131377475E+02  0.22988076981E+03  0.12349109960E+03  0.31146751070E+03  0.16500000000E+03 0.  0.
<mgrwt>
<rscale>  0 0.76193279E+03</rscale>
<asrwt>0</asrwt>
<pdfrwt beam="1">  1        2 0.18318422E+00 0.76193279E+03</pdfrwt>
<pdfrwt beam="2">  1       -2 0.16169225E-01 0.76193279E+03</pdfrwt>
<totfact> 0.59563416E+02</totfact>
</mgrwt>
</event>
<event>
 4    1  0.5387486E-005  0.6285047E+03  0.7818608E-02  0.9847971E-01
         -2   -1    0    0    0  501 -0.00000000000E+00  0.00000000000E+00  0.42576265569E+02  0.42576265645E+02  0.25500000000E-02 0. -1.
          2   -1    0    0  501    0  0.00000000000E+00 -0.00000000000E+00 -0.23194742962E+04  0.23194742962E+04  0.25500000000E-02 0.  1.
    5000001    1    1    2    0    0  0.26368242882E+03 -0.93811778694E+00 -0.13065316353E+04  0.13430484791E+04  0.16500000000E+03 0.  0.
   -5000001    1    1    2    0    0 -0.26368242882E+03  0.93811778694E+00 -0.97036639536E+03  0.10190020827E+04  0.16500000000E+03 0.  0.
<mgrwt>
<rscale>  0 0.62850475E+03</rscale>
<asrwt>0</asrwt>
<pdfrwt beam="1">  1        2 0.33135339E+00 0.62850475E+03</pdfrwt>
<pdfrwt beam="2">  1       -2 0.60823251E-02 0.62850475E+03</pdfrwt>
<totfact> 0.86311617E+02</totfact>
</mgrwt>
</event>
<event>
 4    1  0.5387486E-005  0.5215593E+03  0.7818608E-02  0.1008300E+00
         -2   -1    0    0    0  501 -0.00000000000E+00  0.00000000000E+00  0.13077208029E+03  0.13077208032E+03  0.25500000000E-02 0. -1.
          2   -1    0    0  501    0  0.00000000000E+00 -0.00000000000E+00 -0.52003467819E+03  0.52003467819E+03  0.25500000000E-02 0.  1.
    5000001    1    1    2    0    0 -0.44527737546E+02  0.19666923470E+03 -0.18099019740E+03  0.31724432043E+03  0.16500000000E+03 0.  0.
   -5000001    1    1    2    0    0  0.44527737546E+02 -0.19666923470E+03 -0.20827240050E+03  0.33356243808E+03  0.16500000000E+03 0.  0.
<mgrwt>
<rscale>  0 0.52155926E+03</rscale>
<asrwt>0</asrwt>
<pdfrwt beam="1">  1        2 0.74290667E-01 0.52155926E+03</pdfrwt>
<pdfrwt beam="2">  1       -2 0.18681726E-01 0.52155926E+03</pdfrwt>
<totfact> 0.15393327E+03</totfact>
</mgrwt>
</event>
<event>
 4    1  0.5387486E-005  0.8672235E+03  0.7818608E-02  0.9467507E-01
          2   -1    0    0  501    0  0.00000000000E+00  0.00000000000E+00  0.80100403617E+03  0.80100403617E+03  0.25500000000E-02 0.  1.
         -2   -1    0    0    0  501 -0.00000000000E+00 -0.00000000000E+00 -0.23472933237E+03  0.23472933238E+03  0.25500000000E-02 0. -1.
    5000001    1    1    2    0    0  0.38655614598E+03 -0.25848413873E+02  0.40667971173E+03  0.58541197667E+03  0.16500000000E+03 0.  0.
   -5000001    1    1    2    0    0 -0.38655614598E+03  0.25848413873E+02  0.15959499207E+03  0.45032139188E+03  0.16500000000E+03 0.  0.
<mgrwt>
<rscale>  0 0.86722348E+03</rscale>
<asrwt>0</asrwt>
<pdfrwt beam="1">  1        2 0.11442915E+00 0.86722348E+03</pdfrwt>
<pdfrwt beam="2">  1       -2 0.33532762E-01 0.86722348E+03</pdfrwt>
<totfact> 0.31591143E+02</totfact>
</mgrwt>
</event>
<event>
 4    1  0.5387486E-005  0.3867441E+03  0.7818608E-02  0.1048469E+00
          2   -1    0    0  501    0  0.00000000000E+00  0.00000000000E+00  0.19831075819E+03  0.19831075821E+03  0.25500000000E-02 0.  1.
         -2   -1    0    0    0  501 -0.00000000000E+00 -0.00000000000E+00 -0.18855635599E+03  0.18855635601E+03  0.25500000000E-02 0. -1.
    5000001    1    1    2    0    0  0.37803772022E+02 -0.50815991977E+02  0.83364652489E+02  0.19541252648E+03  0.16500000000E+03 0.  0.
   -5000001    1    1    2    0    0 -0.37803772022E+02  0.50815991977E+02 -0.73610250288E+02  0.19145458774E+03  0.16500000000E+03 0.  0.
<mgrwt>
<rscale>  0 0.38674412E+03</rscale>
<asrwt>0</asrwt>
<pdfrwt beam="1">  1        2 0.28330108E-01 0.38674412E+03</pdfrwt>
<pdfrwt beam="2">  1       -2 0.26936622E-01 0.38674412E+03</pdfrwt>
<totfact> 0.23408570E+03</totfact>
</mgrwt>
</event>
<event>
 4    1  0.5387486E-005  0.3560061E+03  0.7818608E-02  0.1060177E+00
          2   -1    0    0  501    0  0.00000000000E+00  0.00000000000E+00  0.46574182789E+03  0.46574182789E+03  0.25500000000E-02 0.  1.
         -2   -1    0    0    0  501 -0.00000000000E+00 -0.00000000000E+00 -0.68031435941E+02  0.68031435989E+02  0.25500000000E-02 0. -1.
    5000001    1    1    2    0    0  0.47042788971E+02  0.44324928091E+02  0.17366087945E+03  0.24811453866E+03  0.16500000000E+03 0.  0.
   -5000001    1    1    2    0    0 -0.47042788971E+02 -0.44324928091E+02  0.22404951250E+03  0.28565872522E+03  0.16500000000E+03 0.  0.
<mgrwt>
<rscale>  0 0.35600610E+03</rscale>
<asrwt>0</asrwt>
<pdfrwt beam="1">  1        2 0.66534544E-01 0.35600610E+03</pdfrwt>
<pdfrwt beam="2">  1       -2 0.97187769E-02 0.35600610E+03</pdfrwt>
<totfact> 0.51098400E+03</totfact>
</mgrwt>
</event>
<event>
 4    1  0.5387486E-005  0.1066563E+04  0.7818608E-02  0.9238409E-01
          2   -1    0    0  501    0  0.00000000000E+00  0.00000000000E+00  0.25027702382E+04  0.25027702382E+04  0.25500000000E-02 0.  1.
         -2   -1    0    0    0  501 -0.00000000000E+00 -0.00000000000E+00 -0.11362970432E+03  0.11362970435E+03  0.25500000000E-02 0. -1.
    5000001    1    1    2    0    0  0.38287245259E+03  0.17046601378E+03  0.49418986896E+03  0.66865432279E+03  0.16500000000E+03 0.  0.
   -5000001    1    1    2    0    0 -0.38287245259E+03 -0.17046601378E+03  0.18949506649E+04  0.19477456197E+04  0.16500000000E+03 0.  0.
<mgrwt>
<rscale>  0 0.10665628E+04</rscale>
<asrwt>0</asrwt>
<pdfrwt beam="1">  1        2 0.35753856E+00 0.10665628E+04</pdfrwt>
<pdfrwt beam="2">  1       -2 0.16232817E-01 0.10665628E+04</pdfrwt>
<totfact> 0.13516396E+02</totfact>
</mgrwt>
</event>
<event>
 4    1  0.5387486E-005  0.3759653E+03  0.7818608E-02  0.1052435E+00
         -2   -1    0    0    0  501 -0.00000000000E+00  0.00000000000E+00  0.70401283638E+02  0.70401283684E+02  0.25500000000E-02 0. -1.
          2   -1    0    0  501    0  0.00000000000E+00 -0.00000000000E+00 -0.50194371223E+03  0.50194371224E+03  0.25500000000E-02 0.  1.
    5000001    1    1    2    0    0  0.79121556778E+01  0.88854434901E+02 -0.19683243907E+03  0.27189285000E+03  0.16500000000E+03 0.  0.
   -5000001    1    1    2    0    0 -0.79121556778E+01 -0.88854434901E+02 -0.23470998952E+03  0.30045214593E+03  0.16500000000E+03 0.  0.
<mgrwt>
<rscale>  0 0.37596533E+03</rscale>
<asrwt>0</asrwt>
<pdfrwt beam="1">  1        2 0.71706243E-01 0.37596533E+03</pdfrwt>
<pdfrwt beam="2">  1       -2 0.10057327E-01 0.37596533E+03</pdfrwt>
<totfact> 0.44563007E+03</totfact>
</mgrwt>
</event>
<event>
 4    1  0.5387486E-005  0.4551234E+03  0.7818608E-02  0.1026205E+00
         -2   -1    0    0    0  501 -0.00000000000E+00  0.00000000000E+00  0.14852452723E+02  0.14852452942E+02  0.25500000000E-02 0. -1.
          2   -1    0    0  501    0  0.00000000000E+00 -0.00000000000E+00 -0.34865843119E+04  0.34865843119E+04  0.25500000000E-02 0.  1.
    5000001    1    1    2    0    0 -0.65049551060E+02 -0.14125885288E+03 -0.15871185878E+04  0.16032329586E+04  0.16500000000E+03 0.  0.
   -5000001    1    1    2    0    0  0.65049551060E+02  0.14125885288E+03 -0.18846132714E+04  0.18982038063E+04  0.16500000000E+03 0.  0.
<mgrwt>
<rscale>  0 0.45512341E+03</rscale>
<asrwt>0</asrwt>
<pdfrwt beam="1">  1        2 0.49808295E+00 0.45512341E+03</pdfrwt>
<pdfrwt beam="2">  1       -2 0.21217812E-02 0.45512341E+03</pdfrwt>
<totfact> 0.10297003E+03</totfact>
</mgrwt>
</event>
<event>
 4    1  0.5387486E-005  0.4740485E+03  0.7818608E-02  0.1020784E+00
         -2   -1    0    0    0  501 -0.00000000000E+00  0.00000000000E+00  0.12752984013E+02  0.12752984268E+02  0.25500000000E-02 0. -1.
          2   -1    0    0  501    0  0.00000000000E+00 -0.00000000000E+00 -0.44052819417E+04  0.44052819417E+04  0.25500000000E-02 0.  1.
    5000001    1    1    2    0    0  0.25539313035E+02 -0.15367783747E+03 -0.15582595314E+04  0.15746958124E+04  0.16500000000E+03 0.  0.
   -5000001    1    1    2    0    0 -0.25539313035E+02  0.15367783747E+03 -0.28342694263E+04  0.28433391136E+04  0.16500000000E+03 0.  0.
<mgrwt>
<rscale>  0 0.47404848E+03</rscale>
<asrwt>0</asrwt>
<pdfrwt beam="1">  1        2 0.62932502E+00 0.47404848E+03</pdfrwt>
<pdfrwt beam="2">  1       -2 0.18218577E-02 0.47404848E+03</pdfrwt>
<totfact> 0.32080763E+02</totfact>
</mgrwt>
</event>
<event>
 4    1  0.5387486E-005  0.4040368E+03  0.7818608E-02  0.1042391E+00
         -2   -1    0    0    0  501 -0.00000000000E+00  0.00000000000E+00  0.17016915040E+03  0.17016915042E+03  0.25500000000E-02 0. -1.
          2   -1    0    0  501    0  0.00000000000E+00 -0.00000000000E+00 -0.23982861969E+03  0.23982861970E+03  0.25500000000E-02 0.  1.
    5000001    1    1    2    0    0 -0.32438181847E+01 -0.98161758717E+02  0.28867205224E+02  0.19417664321E+03  0.16500000000E+03 0.  0.
   -5000001    1    1    2    0    0  0.32438181847E+01  0.98161758717E+02 -0.98526674508E+02  0.21582112691E+03  0.16500000000E+03 0.  0.
<mgrwt>
<rscale>  0 0.40403679E+03</rscale>
<asrwt>0</asrwt>
<pdfrwt beam="1">  1        2 0.34261231E-01 0.40403679E+03</pdfrwt>
<pdfrwt beam="2">  1       -2 0.24309879E-01 0.40403679E+03</pdfrwt>
<totfact> 0.22793806E+03</totfact>
</mgrwt>
</event>
<event>
 4    1  0.5387486E-005  0.8861616E+03  0.7818608E-02  0.9443047E-01
          2   -1    0    0  501    0  0.00000000000E+00  0.00000000000E+00  0.59743588005E+03  0.59743588006E+03  0.25500000000E-02 0.  1.
         -2   -1    0    0    0  501 -0.00000000000E+00 -0.00000000000E+00 -0.32860531587E+03  0.32860531588E+03  0.25500000000E-02 0. -1.
    5000001    1    1    2    0    0  0.30885959165E+03 -0.66298842815E+02 -0.14069208998E+03  0.38315668870E+03  0.16500000000E+03 0.  0.
   -5000001    1    1    2    0    0 -0.30885959165E+03  0.66298842815E+02  0.40952265416E+03  0.54288450723E+03  0.16500000000E+03 0.  0.
<mgrwt>
<rscale>  0 0.88616162E+03</rscale>
<asrwt>0</asrwt>
<pdfrwt beam="1">  1        2 0.85347983E-01 0.88616162E+03</pdfrwt>
<pdfrwt beam="2">  1       -2 0.46943616E-01 0.88616162E+03</pdfrwt>
<totfact> 0.23529145E+02</totfact>
</mgrwt>
</event>
<event>
 4    1  0.5387486E-005  0.4959894E+03  0.7818608E-02  0.1014831E+00
          2   -1    0    0  501    0  0.00000000000E+00  0.00000000000E+00  0.21719696726E+04  0.21719696726E+04  0.25500000000E-02 0.  1.
         -2   -1    0    0    0  501 -0.00000000000E+00 -0.00000000000E+00 -0.28315943417E+02  0.28315943531E+02  0.25500000000E-02 0. -1.
    5000001    1    1    2    0    0 -0.22138424631E+02  0.18205090944E+03  0.11843799829E+04  0.12097989863E+04  0.16500000000E+03 0.  0.
   -5000001    1    1    2    0    0  0.22138424631E+02 -0.18205090944E+03  0.95927374627E+03  0.99048662977E+03  0.16500000000E+03 0.  0.
<mgrwt>
<rscale>  0 0.49598940E+03</rscale>
<asrwt>0</asrwt>
<pdfrwt beam="1">  1        2 0.31028146E+00 0.49598940E+03</pdfrwt>
<pdfrwt beam="2">  1       -2 0.40451337E-02 0.49598940E+03</pdfrwt>
<totfact> 0.19414501E+03</totfact>
</mgrwt>
</event>
<event>
 4    1  0.5387486E-005  0.5129598E+03  0.7818608E-02  0.1010451E+00
         -2   -1    0    0    0  501 -0.00000000000E+00  0.00000000000E+00  0.80566417222E+02  0.80566417262E+02  0.25500000000E-02 0. -1.
          2   -1    0    0  501    0  0.00000000000E+00 -0.00000000000E+00 -0.81649318307E+03  0.81649318307E+03  0.25500000000E-02 0.  1.
    5000001    1    1    2    0    0  0.83343565330E+02 -0.16102759292E+03 -0.23615398601E+03  0.34039644633E+03  0.16500000000E+03 0.  0.
   -5000001    1    1    2    0    0 -0.83343565330E+02  0.16102759292E+03 -0.49977277984E+03  0.55666315401E+03  0.16500000000E+03 0.  0.
<mgrwt>
<rscale>  0 0.51295977E+03</rscale>
<asrwt>0</asrwt>
<pdfrwt beam="1">  1        2 0.11664188E+00 0.51295977E+03</pdfrwt>
<pdfrwt beam="2">  1       -2 0.11509489E-01 0.51295977E+03</pdfrwt>
<totfact> 0.20172803E+03</totfact>
</mgrwt>
</event>
<event>
 4    1  0.5387486E-005  0.4524274E+03  0.7818608E-02  0.1027001E+00
          2   -1    0    0  501    0  0.00000000000E+00  0.00000000000E+00  0.67372108810E+03  0.67372108810E+03  0.25500000000E-02 0.  1.
         -2   -1    0    0    0  501 -0.00000000000E+00 -0.00000000000E+00 -0.75955218692E+02  0.75955218735E+02  0.25500000000E-02 0. -1.
    5000001    1    1    2    0    0 -0.14859878978E+03  0.43139337318E+02  0.30259916468E+03  0.37780134623E+03  0.16500000000E+03 0.  0.
   -5000001    1    1    2    0    0  0.14859878978E+03 -0.43139337318E+02  0.29516670473E+03  0.37187496061E+03  0.16500000000E+03 0.  0.
<mgrwt>
<rscale>  0 0.45242738E+03</rscale>
<asrwt>0</asrwt>
<pdfrwt beam="1">  1        2 0.96245864E-01 0.45242738E+03</pdfrwt>
<pdfrwt beam="2">  1       -2 0.10850746E-01 0.45242738E+03</pdfrwt>
<totfact> 0.28144785E+03</totfact>
</mgrwt>
</event>
<event>
 4    1  0.5387486E-005  0.6424758E+03  0.7818608E-02  0.9821001E-01
          2   -1    0    0  501    0  0.00000000000E+00  0.00000000000E+00  0.61489494274E+03  0.61489494275E+03  0.25500000000E-02 0.  1.
         -2   -1    0    0    0  501 -0.00000000000E+00 -0.00000000000E+00 -0.16782342748E+03  0.16782342750E+03  0.25500000000E-02 0. -1.
    5000001    1    1    2    0    0 -0.11037816421E+03 -0.18718685682E+03  0.43009346440E+03  0.50934040348E+03  0.16500000000E+03 0.  0.
   -5000001    1    1    2    0    0  0.11037816421E+03  0.18718685682E+03  0.16978050860E+02  0.27337796676E+03  0.16500000000E+03 0.  0.
<mgrwt>
<rscale>  0 0.64247576E+03</rscale>
<asrwt>0</asrwt>
<pdfrwt beam="1">  1        2 0.87842135E-01 0.64247576E+03</pdfrwt>
<pdfrwt beam="2">  1       -2 0.23974775E-01 0.64247576E+03</pdfrwt>
<totfact> 0.81719871E+02</totfact>
</mgrwt>
</event>
<event>
 4    1  0.5387486E-005  0.4561324E+03  0.7818608E-02  0.1025909E+00
          2   -1    0    0  501    0  0.00000000000E+00  0.00000000000E+00  0.99697850374E+03  0.99697850374E+03  0.25500000000E-02 0.  1.
         -2   -1    0    0    0  501 -0.00000000000E+00 -0.00000000000E+00 -0.52171835707E+02  0.52171835770E+02  0.25500000000E-02 0. -1.
    5000001    1    1    2    0    0 -0.12960849634E+03  0.70387462880E+02  0.34565880226E+03  0.41043606668E+03  0.16500000000E+03 0.  0.
   -5000001    1    1    2    0    0  0.12960849634E+03 -0.70387462880E+02  0.59914786577E+03  0.63871427283E+03  0.16500000000E+03 0.  0.
<mgrwt>
<rscale>  0 0.45613243E+03</rscale>
<asrwt>0</asrwt>
<pdfrwt beam="1">  1        2 0.14242549E+00 0.45613243E+03</pdfrwt>
<pdfrwt beam="2">  1       -2 0.74531199E-02 0.45613243E+03</pdfrwt>
<totfact> 0.31040968E+03</totfact>
</mgrwt>
</event>
<event>
 4    1  0.5387486E-005  0.4457981E+03  0.7818608E-02  0.1028983E+00
         -2   -1    0    0    0  501 -0.00000000000E+00  0.00000000000E+00  0.94413840102E+03  0.94413840103E+03  0.25500000000E-02 0. -1.
          2   -1    0    0  501    0  0.00000000000E+00 -0.00000000000E+00 -0.52623633470E+02  0.52623633532E+02  0.25500000000E-02 0.  1.
    5000001    1    1    2    0    0 -0.45601390250E+02  0.14138931875E+03  0.48983175972E+03  0.53780161684E+03  0.16500000000E+03 0.  0.
   -5000001    1    1    2    0    0  0.45601390250E+02 -0.14138931875E+03  0.40168300783E+03  0.45896041772E+03  0.16500000000E+03 0.  0.
<mgrwt>
<rscale>  0 0.44579813E+03</rscale>
<asrwt>0</asrwt>
<pdfrwt beam="1">  1        2 0.75176628E-02 0.44579813E+03</pdfrwt>
<pdfrwt beam="2">  1       -2 0.13487690E+00 0.44579813E+03</pdfrwt>
<totfact> 0.38480973E+02</totfact>
</mgrwt>
</event>
<event>
 4    1  0.5387486E-005  0.3963146E+03  0.7818608E-02  0.1045063E+00
          2   -1    0    0  501    0  0.00000000000E+00  0.00000000000E+00  0.12752877729E+04  0.12752877729E+04  0.25500000000E-02 0.  1.
         -2   -1    0    0    0  501 -0.00000000000E+00 -0.00000000000E+00 -0.30790162986E+02  0.30790163092E+02  0.25500000000E-02 0. -1.
    5000001    1    1    2    0    0  0.85657709229E+02 -0.64893703190E+02  0.54908424866E+03  0.58332405058E+03  0.16500000000E+03 0.  0.
   -5000001    1    1    2    0    0 -0.85657709229E+02  0.64893703190E+02  0.69541336124E+03  0.72275388540E+03  0.16500000000E+03 0.  0.
<mgrwt>
<rscale>  0 0.39631461E+03</rscale>
<asrwt>0</asrwt>
<pdfrwt beam="1">  1        2 0.18218399E+00 0.39631461E+03</pdfrwt>
<pdfrwt beam="2">  1       -2 0.43985941E-02 0.39631461E+03</pdfrwt>
<totfact> 0.48807122E+03</totfact>
</mgrwt>
</event>
<event>
 4    1  0.5387486E-005  0.6792411E+03  0.7818608E-02  0.9753406E-01
         -2   -1    0    0    0  501 -0.00000000000E+00  0.00000000000E+00  0.83225157051E+02  0.83225157090E+02  0.25500000000E-02 0. -1.
          2   -1    0    0  501    0  0.00000000000E+00 -0.00000000000E+00 -0.13859043952E+04  0.13859043953E+04  0.25500000000E-02 0.  1.
    5000001    1    1    2    0    0 -0.99612101992E+02  0.26667424042E+03 -0.83332397619E+03  0.89593056130E+03  0.16500000000E+03 0.  0.
   -5000001    1    1    2    0    0  0.99612101992E+02 -0.26667424042E+03 -0.46935526200E+03  0.57319899105E+03  0.16500000000E+03 0.  0.
<mgrwt>
<rscale>  0 0.67924108E+03</rscale>
<asrwt>0</asrwt>
<pdfrwt beam="1">  1        2 0.19798633E+00 0.67924108E+03</pdfrwt>
<pdfrwt beam="2">  1       -2 0.11889309E-01 0.67924108E+03</pdfrwt>
<totfact> 0.87915614E+02</totfact>
</mgrwt>
</event>
<event>
 4    1  0.5387486E-005  0.6154745E+03  0.7818608E-02  0.9873811E-01
          2   -1    0    0  501    0  0.00000000000E+00  0.00000000000E+00  0.32504339198E+03  0.32504339199E+03  0.25500000000E-02 0.  1.
         -2   -1    0    0    0  501 -0.00000000000E+00 -0.00000000000E+00 -0.29135252582E+03  0.29135252583E+03  0.25500000000E-02 0. -1.
    5000001    1    1    2    0    0 -0.19158154972E+03  0.31080988667E+02  0.18975295721E+03  0.31764870977E+03  0.16500000000E+03 0.  0.
   -5000001    1    1    2    0    0  0.19158154972E+03 -0.31080988667E+02 -0.15606209105E+03  0.29874720805E+03  0.16500000000E+03 0.  0.
<mgrwt>
<rscale>  0 0.61547449E+03</rscale>
<asrwt>0</asrwt>
<pdfrwt beam="1">  1        2 0.46434770E-01 0.61547449E+03</pdfrwt>
<pdfrwt beam="2">  1       -2 0.41621789E-01 0.61547449E+03</pdfrwt>
<totfact> 0.60041637E+02</totfact>
</mgrwt>
</event>
<event>
 4    1  0.5387486E-005  0.3782068E+03  0.7818608E-02  0.1051599E+00
          2   -1    0    0  501    0  0.00000000000E+00  0.00000000000E+00  0.49227193193E+02  0.49227193259E+02  0.25500000000E-02 0.  1.
         -2   -1    0    0    0  501 -0.00000000000E+00 -0.00000000000E+00 -0.72642956748E+03  0.72642956749E+03  0.25500000000E-02 0. -1.
    5000001    1    1    2    0    0 -0.72418148679E+02 -0.11763239671E+02 -0.45374905421E+03  0.48836048803E+03  0.16500000000E+03 0.  0.
   -5000001    1    1    2    0    0  0.72418148679E+02  0.11763239671E+02 -0.22345332008E+03  0.28729627272E+03  0.16500000000E+03 0.  0.
<mgrwt>
<rscale>  0 0.37820676E+03</rscale>
<asrwt>0</asrwt>
<pdfrwt beam="1">  1        2 0.70324566E-02 0.37820676E+03</pdfrwt>
<pdfrwt beam="2">  1       -2 0.10377565E+00 0.37820676E+03</pdfrwt>
<totfact> 0.79490866E+02</totfact>
</mgrwt>
</event>
<event>
 4    1  0.5387486E-005  0.1008202E+04  0.7818608E-02  0.9299594E-01
         -2   -1    0    0    0  501 -0.00000000000E+00  0.00000000000E+00  0.11114710782E+03  0.11114710785E+03  0.25500000000E-02 0. -1.
          2   -1    0    0  501    0  0.00000000000E+00 -0.00000000000E+00 -0.22863217004E+04  0.22863217004E+04  0.25500000000E-02 0.  1.
    5000001    1    1    2    0    0  0.22246644452E+03 -0.39911177151E+03 -0.76756321373E+03  0.90838307567E+03  0.16500000000E+03 0.  0.
   -5000001    1    1    2    0    0 -0.22246644452E+03  0.39911177151E+03 -0.14076113788E+04  0.14890857325E+04  0.16500000000E+03 0.  0.
<mgrwt>
<rscale>  0 0.10082024E+04</rscale>
<asrwt>0</asrwt>
<pdfrwt beam="1">  1        2 0.32661736E+00 0.10082024E+04</pdfrwt>
<pdfrwt beam="2">  1       -2 0.15878160E-01 0.10082024E+04</pdfrwt>
<totfact> 0.18250073E+02</totfact>
</mgrwt>
</event>
<event>
 4    1  0.5387486E-005  0.5935969E+03  0.7818608E-02  0.9918780E-01
          2   -1    0    0  501    0  0.00000000000E+00  0.00000000000E+00  0.43487925988E+03  0.43487925989E+03  0.25500000000E-02 0. -1.
         -2   -1    0    0    0  501 -0.00000000000E+00 -0.00000000000E+00 -0.20256037552E+03  0.20256037553E+03  0.25500000000E-02 0.  1.
    5000001    1    1    2    0    0  0.16800818326E+03 -0.12999911914E+03 -0.18556590798E+02  0.26962171218E+03  0.16500000000E+03 0.  0.
   -5000001    1    1    2    0    0 -0.16800818326E+03  0.12999911914E+03  0.25087547516E+03  0.36781792324E+03  0.16500000000E+03 0.  0.
<mgrwt>
<rscale>  0 0.59359685E+03</rscale>
<asrwt>0</asrwt>
<pdfrwt beam="1">  1        2 0.62125607E-01 0.59359685E+03</pdfrwt>
<pdfrwt beam="2">  1       -2 0.28937197E-01 0.59359685E+03</pdfrwt>
<totfact> 0.86558931E+02</totfact>
</mgrwt>
</event>
<event>
 4    1  0.5387486E-005  0.5593790E+03  0.7818608E-02  0.9993461E-01
         -2   -1    0    0    0  501 -0.00000000000E+00  0.00000000000E+00  0.37677587524E+03  0.37677587525E+03  0.25500000000E-02 0. -1.
          2   -1    0    0  501    0  0.00000000000E+00 -0.00000000000E+00 -0.20762003245E+03  0.20762003246E+03  0.25500000000E-02 0.  1.
    5000001    1    1    2    0    0  0.13281711686E+03  0.17747253800E+03  0.12968685188E+03  0.30525492269E+03  0.16500000000E+03 0.  0.
   -5000001    1    1    2    0    0 -0.13281711686E+03 -0.17747253800E+03  0.39468990919E+02  0.27914098502E+03  0.16500000000E+03 0.  0.
<mgrwt>
<rscale>  0 0.55937901E+03</rscale>
<asrwt>0</asrwt>
<pdfrwt beam="1">  1        2 0.29660005E-01 0.55937901E+03</pdfrwt>
<pdfrwt beam="2">  1       -2 0.53825125E-01 0.55937901E+03</pdfrwt>
<totfact> 0.59037918E+02</totfact>
</mgrwt>
</event>
<event>
 4    1  0.5387486E-005  0.5166031E+03  0.7818608E-02  0.1009534E+00
         -2   -1    0    0    0  501 -0.00000000000E+00  0.00000000000E+00  0.16874470433E+03  0.16874470435E+03  0.25500000000E-02 0. -1.
          2   -1    0    0  501    0  0.00000000000E+00 -0.00000000000E+00 -0.39538827988E+03  0.39538827989E+03  0.25500000000E-02 0.  1.
    5000001    1    1    2    0    0  0.10039114683E+03  0.16521888785E+03 -0.63053793868E+02  0.26187104496E+03  0.16500000000E+03 0.  0.
   -5000001    1    1    2    0    0 -0.10039114683E+03 -0.16521888785E+03 -0.16358978169E+03  0.30226193928E+03  0.16500000000E+03 0.  0.
<mgrwt>
<rscale>  0 0.51660305E+03</rscale>
<asrwt>0</asrwt>
<pdfrwt beam="1">  1        2 0.56484040E-01 0.51660305E+03</pdfrwt>
<pdfrwt beam="2">  1       -2 0.24106386E-01 0.51660305E+03</pdfrwt>
<totfact> 0.13391138E+03</totfact>
</mgrwt>
</event>
<event>
 4    1  0.5387486E-005  0.5485123E+03  0.7818608E-02  0.1001839E+00
          2   -1    0    0  501    0  0.00000000000E+00  0.00000000000E+00  0.91456606722E+03  0.91456606722E+03  0.25500000000E-02 0.  1.
         -2   -1    0    0    0  501 -0.00000000000E+00 -0.00000000000E+00 -0.82242760424E+02  0.82242760463E+02  0.25500000000E-02 0. -1.
    5000001    1    1    2    0    0  0.77201909338E+02  0.19993864083E+03  0.33376293074E+03  0.42960247769E+03  0.16500000000E+03 0.  0.
   -5000001    1    1    2    0    0 -0.77201909338E+02 -0.19993864083E+03  0.49856037606E+03  0.56720635000E+03  0.16500000000E+03 0.  0.
<mgrwt>
<rscale>  0 0.54851231E+03</rscale>
<asrwt>0</asrwt>
<pdfrwt beam="1">  1        2 0.13065230E+00 0.54851231E+03</pdfrwt>
<pdfrwt beam="2">  1       -2 0.11748965E-01 0.54851231E+03</pdfrwt>
<totfact> 0.16807219E+03</totfact>
</mgrwt>
</event>
<event>
 4    1  0.5387486E-005  0.5676873E+03  0.7818608E-02  0.9974809E-01
          2   -1    0    0  501    0  0.00000000000E+00  0.00000000000E+00  0.83250657620E+03  0.83250657621E+03  0.25500000000E-02 0.  1.
         -2   -1    0    0    0  501 -0.00000000000E+00 -0.00000000000E+00 -0.96776661286E+02  0.96776661320E+02  0.25500000000E-02 0. -1.
    5000001    1    1    2    0    0 -0.18779509608E+03  0.84920228870E+02  0.53848463094E+03  0.59972422090E+03  0.16500000000E+03 0.  0.
   -5000001    1    1    2    0    0  0.18779509608E+03 -0.84920228870E+02  0.19724528398E+03  0.32955901662E+03  0.16500000000E+03 0.  0.
<mgrwt>
<rscale>  0 0.56768726E+03</rscale>
<asrwt>0</asrwt>
<pdfrwt beam="1">  1        2 0.11892951E+00 0.56768726E+03</pdfrwt>
<pdfrwt beam="2">  1       -2 0.13825237E-01 0.56768726E+03</pdfrwt>
<totfact> 0.14533442E+03</totfact>
</mgrwt>
</event>
<event>
 4    1  0.5387486E-005  0.5792589E+03  0.7818608E-02  0.9949397E-01
          2   -1    0    0  501    0  0.00000000000E+00  0.00000000000E+00  0.20224699089E+04  0.20224699089E+04  0.25500000000E-02 0.  1.
         -2   -1    0    0    0  501 -0.00000000000E+00 -0.00000000000E+00 -0.41476627625E+02  0.41476627704E+02  0.25500000000E-02 0. -1.
    5000001    1    1    2    0    0  0.17262312964E+03  0.15455955670E+03  0.11847688711E+04  0.12184373924E+04  0.16500000000E+03 0.  0.
   -5000001    1    1    2    0    0 -0.17262312964E+03 -0.15455955670E+03  0.79622441022E+03  0.84550914417E+03  0.16500000000E+03 0.  0.
<mgrwt>
<rscale>  0 0.57925895E+03</rscale>
<asrwt>0</asrwt>
<pdfrwt beam="1">  1        2 0.28892443E+00 0.57925895E+03</pdfrwt>
<pdfrwt beam="2">  1       -2 0.59252294E-02 0.57925895E+03</pdfrwt>
<totfact> 0.12728777E+03</totfact>
</mgrwt>
</event>
<event>
 4    1  0.5387486E-005  0.5726989E+03  0.7818608E-02  0.9963724E-01
         -2   -1    0    0    0  501 -0.00000000000E+00  0.00000000000E+00  0.74819913162E+02  0.74819913205E+02  0.25500000000E-02 0. -1.
          2   -1    0    0  501    0  0.00000000000E+00 -0.00000000000E+00 -0.10959114997E+04  0.10959114997E+04  0.25500000000E-02 0.  1.
    5000001    1    1    2    0    0 -0.39652039318E+02  0.19993201626E+03 -0.74564094949E+03  0.79041161486E+03  0.16500000000E+03 0.  0.
   -5000001    1    1    2    0    0  0.39652039318E+02 -0.19993201626E+03 -0.27545063708E+03  0.38031979809E+03  0.16500000000E+03 0.  0.
<mgrwt>
<rscale>  0 0.57269889E+03</rscale>
<asrwt>0</asrwt>
<pdfrwt beam="1">  1        2 0.15655878E+00 0.57269889E+03</pdfrwt>
<pdfrwt beam="2">  1       -2 0.10688560E-01 0.57269889E+03</pdfrwt>
<totfact> 0.15216527E+03</totfact>
</mgrwt>
</event>
<event>
 4    1  0.5387486E-005  0.6409058E+03  0.7818608E-02  0.9823995E-01
         -2   -1    0    0    0  501 -0.00000000000E+00  0.00000000000E+00  0.42180322229E+02  0.42180322306E+02  0.25500000000E-02 0. -1.
          2   -1    0    0  501    0  0.00000000000E+00 -0.00000000000E+00 -0.24345490460E+04  0.24345490460E+04  0.25500000000E-02 0.  1.
    5000001    1    1    2    0    0 -0.20339369918E+03 -0.16976250172E+03 -0.14769008985E+04  0.15095196481E+04  0.16500000000E+03 0.  0.
   -5000001    1    1    2    0    0  0.20339369918E+03  0.16976250172E+03 -0.91546782526E+03  0.96720972025E+03  0.16500000000E+03 0.  0.
<mgrwt>
<rscale>  0 0.64090581E+03</rscale>
<asrwt>0</asrwt>
<pdfrwt beam="1">  1        2 0.34779263E+00 0.64090581E+03</pdfrwt>
<pdfrwt beam="2">  1       -2 0.60257619E-02 0.64090581E+03</pdfrwt>
<totfact> 0.76460368E+02</totfact>
</mgrwt>
</event>
<event>
 4    1  0.5387486E-005  0.1069167E+04  0.7818608E-02  0.9235776E-01
         -2   -1    0    0    0  501 -0.00000000000E+00  0.00000000000E+00  0.15317245391E+03  0.15317245393E+03  0.25500000000E-02 0. -1.
          2   -1    0    0  501    0  0.00000000000E+00 -0.00000000000E+00 -0.18657363778E+04  0.18657363778E+04  0.25500000000E-02 0.  1.
    5000001    1    1    2    0    0  0.45710948454E+03  0.13886366872E+03 -0.11850970480E+04  0.12883758041E+04  0.16500000000E+03 0.  0.
   -5000001    1    1    2    0    0 -0.45710948454E+03 -0.13886366872E+03 -0.52746687590E+03  0.73053302767E+03  0.16500000000E+03 0.  0.
<mgrwt>
<rscale>  0 0.10691668E+04</rscale>
<asrwt>0</asrwt>
<pdfrwt beam="1">  1        2 0.26653376E+00 0.10691668E+04</pdfrwt>
<pdfrwt beam="2">  1       -2 0.21881780E-01 0.10691668E+04</pdfrwt>
<totfact> 0.17060260E+02</totfact>
</mgrwt>
</event>
<event>
 4    1  0.5387486E-005  0.4548337E+03  0.7818608E-02  0.1026290E+00
          2   -1    0    0  501    0  0.00000000000E+00  0.00000000000E+00  0.70775532696E+03  0.70775532697E+03  0.25500000000E-02 0.  1.
         -2   -1    0    0    0  501 -0.00000000000E+00 -0.00000000000E+00 -0.73073875462E+02  0.73073875506E+02  0.25500000000E-02 0. -1.
    5000001    1    1    2    0    0 -0.71233833324E+02  0.13383922316E+03  0.38396749618E+03  0.44457084338E+03  0.16500000000E+03 0.  0.
   -5000001    1    1    2    0    0  0.71233833324E+02 -0.13383922316E+03  0.25071395532E+03  0.33625835909E+03  0.16500000000E+03 0.  0.
<mgrwt>
<rscale>  0 0.45483370E+03</rscale>
<asrwt>0</asrwt>
<pdfrwt beam="1">  1        2 0.10110790E+00 0.45483370E+03</pdfrwt>
<pdfrwt beam="2">  1       -2 0.10439125E-01 0.45483370E+03</pdfrwt>
<totfact> 0.28234158E+03</totfact>
</mgrwt>
</event>
<event>
 4    1  0.5387486E-005  0.6900146E+03  0.7818608E-02  0.9734463E-01
         -2   -1    0    0    0  501 -0.00000000000E+00  0.00000000000E+00  0.35390977252E+02  0.35390977344E+02  0.25500000000E-02 0. -1.
          2   -1    0    0  501    0  0.00000000000E+00 -0.00000000000E+00 -0.33632871704E+04  0.33632871704E+04  0.25500000000E-02 0.  1.
    5000001    1    1    2    0    0  0.22513929072E+03 -0.61227484276E+02 -0.26160966443E+04  0.26316578724E+04  0.16500000000E+03 0.  0.
   -5000001    1    1    2    0    0 -0.22513929072E+03  0.61227484276E+02 -0.71179954891E+03  0.76702027541E+03  0.16500000000E+03 0.  0.
<mgrwt>
<rscale>  0 0.69001455E+03</rscale>
<asrwt>0</asrwt>
<pdfrwt beam="1">  1        2 0.48046939E+00 0.69001455E+03</pdfrwt>
<pdfrwt beam="2">  1       -2 0.50558560E-02 0.69001455E+03</pdfrwt>
<totfact> 0.31507906E+02</totfact>
</mgrwt>
</event>
<event>
 4    1  0.5387486E-005  0.5801814E+03  0.7818608E-02  0.9947398E-01
         -2   -1    0    0    0  501 -0.00000000000E+00  0.00000000000E+00  0.56707494656E+02  0.56707494713E+02  0.25500000000E-02 0. -1.
          2   -1    0    0  501    0  0.00000000000E+00 -0.00000000000E+00 -0.14839768150E+04  0.14839768150E+04  0.25500000000E-02 0.  1.
    5000001    1    1    2    0    0 -0.22710094483E+03  0.18724567898E+02 -0.52582037928E+03  0.59635351919E+03  0.16500000000E+03 0.  0.
   -5000001    1    1    2    0    0  0.22710094483E+03 -0.18724567898E+02 -0.90144894102E+03  0.94433079048E+03  0.16500000000E+03 0.  0.
<mgrwt>
<rscale>  0 0.58018138E+03</rscale>
<asrwt>0</asrwt>
<pdfrwt beam="1">  1        2 0.21199666E+00 0.58018138E+03</pdfrwt>
<pdfrwt beam="2">  1       -2 0.81010716E-02 0.58018138E+03</pdfrwt>
<totfact> 0.14582720E+03</totfact>
</mgrwt>
</event>
<event>
 4    1  0.5387486E-005  0.4358240E+03  0.7818608E-02  0.1032036E+00
         -2   -1    0    0    0  501 -0.00000000000E+00  0.00000000000E+00  0.49441650876E+03  0.49441650877E+03  0.25500000000E-02 0. -1.
          2   -1    0    0  501    0  0.00000000000E+00 -0.00000000000E+00 -0.96043808813E+02  0.96043808847E+02  0.25500000000E-02 0.  1.
    5000001    1    1    2    0    0  0.14115332466E+03  0.15422978779E+02  0.21263353654E+03  0.30430272788E+03  0.16500000000E+03 0.  0.
   -5000001    1    1    2    0    0 -0.14115332466E+03 -0.15422978779E+02  0.18573916341E+03  0.28615758973E+03  0.16500000000E+03 0.  0.
<mgrwt>
<rscale>  0 0.43582402E+03</rscale>
<asrwt>0</asrwt>
<pdfrwt beam="1">  1        2 0.13720544E-01 0.43582402E+03</pdfrwt>
<pdfrwt beam="2">  1       -2 0.70630929E-01 0.43582402E+03</pdfrwt>
<totfact> 0.81808396E+02</totfact>
</mgrwt>
</event>
<event>
 4    1  0.5387486E-005  0.5841817E+03  0.7818608E-02  0.9938779E-01
          2   -1    0    0  501    0  0.00000000000E+00  0.00000000000E+00  0.34145580564E+03  0.34145580565E+03  0.25500000000E-02 0.  1.
         -2   -1    0    0    0  501 -0.00000000000E+00 -0.00000000000E+00 -0.24986266311E+03  0.24986266312E+03  0.25500000000E-02 0. -1.
    5000001    1    1    2    0    0  0.18221085886E+03  0.15675270735E+03  0.27693772092E+02  0.29285517472E+03  0.16500000000E+03 0.  0.
   -5000001    1    1    2    0    0 -0.18221085886E+03 -0.15675270735E+03  0.63899370438E+02  0.29846329405E+03  0.16500000000E+03 0.  0.
<mgrwt>
<rscale>  0 0.58418167E+03</rscale>
<asrwt>0</asrwt>
<pdfrwt beam="1">  1        2 0.48779401E-01 0.58418167E+03</pdfrwt>
<pdfrwt beam="2">  1       -2 0.35694666E-01 0.58418167E+03</pdfrwt>
<totfact> 0.76500440E+02</totfact>
</mgrwt>
</event>
<event>
 4    1  0.5387486E-005  0.4775213E+03  0.7818608E-02  0.1019819E+00
         -2   -1    0    0    0  501 -0.00000000000E+00  0.00000000000E+00  0.19213826374E+03  0.19213826375E+03  0.25500000000E-02 0. -1.
          2   -1    0    0  501    0  0.00000000000E+00 -0.00000000000E+00 -0.29669598595E+03  0.29669598596E+03  0.25500000000E-02 0.  1.
    5000001    1    1    2    0    0  0.48251762426E+01  0.11938981109E+03  0.75187896625E+02  0.21715300853E+03  0.16500000000E+03 0.  0.
   -5000001    1    1    2    0    0 -0.48251762426E+01 -0.11938981109E+03 -0.17974561883E+03  0.27168124118E+03  0.16500000000E+03 0.  0.
<mgrwt>
<rscale>  0 0.47752132E+03</rscale>
<asrwt>0</asrwt>
<pdfrwt beam="1">  1        2 0.42385141E-01 0.47752132E+03</pdfrwt>
<pdfrwt beam="2">  1       -2 0.27448324E-01 0.47752132E+03</pdfrwt>
<totfact> 0.14539218E+03</totfact>
</mgrwt>
</event>
<event>
 4    1  0.5387486E-005  0.3662687E+03  0.7818608E-02  0.1056129E+00
          2   -1    0    0  501    0  0.00000000000E+00  0.00000000000E+00  0.49696282738E+03  0.49696282739E+03  0.25500000000E-02 0.  1.
         -2   -1    0    0    0  501 -0.00000000000E+00 -0.00000000000E+00 -0.67486308760E+02  0.67486308808E+02  0.25500000000E-02 0. -1.
    5000001    1    1    2    0    0  0.56256016706E+02  0.17043860595E+02  0.13235240270E+03  0.21953904231E+03  0.16500000000E+03 0.  0.
   -5000001    1    1    2    0    0 -0.56256016706E+02 -0.17043860595E+02  0.29712411592E+03  0.34491009388E+03  0.16500000000E+03 0.  0.
<mgrwt>
<rscale>  0 0.36626868E+03</rscale>
<asrwt>0</asrwt>
<pdfrwt beam="1">  1        2 0.70994689E-01 0.36626868E+03</pdfrwt>
<pdfrwt beam="2">  1       -2 0.96409013E-02 0.36626868E+03</pdfrwt>
<totfact> 0.48189036E+03</totfact>
</mgrwt>
</event>
<event>
 4    1  0.5387486E-005  0.7226464E+03  0.7818608E-02  0.9679269E-01
         -2   -1    0    0    0  501 -0.00000000000E+00  0.00000000000E+00  0.14558594830E+03  0.14558594832E+03  0.25500000000E-02 0. -1.
          2   -1    0    0  501    0  0.00000000000E+00 -0.00000000000E+00 -0.89675187080E+03  0.89675187080E+03  0.25500000000E-02 0.  1.
    5000001    1    1    2    0    0  0.22185725188E+03 -0.22550218501E+03 -0.29325805850E+03  0.46184105981E+03  0.16500000000E+03 0.  0.
   -5000001    1    1    2    0    0 -0.22185725188E+03  0.22550218501E+03 -0.45790786400E+03  0.58049675931E+03  0.16500000000E+03 0.  0.
<mgrwt>
<rscale>  0 0.72264645E+03</rscale>
<asrwt>0</asrwt>
<pdfrwt beam="1">  1        2 0.12810741E+00 0.72264645E+03</pdfrwt>
<pdfrwt beam="2">  1       -2 0.20797993E-01 0.72264645E+03</pdfrwt>
<totfact> 0.65316410E+02</totfact>
</mgrwt>
</event>
<event>
 4    1  0.5387486E-005  0.4876596E+03  0.7818608E-02  0.1017051E+00
         -2   -1    0    0    0  501 -0.00000000000E+00  0.00000000000E+00  0.12591165425E+03  0.12591165427E+03  0.25500000000E-02 0. -1.
          2   -1    0    0  501    0  0.00000000000E+00 -0.00000000000E+00 -0.47218012396E+03  0.47218012397E+03  0.25500000000E-02 0.  1.
    5000001    1    1    2    0    0  0.72133355706E+02 -0.76252623359E+02  0.54834249963E+01  0.19563422892E+03  0.16500000000E+03 0.  0.
   -5000001    1    1    2    0    0 -0.72133355706E+02  0.76252623359E+02 -0.35175189471E+03  0.40245754932E+03  0.16500000000E+03 0.  0.
<mgrwt>
<rscale>  0 0.48765964E+03</rscale>
<asrwt>0</asrwt>
<pdfrwt beam="1">  1        2 0.67454303E-01 0.48765964E+03</pdfrwt>
<pdfrwt beam="2">  1       -2 0.17987379E-01 0.48765964E+03</pdfrwt>
<totfact> 0.18316766E+03</totfact>
</mgrwt>
</event>
<event>
 4    1  0.5387486E-005  0.6079073E+03  0.7818608E-02  0.9889135E-01
         -2   -1    0    0    0  501 -0.00000000000E+00  0.00000000000E+00  0.71611389376E+02  0.71611389421E+02  0.25500000000E-02 0. -1.
          2   -1    0    0  501    0  0.00000000000E+00 -0.00000000000E+00 -0.12901273463E+04  0.12901273463E+04  0.25500000000E-02 0.  1.
    5000001    1    1    2    0    0 -0.16862160852E+03 -0.19009100083E+03 -0.66389742552E+03  0.72976203455E+03  0.16500000000E+03 0.  0.
   -5000001    1    1    2    0    0  0.16862160852E+03  0.19009100083E+03 -0.55461853144E+03  0.63197670121E+03  0.16500000000E+03 0.  0.
<mgrwt>
<rscale>  0 0.60790727E+03</rscale>
<asrwt>0</asrwt>
<pdfrwt beam="1">  1        2 0.18430389E+00 0.60790727E+03</pdfrwt>
<pdfrwt beam="2">  1       -2 0.10230199E-01 0.60790727E+03</pdfrwt>
<totfact> 0.12697226E+03</totfact>
</mgrwt>
</event>
<event>
 4    1  0.5387486E-005  0.8760132E+03  0.7818608E-02  0.9456073E-01
         -2   -1    0    0    0  501 -0.00000000000E+00  0.00000000000E+00  0.20667013929E+03  0.20667013931E+03  0.25500000000E-02 0. -1.
          2   -1    0    0  501    0  0.00000000000E+00 -0.00000000000E+00 -0.92828980744E+03  0.92828980744E+03  0.25500000000E-02 0.  1.
    5000001    1    1    2    0    0  0.16089965494E+03  0.37198967770E+03 -0.38538401573E+03  0.58310450080E+03  0.16500000000E+03 0.  0.
   -5000001    1    1    2    0    0 -0.16089965494E+03 -0.37198967770E+03 -0.33623565242E+03  0.55185544596E+03  0.16500000000E+03 0.  0.
<mgrwt>
<rscale>  0 0.87601320E+03</rscale>
<asrwt>0</asrwt>
<pdfrwt beam="1">  1        2 0.13261283E+00 0.87601320E+03</pdfrwt>
<pdfrwt beam="2">  1       -2 0.29524306E-01 0.87601320E+03</pdfrwt>
<totfact> 0.32940303E+02</totfact>
</mgrwt>
</event>
<event>
 4    1  0.5387486E-005  0.3568090E+03  0.7818608E-02  0.1059855E+00
         -2   -1    0    0    0  501 -0.00000000000E+00  0.00000000000E+00  0.38940188255E+03  0.38940188256E+03  0.25500000000E-02 0. -1.
          2   -1    0    0  501    0  0.00000000000E+00 -0.00000000000E+00 -0.81736046011E+02  0.81736046050E+02  0.25500000000E-02 0.  1.
    5000001    1    1    2    0    0 -0.67286335185E+02  0.28042154363E+01  0.14295601367E+03  0.22846605080E+03  0.16500000000E+03 0.  0.
   -5000001    1    1    2    0    0  0.67286335185E+02 -0.28042154363E+01  0.16470982288E+03  0.24267187781E+03  0.16500000000E+03 0.  0.
<mgrwt>
<rscale>  0 0.35680903E+03</rscale>
<asrwt>0</asrwt>
<pdfrwt beam="1">  1        2 0.11676578E-01 0.35680903E+03</pdfrwt>
<pdfrwt beam="2">  1       -2 0.55628841E-01 0.35680903E+03</pdfrwt>
<totfact> 0.16442395E+03</totfact>
</mgrwt>
</event>
<event>
 4    1  0.5387486E-005  0.5857342E+03  0.7818608E-02  0.9935453E-01
          2   -1    0    0  501    0  0.00000000000E+00  0.00000000000E+00  0.34057609904E+04  0.34057609904E+04  0.25500000000E-02 0.  1.
         -2   -1    0    0    0  501 -0.00000000000E+00 -0.00000000000E+00 -0.25184129090E+02  0.25184129219E+02  0.25500000000E-02 0. -1.
    5000001    1    1    2    0    0 -0.58515589928E+02 -0.13147488433E+03  0.28296672900E+04  0.28381246786E+04  0.16500000000E+03 0.  0.
   -5000001    1    1    2    0    0  0.58515589928E+02  0.13147488433E+03  0.55090957135E+03  0.59282044101E+03  0.16500000000E+03 0.  0.
<mgrwt>
<rscale>  0 0.58573415E+03</rscale>
<asrwt>0</asrwt>
<pdfrwt beam="1">  1        2 0.48653740E+00 0.58573415E+03</pdfrwt>
<pdfrwt beam="2">  1       -2 0.35977318E-02 0.58573415E+03</pdfrwt>
<totfact> 0.50900505E+02</totfact>
</mgrwt>
</event>
<event>
 4    1  0.5387486E-005  0.6838676E+03  0.7818608E-02  0.9745226E-01
         -2   -1    0    0    0  501 -0.00000000000E+00  0.00000000000E+00  0.63045990110E+02  0.63045990162E+02  0.25500000000E-02 0. -1.
          2   -1    0    0  501    0  0.00000000000E+00 -0.00000000000E+00 -0.18544987343E+04  0.18544987343E+04  0.25500000000E-02 0.  1.
    5000001    1    1    2    0    0  0.27590980806E+03 -0.72344446684E+02 -0.11516993953E+04  0.11979133684E+04  0.16500000000E+03 0.  0.
   -5000001    1    1    2    0    0 -0.27590980806E+03  0.72344446684E+02 -0.63975334884E+03  0.71963135598E+03  0.16500000000E+03 0.  0.
<mgrwt>
<rscale>  0 0.68386756E+03</rscale>
<asrwt>0</asrwt>
<pdfrwt beam="1">  1        2 0.26492836E+00 0.68386756E+03</pdfrwt>
<pdfrwt beam="2">  1       -2 0.90065712E-02 0.68386756E+03</pdfrwt>
<totfact> 0.79131623E+02</totfact>
</mgrwt>
</event>
<event>
 4    1  0.5387486E-005  0.3640968E+03  0.7818608E-02  0.1056973E+00
          2   -1    0    0  501    0  0.00000000000E+00  0.00000000000E+00  0.67470165509E+03  0.67470165509E+03  0.25500000000E-02 0.  1.
         -2   -1    0    0    0  501 -0.00000000000E+00 -0.00000000000E+00 -0.49120393883E+02  0.49120393949E+02  0.25500000000E-02 0. -1.
    5000001    1    1    2    0    0 -0.66104746627E+02  0.38488000841E+02  0.29670785471E+03  0.34801108428E+03  0.16500000000E+03 0.  0.
   -5000001    1    1    2    0    0  0.66104746627E+02 -0.38488000841E+02  0.32887340650E+03  0.37581096477E+03  0.16500000000E+03 0.  0.
<mgrwt>
<rscale>  0 0.36409675E+03</rscale>
<asrwt>0</asrwt>
<pdfrwt beam="1">  1        2 0.96385949E-01 0.36409675E+03</pdfrwt>
<pdfrwt beam="2">  1       -2 0.70171992E-02 0.36409675E+03</pdfrwt>
<totfact> 0.55976965E+03</totfact>
</mgrwt>
</event>
<event>
 4    1  0.5387486E-005  0.8518335E+03  0.7818608E-02  0.9487879E-01
          2   -1    0    0  501    0  0.00000000000E+00  0.00000000000E+00  0.30727335561E+04  0.30727335561E+04  0.25500000000E-02 0. -1.
         -2   -1    0    0    0  501 -0.00000000000E+00 -0.00000000000E+00 -0.59037038809E+02  0.59037038865E+02  0.25500000000E-02 0.  1.
    5000001    1    1    2    0    0 -0.21371590397E+02  0.34782607316E+03  0.84161034683E+03  0.92572819874E+03  0.16500000000E+03 0.  0.
   -5000001    1    1    2    0    0  0.21371590397E+02 -0.34782607316E+03  0.21720861705E+04  0.22060423963E+04  0.16500000000E+03 0.  0.
<mgrwt>
<rscale>  0 0.85183353E+03</rscale>
<asrwt>0</asrwt>
<pdfrwt beam="1">  1        2 0.43896190E+00 0.85183353E+03</pdfrwt>
<pdfrwt beam="2">  1       -2 0.84338634E-02 0.85183353E+03</pdfrwt>
<totfact> 0.20159677E+02</totfact>
</mgrwt>
</event>
<event>
 4    1  0.5387486E-005  0.6220260E+03  0.7818608E-02  0.9860734E-01
         -2   -1    0    0    0  501 -0.00000000000E+00  0.00000000000E+00  0.77932022372E+02  0.77932022413E+02  0.25500000000E-02 0. -1.
          2   -1    0    0  501    0  0.00000000000E+00 -0.00000000000E+00 -0.12411981054E+04  0.12411981054E+04  0.25500000000E-02 0.  1.
    5000001    1    1    2    0    0  0.95352283923E+02  0.19252355447E+03 -0.25759807042E+03  0.37381699126E+03  0.16500000000E+03 0.  0.
   -5000001    1    1    2    0    0 -0.95352283923E+02 -0.19252355447E+03 -0.90566801263E+03  0.94531313657E+03  0.16500000000E+03 0.  0.
<mgrwt>
<rscale>  0 0.62202598E+03</rscale>
<asrwt>0</asrwt>
<pdfrwt beam="1">  1        2 0.17731400E+00 0.62202598E+03</pdfrwt>
<pdfrwt beam="2">  1       -2 0.11133147E-01 0.62202598E+03</pdfrwt>
<totfact> 0.11763166E+03</totfact>
</mgrwt>
</event>
<event>
 4    1  0.5387486E-005  0.8975973E+03  0.7818608E-02  0.9428590E-01
         -2   -1    0    0    0  501 -0.00000000000E+00  0.00000000000E+00  0.40167246691E+03  0.40167246692E+03  0.25500000000E-02 0. -1.
          2   -1    0    0  501    0  0.00000000000E+00 -0.00000000000E+00 -0.50145391186E+03  0.50145391186E+03  0.25500000000E-02 0.  1.
    5000001    1    1    2    0    0  0.16892473532E+03 -0.37642284379E+03 -0.11325088903E+03  0.45856350421E+03  0.16500000000E+03 0.  0.
   -5000001    1    1    2    0    0 -0.16892473532E+03  0.37642284379E+03  0.13469444092E+02  0.44456287457E+03  0.16500000000E+03 0.  0.
<mgrwt>
<rscale>  0 0.89759730E+03</rscale>
<asrwt>0</asrwt>
<pdfrwt beam="1">  1        2 0.71636273E-01 0.89759730E+03</pdfrwt>
<pdfrwt beam="2">  1       -2 0.57381781E-01 0.89759730E+03</pdfrwt>
<totfact> 0.19107374E+02</totfact>
</mgrwt>
</event>
<event>
 4    1  0.5387486E-005  0.4873749E+03  0.7818608E-02  0.1017128E+00
          2   -1    0    0  501    0  0.00000000000E+00  0.00000000000E+00  0.42762875365E+03  0.42762875365E+03  0.25500000000E-02 0.  1.
         -2   -1    0    0    0  501 -0.00000000000E+00 -0.00000000000E+00 -0.13886710529E+03  0.13886710532E+03  0.25500000000E-02 0. -1.
    5000001    1    1    2    0    0  0.59584488563E+02 -0.94754663113E+02 -0.18470632514E+02  0.20023716369E+03  0.16500000000E+03 0.  0.
   -5000001    1    1    2    0    0 -0.59584488563E+02  0.94754663113E+02  0.30723228087E+03  0.36625869528E+03  0.16500000000E+03 0.  0.
<mgrwt>
<rscale>  0 0.48737487E+03</rscale>
<asrwt>0</asrwt>
<pdfrwt beam="1">  1        2 0.61089821E-01 0.48737487E+03</pdfrwt>
<pdfrwt beam="2">  1       -2 0.19838158E-01 0.48737487E+03</pdfrwt>
<totfact> 0.17283690E+03</totfact>
</mgrwt>
</event>
<event>
 4    1  0.5387486E-005  0.5129125E+03  0.7818608E-02  0.1010462E+00
         -2   -1    0    0    0  501 -0.00000000000E+00  0.00000000000E+00  0.44519142293E+02  0.44519142366E+02  0.25500000000E-02 0. -1.
          2   -1    0    0  501    0  0.00000000000E+00 -0.00000000000E+00 -0.14773375544E+04  0.14773375544E+04  0.25500000000E-02 0.  1.
    5000001    1    1    2    0    0  0.51027947365E+02  0.18138950341E+03 -0.87997081746E+03  0.91492056647E+03  0.16500000000E+03 0.  0.
   -5000001    1    1    2    0    0 -0.51027947365E+02 -0.18138950341E+03 -0.55284759461E+03  0.60693613027E+03  0.16500000000E+03 0.  0.
<mgrwt>
<rscale>  0 0.51291247E+03</rscale>
<asrwt>0</asrwt>
<pdfrwt beam="1">  1        2 0.21104819E+00 0.51291247E+03</pdfrwt>
<pdfrwt beam="2">  1       -2 0.63598784E-02 0.51291247E+03</pdfrwt>
<totfact> 0.21582926E+03</totfact>
</mgrwt>
</event>
<event>
 4    1  0.5387486E-005  0.4974698E+03  0.7818608E-02  0.1014441E+00
         -2   -1    0    0    0  501 -0.00000000000E+00  0.00000000000E+00  0.53960184389E+03  0.53960184389E+03  0.25500000000E-02 0. -1.
          2   -1    0    0  501    0  0.00000000000E+00 -0.00000000000E+00 -0.11465685491E+03  0.11465685494E+03  0.25500000000E-02 0.  1.
    5000001    1    1    2    0    0 -0.12057820941E+03 -0.13142919129E+03  0.14249203992E+03  0.28167662017E+03  0.16500000000E+03 0.  0.
   -5000001    1    1    2    0    0  0.12057820941E+03  0.13142919129E+03  0.28245294906E+03  0.37258207866E+03  0.16500000000E+03 0.  0.
<mgrwt>
<rscale>  0 0.49746980E+03</rscale>
<asrwt>0</asrwt>
<pdfrwt beam="1">  1        2 0.16379551E-01 0.49746980E+03</pdfrwt>
<pdfrwt beam="2">  1       -2 0.77085976E-01 0.49746980E+03</pdfrwt>
<totfact> 0.54584951E+02</totfact>
</mgrwt>
</event>
<event>
 4    1  0.5387486E-005  0.4818358E+03  0.7818608E-02  0.1018632E+00
         -2   -1    0    0    0  501 -0.00000000000E+00  0.00000000000E+00  0.31241774338E+02  0.31241774442E+02  0.25500000000E-02 0. -1.
          2   -1    0    0  501    0  0.00000000000E+00 -0.00000000000E+00 -0.18578150606E+04  0.18578150606E+04  0.25500000000E-02 0.  1.
    5000001    1    1    2    0    0  0.15546954599E+03  0.79714168249E+02 -0.84637154607E+03  0.87982664335E+03  0.16500000000E+03 0.  0.
   -5000001    1    1    2    0    0 -0.15546954599E+03 -0.79714168249E+02 -0.98020174019E+03  0.10092301917E+04  0.16500000000E+03 0.  0.
<mgrwt>
<rscale>  0 0.48183582E+03</rscale>
<asrwt>0</asrwt>
<pdfrwt beam="1">  1        2 0.26540208E+00 0.48183582E+03</pdfrwt>
<pdfrwt beam="2">  1       -2 0.44631118E-02 0.48183582E+03</pdfrwt>
<totfact> 0.23969994E+03</totfact>
</mgrwt>
</event>
<event>
 4    1  0.5387486E-005  0.3786244E+03  0.7818608E-02  0.1051443E+00
          2   -1    0    0  501    0  0.00000000000E+00  0.00000000000E+00  0.35994119309E+03  0.35994119310E+03  0.25500000000E-02 0.  1.
         -2   -1    0    0    0  501 -0.00000000000E+00 -0.00000000000E+00 -0.99569349053E+02  0.99569349086E+02  0.25500000000E-02 0. -1.
    5000001    1    1    2    0    0 -0.28531472913E+02 -0.69736714048E+02  0.64415866956E+02  0.19248807274E+03  0.16500000000E+03 0.  0.
   -5000001    1    1    2    0    0  0.28531472913E+02  0.69736714048E+02  0.19595597708E+03  0.26702246944E+03  0.16500000000E+03 0.  0.
<mgrwt>
<rscale>  0 0.37862441E+03</rscale>
<asrwt>0</asrwt>
<pdfrwt beam="1">  1        2 0.51420171E-01 0.37862441E+03</pdfrwt>
<pdfrwt beam="2">  1       -2 0.14224193E-01 0.37862441E+03</pdfrwt>
<totfact> 0.36555496E+03</totfact>
</mgrwt>
</event>
<event>
 4    1  0.5387486E-005  0.5238832E+03  0.7818608E-02  0.1007726E+00
          2   -1    0    0  501    0  0.00000000000E+00  0.00000000000E+00  0.12094552815E+03  0.12094552818E+03  0.25500000000E-02 0.  1.
         -2   -1    0    0    0  501 -0.00000000000E+00 -0.00000000000E+00 -0.56730822133E+03  0.56730822133E+03  0.25500000000E-02 0. -1.
    5000001    1    1    2    0    0 -0.97900992078E+02 -0.17090481328E+03 -0.15625290857E+03  0.30072085210E+03  0.16500000000E+03 0.  0.
   -5000001    1    1    2    0    0  0.97900992078E+02  0.17090481328E+03 -0.29010978461E+03  0.38753289741E+03  0.16500000000E+03 0.  0.
<mgrwt>
<rscale>  0 0.52388316E+03</rscale>
<asrwt>0</asrwt>
<pdfrwt beam="1">  1        2 0.17277933E-01 0.52388316E+03</pdfrwt>
<pdfrwt beam="2">  1       -2 0.81044030E-01 0.52388316E+03</pdfrwt>
<totfact> 0.45806678E+02</totfact>
</mgrwt>
</event>
<event>
 4    1  0.5387486E-005  0.4633660E+03  0.7818608E-02  0.1023809E+00
          2   -1    0    0  501    0  0.00000000000E+00  0.00000000000E+00  0.43487927264E+03  0.43487927264E+03  0.25500000000E-02 0.  1.
         -2   -1    0    0    0  501 -0.00000000000E+00 -0.00000000000E+00 -0.12342967690E+03  0.12342967693E+03  0.25500000000E-02 0. -1.
    5000001    1    1    2    0    0 -0.10358388254E+03  0.12086328952E+03  0.11550116857E+03  0.25671594305E+03  0.16500000000E+03 0.  0.
   -5000001    1    1    2    0    0  0.10358388254E+03 -0.12086328952E+03  0.19594842717E+03  0.30159300652E+03  0.16500000000E+03 0.  0.
<mgrwt>
<rscale>  0 0.46336598E+03</rscale>
<asrwt>0</asrwt>
<pdfrwt beam="1">  1        2 0.62125610E-01 0.46336598E+03</pdfrwt>
<pdfrwt beam="2">  1       -2 0.17632811E-01 0.46336598E+03</pdfrwt>
<totfact> 0.20763275E+03</totfact>
</mgrwt>
</event>
<event>
 4    1  0.5387486E-005  0.4041914E+03  0.7818608E-02  0.1042338E+00
         -2   -1    0    0    0  501 -0.00000000000E+00  0.00000000000E+00  0.55880528678E+02  0.55880528736E+02  0.25500000000E-02 0. -1.
          2   -1    0    0  501    0  0.00000000000E+00 -0.00000000000E+00 -0.73089284275E+03  0.73089284275E+03  0.25500000000E-02 0.  1.
    5000001    1    1    2    0    0  0.52235238517E+02  0.91049588932E+02 -0.23826847572E+03  0.30824570445E+03  0.16500000000E+03 0.  0.
   -5000001    1    1    2    0    0 -0.52235238517E+02 -0.91049588932E+02 -0.43674383835E+03  0.47852766704E+03  0.16500000000E+03 0.  0.
<mgrwt>
<rscale>  0 0.40419143E+03</rscale>
<asrwt>0</asrwt>
<pdfrwt beam="1">  1        2 0.10441326E+00 0.40419143E+03</pdfrwt>
<pdfrwt beam="2">  1       -2 0.79829331E-02 0.40419143E+03</pdfrwt>
<totfact> 0.41606079E+03</totfact>
</mgrwt>
</event>
<event>
 4    1  0.5387486E-005  0.6477835E+03  0.7818608E-02  0.9810947E-01
         -2   -1    0    0    0  501 -0.00000000000E+00  0.00000000000E+00  0.34515066314E+03  0.34515066315E+03  0.25500000000E-02 0. -1.
          2   -1    0    0  501    0  0.00000000000E+00 -0.00000000000E+00 -0.30394226260E+03  0.30394226261E+03  0.25500000000E-02 0.  1.
    5000001    1    1    2    0    0 -0.24331644827E+03 -0.10899430653E+03  0.10199782607E+03  0.32971382952E+03  0.16500000000E+03 0.  0.
   -5000001    1    1    2    0    0  0.24331644827E+03  0.10899430653E+03 -0.60789425535E+02  0.31937909623E+03  0.16500000000E+03 0.  0.
<mgrwt>
<rscale>  0 0.64778352E+03</rscale>
<asrwt>0</asrwt>
<pdfrwt beam="1">  1        2 0.43420323E-01 0.64778352E+03</pdfrwt>
<pdfrwt beam="2">  1       -2 0.49307238E-01 0.64778352E+03</pdfrwt>
<totfact> 0.46132383E+02</totfact>
</mgrwt>
</event>
<event>
 4    1  0.5387486E-005  0.6379295E+03  0.7818608E-02  0.9829696E-01
          2   -1    0    0  501    0  0.00000000000E+00  0.00000000000E+00  0.11243701858E+04  0.11243701858E+04  0.25500000000E-02 0.  1.
         -2   -1    0    0    0  501 -0.00000000000E+00 -0.00000000000E+00 -0.90484884884E+02  0.90484884920E+02  0.25500000000E-02 0. -1.
    5000001    1    1    2    0    0  0.21423493002E+03  0.36389807861E+02  0.20233091763E+03  0.33968165035E+03  0.16500000000E+03 0.  0.
   -5000001    1    1    2    0    0 -0.21423493002E+03 -0.36389807861E+02  0.83155438330E+03  0.87517342038E+03  0.16500000000E+03 0.  0.
<mgrwt>
<rscale>  0 0.63792948E+03</rscale>
<asrwt>0</asrwt>
<pdfrwt beam="1">  1        2 0.16062431E+00 0.63792948E+03</pdfrwt>
<pdfrwt beam="2">  1       -2 0.12926413E-01 0.63792948E+03</pdfrwt>
<totfact> 0.10701472E+03</totfact>
</mgrwt>
</event>
<event>
 4    1  0.5387486E-005  0.5595126E+03  0.7818608E-02  0.9993158E-01
          2   -1    0    0  501    0  0.00000000000E+00  0.00000000000E+00  0.57235355127E+03  0.57235355128E+03  0.25500000000E-02 0.  1.
         -2   -1    0    0    0  501 -0.00000000000E+00 -0.00000000000E+00 -0.13673994753E+03  0.13673994756E+03  0.25500000000E-02 0. -1.
    5000001    1    1    2    0    0  0.12561733112E+02 -0.21232251450E+03  0.12128939717E+03  0.29525373015E+03  0.16500000000E+03 0.  0.
   -5000001    1    1    2    0    0 -0.12561733112E+02  0.21232251450E+03  0.31432420657E+03  0.41383976868E+03  0.16500000000E+03 0.  0.
<mgrwt>
<rscale>  0 0.55951263E+03</rscale>
<asrwt>0</asrwt>
<pdfrwt beam="1">  1        2 0.81764794E-01 0.55951263E+03</pdfrwt>
<pdfrwt beam="2">  1       -2 0.19534278E-01 0.55951263E+03</pdfrwt>
<totfact> 0.12761637E+03</totfact>
</mgrwt>
</event>
<event>
 4    1  0.5387486E-005  0.5313199E+03  0.7818608E-02  0.1005913E+00
          2   -1    0    0  501    0  0.00000000000E+00  0.00000000000E+00  0.18222065503E+03  0.18222065505E+03  0.25500000000E-02 0.  1.
         -2   -1    0    0    0  501 -0.00000000000E+00 -0.00000000000E+00 -0.38730624074E+03  0.38730624075E+03  0.25500000000E-02 0. -1.
    5000001    1    1    2    0    0 -0.12062856744E+03 -0.16962894681E+03 -0.97186888746E+02  0.28283479670E+03  0.16500000000E+03 0.  0.
   -5000001    1    1    2    0    0  0.12062856744E+03  0.16962894681E+03 -0.10789869697E+03  0.28669209910E+03  0.16500000000E+03 0.  0.
<mgrwt>
<rscale>  0 0.53131985E+03</rscale>
<asrwt>0</asrwt>
<pdfrwt beam="1">  1        2 0.26031522E-01 0.53131985E+03</pdfrwt>
<pdfrwt beam="2">  1       -2 0.55329463E-01 0.53131985E+03</pdfrwt>
<totfact> 0.64649992E+02</totfact>
</mgrwt>
</event>
<event>
 4    1  0.5387486E-005  0.4785412E+03  0.7818608E-02  0.1019537E+00
          2   -1    0    0  501    0  0.00000000000E+00  0.00000000000E+00  0.11440210456E+03  0.11440210458E+03  0.25500000000E-02 0.  1.
         -2   -1    0    0    0  501 -0.00000000000E+00 -0.00000000000E+00 -0.50043147791E+03  0.50043147792E+03  0.25500000000E-02 0. -1.
    5000001    1    1    2    0    0  0.17236170896E+03  0.16294142793E+02 -0.18380731178E+03  0.30163584944E+03  0.16500000000E+03 0.  0.
   -5000001    1    1    2    0    0 -0.17236170896E+03 -0.16294142793E+02 -0.20222206158E+03  0.31319773306E+03  0.16500000000E+03 0.  0.
<mgrwt>
<rscale>  0 0.47854118E+03</rscale>
<asrwt>0</asrwt>
<pdfrwt beam="1">  1        2 0.16343158E-01 0.47854118E+03</pdfrwt>
<pdfrwt beam="2">  1       -2 0.71490210E-01 0.47854118E+03</pdfrwt>
<totfact> 0.64572731E+02</totfact>
</mgrwt>
</event>
<event>
 4    1  0.5387486E-005  0.4847104E+03  0.7818608E-02  0.1017849E+00
         -2   -1    0    0    0  501 -0.00000000000E+00  0.00000000000E+00  0.25931249693E+02  0.25931249818E+02  0.25500000000E-02 0. -1.
          2   -1    0    0  501    0  0.00000000000E+00 -0.00000000000E+00 -0.22650675089E+04  0.22650675089E+04  0.25500000000E-02 0.  1.
    5000001    1    1    2    0    0  0.16534629062E+03 -0.54958386453E+02 -0.95919926036E+03  0.98876086146E+03  0.16500000000E+03 0.  0.
   -5000001    1    1    2    0    0 -0.16534629062E+03  0.54958386453E+02 -0.12799369988E+04  0.13022378973E+04  0.16500000000E+03 0.  0.
<mgrwt>
<rscale>  0 0.48471035E+03</rscale>
<asrwt>0</asrwt>
<pdfrwt beam="1">  1        2 0.32358095E+00 0.48471035E+03</pdfrwt>
<pdfrwt beam="2">  1       -2 0.37044657E-02 0.48471035E+03</pdfrwt>
<totfact> 0.19957336E+03</totfact>
</mgrwt>
</event>
<event>
 4    1  0.5387486E-005  0.4014578E+03  0.7818608E-02  0.1043276E+00
          2   -1    0    0  501    0  0.00000000000E+00  0.00000000000E+00  0.25347634545E+04  0.25347634545E+04  0.25500000000E-02 0.  1.
         -2   -1    0    0    0  501 -0.00000000000E+00 -0.00000000000E+00 -0.15895799447E+02  0.15895799651E+02  0.25500000000E-02 0. -1.
    5000001    1    1    2    0    0 -0.66749430510E+01  0.10810179068E+03  0.10271582843E+04  0.10459491828E+04  0.16500000000E+03 0.  0.
   -5000001    1    1    2    0    0  0.66749430510E+01 -0.10810179068E+03  0.14917093708E+04  0.15047100714E+04  0.16500000000E+03 0.  0.
<mgrwt>
<rscale>  0 0.40145780E+03</rscale>
<asrwt>0</asrwt>
<pdfrwt beam="1">  1        2 0.36210917E+00 0.40145780E+03</pdfrwt>
<pdfrwt beam="2">  1       -2 0.22708279E-02 0.40145780E+03</pdfrwt>
<totfact> 0.30649549E+03</totfact>
</mgrwt>
</event>
<event>
 4    1  0.5387486E-005  0.6120839E+03  0.7818608E-02  0.9880648E-01
          2   -1    0    0  501    0  0.00000000000E+00  0.00000000000E+00  0.96105892886E+03  0.96105892887E+03  0.25500000000E-02 0.  1.
         -2   -1    0    0    0  501 -0.00000000000E+00 -0.00000000000E+00 -0.97456759639E+02  0.97456759672E+02  0.25500000000E-02 0. -1.
    5000001    1    1    2    0    0  0.17660097596E+03  0.12193924907E+03  0.18492206733E+03  0.32783876549E+03  0.16500000000E+03 0.  0.
   -5000001    1    1    2    0    0 -0.17660097596E+03 -0.12193924907E+03  0.67868010189E+03  0.73067692305E+03  0.16500000000E+03 0.  0.
<mgrwt>
<rscale>  0 0.61208395E+03</rscale>
<asrwt>0</asrwt>
<pdfrwt beam="1">  1        2 0.13729413E+00 0.61208395E+03</pdfrwt>
<pdfrwt beam="2">  1       -2 0.13922395E-01 0.61208395E+03</pdfrwt>
<totfact> 0.11851116E+03</totfact>
</mgrwt>
</event>
<event>
 4    1  0.5387486E-005  0.3991931E+03  0.7818608E-02  0.1044059E+00
         -2   -1    0    0    0  501 -0.00000000000E+00  0.00000000000E+00  0.69322931830E+02  0.69322931877E+02  0.25500000000E-02 0. -1.
          2   -1    0    0  501    0  0.00000000000E+00 -0.00000000000E+00 -0.57468398899E+03  0.57468398899E+03  0.25500000000E-02 0.  1.
    5000001    1    1    2    0    0  0.20873535943E+02 -0.94862756476E+02 -0.34364290655E+03  0.39338288510E+03  0.16500000000E+03 0.  0.
   -5000001    1    1    2    0    0 -0.20873535943E+02  0.94862756476E+02 -0.16171815061E+03  0.25062403577E+03  0.16500000000E+03 0.  0.
<mgrwt>
<rscale>  0 0.39919308E+03</rscale>
<asrwt>0</asrwt>
<pdfrwt beam="1">  1        2 0.82097710E-01 0.39919308E+03</pdfrwt>
<pdfrwt beam="2">  1       -2 0.99032763E-02 0.39919308E+03</pdfrwt>
<totfact> 0.39228408E+03</totfact>
</mgrwt>
</event>
<event>
 4    1  0.5387486E-005  0.6819500E+03  0.7818608E-02  0.9748608E-01
         -2   -1    0    0    0  501 -0.00000000000E+00  0.00000000000E+00  0.23221752095E+03  0.23221752097E+03  0.25500000000E-02 0. -1.
          2   -1    0    0  501    0  0.00000000000E+00 -0.00000000000E+00 -0.50066836061E+03  0.50066836062E+03  0.25500000000E-02 0.  1.
    5000001    1    1    2    0    0 -0.24877427257E+03  0.25147774280E+02  0.40780803005E+02  0.30233941711E+03  0.16500000000E+03 0.  0.
   -5000001    1    1    2    0    0  0.24877427257E+03 -0.25147774280E+02 -0.30923164266E+03  0.43054646447E+03  0.16500000000E+03 0.  0.
<mgrwt>
<rscale>  0 0.68195004E+03</rscale>
<asrwt>0</asrwt>
<pdfrwt beam="1">  1        2 0.71524051E-01 0.68195004E+03</pdfrwt>
<pdfrwt beam="2">  1       -2 0.33173932E-01 0.68195004E+03</pdfrwt>
<totfact> 0.57171069E+02</totfact>
</mgrwt>
</event>
<event>
 4    1  0.5387486E-005  0.4517917E+03  0.7818608E-02  0.1027189E+00
          2   -1    0    0  501    0  0.00000000000E+00  0.00000000000E+00  0.37329318444E+03  0.37329318445E+03  0.25500000000E-02 0.  1.
         -2   -1    0    0    0  501 -0.00000000000E+00 -0.00000000000E+00 -0.13669934255E+03  0.13669934257E+03  0.25500000000E-02 0. -1.
    5000001    1    1    2    0    0  0.12373723573E+03  0.91807258889E+02  0.12735965622E+03  0.25920061405E+03  0.16500000000E+03 0.  0.
   -5000001    1    1    2    0    0 -0.12373723573E+03 -0.91807258889E+02  0.10923418568E+03  0.25079191297E+03  0.16500000000E+03 0.  0.
<mgrwt>
<rscale>  0 0.45179169E+03</rscale>
<asrwt>0</asrwt>
<pdfrwt beam="1">  1        2 0.53327598E-01 0.45179169E+03</pdfrwt>
<pdfrwt beam="2">  1       -2 0.19528478E-01 0.45179169E+03</pdfrwt>
<totfact> 0.20620690E+03</totfact>
</mgrwt>
</event>
<event>
 4    1  0.5387486E-005  0.5986591E+03  0.7818608E-02  0.9908192E-01
          2   -1    0    0  501    0  0.00000000000E+00  0.00000000000E+00  0.11031361499E+04  0.11031361499E+04  0.25500000000E-02 0.  1.
         -2   -1    0    0    0  501 -0.00000000000E+00 -0.00000000000E+00 -0.81221316346E+02  0.81221316386E+02  0.25500000000E-02 0. -1.
    5000001    1    1    2    0    0 -0.15069103969E+03  0.13136898026E+03  0.21481498743E+03  0.33665423990E+03  0.16500000000E+03 0.  0.
   -5000001    1    1    2    0    0  0.15069103969E+03 -0.13136898026E+03  0.80709984615E+03  0.84770322642E+03  0.16500000000E+03 0.  0.
<mgrwt>
<rscale>  0 0.59865907E+03</rscale>
<asrwt>0</asrwt>
<pdfrwt beam="1">  1        2 0.15759087E+00 0.59865907E+03</pdfrwt>
<pdfrwt beam="2">  1       -2 0.11603046E-01 0.59865907E+03</pdfrwt>
<totfact> 0.13170539E+03</totfact>
</mgrwt>
</event>
<event>
 4    1  0.5387486E-005  0.7681457E+03  0.7818608E-02  0.9607305E-01
          2   -1    0    0  501    0  0.00000000000E+00  0.00000000000E+00  0.96527087229E+03  0.96527087229E+03  0.25500000000E-02 0.  1.
         -2   -1    0    0    0  501 -0.00000000000E+00 -0.00000000000E+00 -0.15281921514E+03  0.15281921516E+03  0.25500000000E-02 0. -1.
    5000001    1    1    2    0    0  0.25749394914E+03  0.18447130308E+03  0.20061321974E+03  0.40963820554E+03  0.16500000000E+03 0.  0.
   -5000001    1    1    2    0    0 -0.25749394914E+03 -0.18447130308E+03  0.61183843740E+03  0.70845188191E+03  0.16500000000E+03 0.  0.
<mgrwt>
<rscale>  0 0.76814566E+03</rscale>
<asrwt>0</asrwt>
<pdfrwt beam="1">  1        2 0.13789584E+00 0.76814566E+03</pdfrwt>
<pdfrwt beam="2">  1       -2 0.21831317E-01 0.76814566E+03</pdfrwt>
<totfact> 0.54135300E+02</totfact>
</mgrwt>
</event>
<event>
 4    1  0.5387486E-005  0.8038175E+03  0.7818608E-02  0.9554508E-01
         -2   -1    0    0    0  501 -0.00000000000E+00  0.00000000000E+00  0.44342381130E+03  0.44342381130E+03  0.25500000000E-02 0. -1.
          2   -1    0    0  501    0  0.00000000000E+00 -0.00000000000E+00 -0.36428044616E+03  0.36428044617E+03  0.25500000000E-02 0.  1.
    5000001    1    1    2    0    0  0.28687700592E+03 -0.29175288122E+02 -0.18769892475E+03  0.38158288787E+03  0.16500000000E+03 0.  0.
   -5000001    1    1    2    0    0 -0.28687700592E+03  0.29175288122E+02  0.26684228989E+03  0.42612136961E+03  0.16500000000E+03 0.  0.
<mgrwt>
<rscale>  0 0.80381745E+03</rscale>
<asrwt>0</asrwt>
<pdfrwt beam="1">  1        2 0.52040063E-01 0.80381745E+03</pdfrwt>
<pdfrwt beam="2">  1       -2 0.63346259E-01 0.80381745E+03</pdfrwt>
<totfact> 0.22315331E+02</totfact>
</mgrwt>
</event>
<event>
 4    1  0.5387486E-005  0.4722485E+03  0.7818608E-02  0.1021287E+00
          2   -1    0    0  501    0  0.00000000000E+00  0.00000000000E+00  0.16885138180E+03  0.16885138182E+03  0.25500000000E-02 0.  1.
         -2   -1    0    0    0  501 -0.00000000000E+00 -0.00000000000E+00 -0.33019963899E+03  0.33019963900E+03  0.25500000000E-02 0. -1.
    5000001    1    1    2    0    0 -0.11134573774E+03 -0.11979148419E+03 -0.12528111540E+03  0.26394740172E+03  0.16500000000E+03 0.  0.
   -5000001    1    1    2    0    0  0.11134573774E+03  0.11979148419E+03 -0.36067141785E+02  0.23510361910E+03  0.16500000000E+03 0.  0.
<mgrwt>
<rscale>  0 0.47224852E+03</rscale>
<asrwt>0</asrwt>
<pdfrwt beam="1">  1        2 0.24121626E-01 0.47224852E+03</pdfrwt>
<pdfrwt beam="2">  1       -2 0.47171377E-01 0.47224852E+03</pdfrwt>
<totfact> 0.97451041E+02</totfact>
</mgrwt>
</event>
<event>
 4    1  0.5387486E-005  0.7026398E+03  0.7818608E-02  0.9712728E-01
         -2   -1    0    0    0  501 -0.00000000000E+00  0.00000000000E+00  0.12518468029E+03  0.12518468032E+03  0.25500000000E-02 0. -1.
          2   -1    0    0  501    0  0.00000000000E+00 -0.00000000000E+00 -0.98594865331E+03  0.98594865331E+03  0.25500000000E-02 0.  1.
    5000001    1    1    2    0    0 -0.47855988197E+02 -0.30026781946E+03 -0.52721694297E+03  0.63058200416E+03  0.16500000000E+03 0.  0.
   -5000001    1    1    2    0    0  0.47855988197E+02  0.30026781946E+03 -0.33354703004E+03  0.48055132947E+03  0.16500000000E+03 0.  0.
<mgrwt>
<rscale>  0 0.70263979E+03</rscale>
<asrwt>0</asrwt>
<pdfrwt beam="1">  1        2 0.14084980E+00 0.70263979E+03</pdfrwt>
<pdfrwt beam="2">  1       -2 0.17883526E-01 0.70263979E+03</pdfrwt>
<totfact> 0.74617218E+02</totfact>
</mgrwt>
</event>
<event>
 4    1  0.5387486E-005  0.4301833E+03  0.7818608E-02  0.1033802E+00
          2   -1    0    0  501    0  0.00000000000E+00  0.00000000000E+00  0.98226882586E+03  0.98226882587E+03  0.25500000000E-02 0.  1.
         -2   -1    0    0    0  501 -0.00000000000E+00 -0.00000000000E+00 -0.47099545759E+02  0.47099545828E+02  0.25500000000E-02 0. -1.
    5000001    1    1    2    0    0  0.75046027257E+02 -0.11568987962E+03  0.47915012615E+03  0.52519129643E+03  0.16500000000E+03 0.  0.
   -5000001    1    1    2    0    0 -0.75046027257E+02  0.11568987962E+03  0.45601915396E+03  0.50417707527E+03  0.16500000000E+03 0.  0.
<mgrwt>
<rscale>  0 0.43018329E+03</rscale>
<asrwt>0</asrwt>
<pdfrwt beam="1">  1        2 0.14032413E+00 0.43018329E+03</pdfrwt>
<pdfrwt beam="2">  1       -2 0.67285060E-02 0.43018329E+03</pdfrwt>
<totfact> 0.37188841E+03</totfact>
</mgrwt>
</event>
<event>
 4    1  0.5387486E-005  0.4560757E+03  0.7818608E-02  0.1025926E+00
          2   -1    0    0  501    0  0.00000000000E+00  0.00000000000E+00  0.25802320233E+03  0.25802320234E+03  0.25500000000E-02 0.  1.
         -2   -1    0    0    0  501 -0.00000000000E+00 -0.00000000000E+00 -0.20153711444E+03  0.20153711446E+03  0.25500000000E-02 0. -1.
    5000001    1    1    2    0    0  0.54885735565E+02  0.11394175319E+03 -0.66180371597E+02  0.21817426217E+03  0.16500000000E+03 0.  0.
   -5000001    1    1    2    0    0 -0.54885735565E+02 -0.11394175319E+03  0.12266645948E+03  0.24138605463E+03  0.16500000000E+03 0.  0.
<mgrwt>
<rscale>  0 0.45607566E+03</rscale>
<asrwt>0</asrwt>
<pdfrwt beam="1">  1        2 0.36860458E-01 0.45607566E+03</pdfrwt>
<pdfrwt beam="2">  1       -2 0.28791016E-01 0.45607566E+03</pdfrwt>
<totfact> 0.15534453E+03</totfact>
</mgrwt>
</event>
<event>
 4    1  0.5387486E-005  0.3790356E+03  0.7818608E-02  0.1051291E+00
          2   -1    0    0  501    0  0.00000000000E+00  0.00000000000E+00  0.71904988156E+03  0.71904988157E+03  0.25500000000E-02 0.  1.
         -2   -1    0    0    0  501 -0.00000000000E+00 -0.00000000000E+00 -0.49950620445E+02  0.49950620510E+02  0.25500000000E-02 0. -1.
    5000001    1    1    2    0    0 -0.36595372767E+02 -0.77621594973E+02  0.40847426719E+03  0.44882130105E+03  0.16500000000E+03 0.  0.
   -5000001    1    1    2    0    0  0.36595372767E+02  0.77621594973E+02  0.26062499392E+03  0.32017920103E+03  0.16500000000E+03 0.  0.
<mgrwt>
<rscale>  0 0.37903555E+03</rscale>
<asrwt>0</asrwt>
<pdfrwt beam="1">  1        2 0.10272140E+00 0.37903555E+03</pdfrwt>
<pdfrwt beam="2">  1       -2 0.71358035E-02 0.37903555E+03</pdfrwt>
<totfact> 0.50562313E+03</totfact>
</mgrwt>
</event>
<event>
 4    1  0.5387486E-005  0.3340715E+03  0.7818608E-02  0.1069349E+00
          2   -1    0    0  501    0  0.00000000000E+00  0.00000000000E+00  0.11420252727E+04  0.11420252727E+04  0.25500000000E-02 0.  1.
         -2   -1    0    0    0  501 -0.00000000000E+00 -0.00000000000E+00 -0.24431104883E+02  0.24431105016E+02  0.25500000000E-02 0. -1.
    5000001    1    1    2    0    0  0.20253928292E+02 -0.34455781779E+01  0.50316645380E+03  0.52992789496E+03  0.16500000000E+03 0.  0.
   -5000001    1    1    2    0    0 -0.20253928292E+02  0.34455781779E+01  0.61442771401E+03  0.63652848276E+03  0.16500000000E+03 0.  0.
<mgrwt>
<rscale>  0 0.33407149E+03</rscale>
<asrwt>0</asrwt>
<pdfrwt beam="1">  1        2 0.16314647E+00 0.33407149E+03</pdfrwt>
<pdfrwt beam="2">  1       -2 0.34901578E-02 0.33407149E+03</pdfrwt>
<totfact> 0.81776357E+03</totfact>
</mgrwt>
</event>
<event>
 4    1  0.5387486E-005  0.7801931E+03  0.7818608E-02  0.9589138E-01
         -2   -1    0    0    0  501 -0.00000000000E+00  0.00000000000E+00  0.16873970662E+03  0.16873970664E+03  0.25500000000E-02 0. -1.
          2   -1    0    0  501    0  0.00000000000E+00 -0.00000000000E+00 -0.90183474849E+03  0.90183474849E+03  0.25500000000E-02 0.  1.
    5000001    1    1    2    0    0  0.33082431074E+03  0.11096188993E+03 -0.44408624556E+03  0.58838325868E+03  0.16500000000E+03 0.  0.
   -5000001    1    1    2    0    0 -0.33082431074E+03 -0.11096188993E+03 -0.28900879631E+03  0.48219119645E+03  0.16500000000E+03 0.  0.
<mgrwt>
<rscale>  0 0.78019313E+03</rscale>
<asrwt>0</asrwt>
<pdfrwt beam="1">  1        2 0.12883353E+00 0.78019313E+03</pdfrwt>
<pdfrwt beam="2">  1       -2 0.24105673E-01 0.78019313E+03</pdfrwt>
<totfact> 0.49779986E+02</totfact>
</mgrwt>
</event>
<event>
 4    1  0.5387486E-005  0.6205250E+03  0.7818608E-02  0.9863715E-01
         -2   -1    0    0    0  501 -0.00000000000E+00  0.00000000000E+00  0.67653065160E+02  0.67653065208E+02  0.25500000000E-02 0. -1.
          2   -1    0    0  501    0  0.00000000000E+00 -0.00000000000E+00 -0.14228893996E+04  0.14228893996E+04  0.25500000000E-02 0.  1.
    5000001    1    1    2    0    0  0.13668018373E+03  0.21774471208E+03 -0.80794211453E+03  0.86376483646E+03  0.16500000000E+03 0.  0.
   -5000001    1    1    2    0    0 -0.13668018373E+03 -0.21774471208E+03 -0.54729421994E+03  0.62677762839E+03  0.16500000000E+03 0.  0.
<mgrwt>
<rscale>  0 0.62052503E+03</rscale>
<asrwt>0</asrwt>
<pdfrwt beam="1">  1        2 0.20326990E+00 0.62052503E+03</pdfrwt>
<pdfrwt beam="2">  1       -2 0.96647245E-02 0.62052503E+03</pdfrwt>
<totfact> 0.11810625E+03</totfact>
</mgrwt>
</event>
<event>
 4    1  0.5387486E-005  0.8565930E+03  0.7818608E-02  0.9481531E-01
          2   -1    0    0  501    0  0.00000000000E+00  0.00000000000E+00  0.24172865753E+04  0.24172865753E+04  0.25500000000E-02 0.  1.
         -2   -1    0    0    0  501 -0.00000000000E+00 -0.00000000000E+00 -0.75885871898E+02  0.75885871941E+02  0.25500000000E-02 0. -1.
    5000001    1    1    2    0    0 -0.63028144378E+02 -0.37751538607E+03  0.88371056182E+03  0.97706692236E+03  0.16500000000E+03 0.  0.
   -5000001    1    1    2    0    0  0.63028144378E+02  0.37751538607E+03  0.14576901415E+04  0.15161055248E+04  0.16500000000E+03 0.  0.
<mgrwt>
<rscale>  0 0.85659302E+03</rscale>
<asrwt>0</asrwt>
<pdfrwt beam="1">  1        2 0.34532663E+00 0.85659302E+03</pdfrwt>
<pdfrwt beam="2">  1       -2 0.10840840E-01 0.85659302E+03</pdfrwt>
<totfact> 0.29943137E+02</totfact>
</mgrwt>
</event>
<event>
 4    1  0.5387486E-005  0.4894175E+03  0.7818608E-02  0.1016579E+00
         -2   -1    0    0    0  501 -0.00000000000E+00  0.00000000000E+00  0.28180323500E+02  0.28180323615E+02  0.25500000000E-02 0. -1.
          2   -1    0    0  501    0  0.00000000000E+00 -0.00000000000E+00 -0.21249709161E+04  0.21249709161E+04  0.25500000000E-02 0.  1.
    5000001    1    1    2    0    0 -0.10018334771E+03 -0.14750345600E+03 -0.11776659343E+04  0.12024624840E+04  0.16500000000E+03 0.  0.
   -5000001    1    1    2    0    0  0.10018334771E+03  0.14750345600E+03 -0.91912465829E+03  0.95068875568E+03  0.16500000000E+03 0.  0.
<mgrwt>
<rscale>  0 0.48941748E+03</rscale>
<asrwt>0</asrwt>
<pdfrwt beam="1">  1        2 0.30356717E+00 0.48941748E+03</pdfrwt>
<pdfrwt beam="2">  1       -2 0.40257619E-02 0.48941748E+03</pdfrwt>
<totfact> 0.20650493E+03</totfact>
</mgrwt>
</event>
<event>
 4    1  0.5387486E-005  0.3671937E+03  0.7818608E-02  0.1055771E+00
         -2   -1    0    0    0  501 -0.00000000000E+00  0.00000000000E+00  0.28458119842E+03  0.28458119843E+03  0.25500000000E-02 0. -1.
          2   -1    0    0  501    0  0.00000000000E+00 -0.00000000000E+00 -0.11844707604E+03  0.11844707607E+03  0.25500000000E-02 0.  1.
    5000001    1    1    2    0    0  0.56744010184E+02 -0.50814498042E+02  0.54428263017E+02  0.18970880770E+03  0.16500000000E+03 0.  0.
   -5000001    1    1    2    0    0 -0.56744010184E+02  0.50814498042E+02  0.11170585936E+03  0.21331946681E+03  0.16500000000E+03 0.  0.
<mgrwt>
<rscale>  0 0.36719374E+03</rscale>
<asrwt>0</asrwt>
<pdfrwt beam="1">  1        2 0.16921011E-01 0.36719374E+03</pdfrwt>
<pdfrwt beam="2">  1       -2 0.40654457E-01 0.36719374E+03</pdfrwt>
<totfact> 0.19621749E+03</totfact>
</mgrwt>
</event>
<event>
 4    1  0.5387486E-005  0.4675886E+03  0.7818608E-02  0.1022603E+00
         -2   -1    0    0    0  501 -0.00000000000E+00  0.00000000000E+00  0.74897162440E+02  0.74897162483E+02  0.25500000000E-02 0. -1.
          2   -1    0    0  501    0  0.00000000000E+00 -0.00000000000E+00 -0.72979776763E+03  0.72979776764E+03  0.25500000000E-02 0.  1.
    5000001    1    1    2    0    0  0.58227729988E+02  0.15166501441E+03 -0.38300347405E+03  0.44755938854E+03  0.16500000000E+03 0.  0.
   -5000001    1    1    2    0    0 -0.58227729988E+02 -0.15166501441E+03 -0.27189713114E+03  0.35713554158E+03  0.16500000000E+03 0.  0.
<mgrwt>
<rscale>  0 0.46758863E+03</rscale>
<asrwt>0</asrwt>
<pdfrwt beam="1">  1        2 0.10425682E+00 0.46758863E+03</pdfrwt>
<pdfrwt beam="2">  1       -2 0.10699595E-01 0.46758863E+03</pdfrwt>
<totfact> 0.26138302E+03</totfact>
</mgrwt>
</event>
<event>
 4    1  0.5387486E-005  0.4018141E+03  0.7818608E-02  0.1043153E+00
         -2   -1    0    0    0  501 -0.00000000000E+00  0.00000000000E+00  0.24607918980E+03  0.24607918981E+03  0.25500000000E-02 0. -1.
          2   -1    0    0  501    0  0.00000000000E+00 -0.00000000000E+00 -0.16402701404E+03  0.16402701406E+03  0.25500000000E-02 0.  1.
    5000001    1    1    2    0    0  0.27003087757E+02 -0.68648521654E+02 -0.48516095013E+02  0.18713791104E+03  0.16500000000E+03 0.  0.
   -5000001    1    1    2    0    0 -0.27003087757E+02  0.68648521654E+02  0.13056827077E+03  0.22296829283E+03  0.16500000000E+03 0.  0.
<mgrwt>
<rscale>  0 0.40181406E+03</rscale>
<asrwt>0</asrwt>
<pdfrwt beam="1">  1        2 0.23432431E-01 0.40181406E+03</pdfrwt>
<pdfrwt beam="2">  1       -2 0.35154170E-01 0.40181406E+03</pdfrwt>
<totfact> 0.17776006E+03</totfact>
</mgrwt>
</event>
<event>
 4    1  0.5387486E-005  0.4560077E+03  0.7818608E-02  0.1025945E+00
         -2   -1    0    0    0  501 -0.00000000000E+00  0.00000000000E+00  0.12733494491E+03  0.12733494494E+03  0.25500000000E-02 0. -1.
          2   -1    0    0  501    0  0.00000000000E+00 -0.00000000000E+00 -0.40825997825E+03  0.40825997825E+03  0.25500000000E-02 0.  1.
    5000001    1    1    2    0    0 -0.11984346913E+03 -0.10048415173E+03 -0.12007705393E+03  0.25710507720E+03  0.16500000000E+03 0.  0.
   -5000001    1    1    2    0    0  0.11984346913E+03  0.10048415173E+03 -0.16084797940E+03  0.27848984599E+03  0.16500000000E+03 0.  0.
<mgrwt>
<rscale>  0 0.45600773E+03</rscale>
<asrwt>0</asrwt>
<pdfrwt beam="1">  1        2 0.58322853E-01 0.45600773E+03</pdfrwt>
<pdfrwt beam="2">  1       -2 0.18190707E-01 0.45600773E+03</pdfrwt>
<totfact> 0.21109350E+03</totfact>
</mgrwt>
</event>
<event>
 4    1  0.5387486E-005  0.1068028E+04  0.7818608E-02  0.9236927E-01
          2   -1    0    0  501    0  0.00000000000E+00  0.00000000000E+00  0.29750282516E+04  0.29750282516E+04  0.25500000000E-02 0.  1.
         -2   -1    0    0    0  501 -0.00000000000E+00 -0.00000000000E+00 -0.95854881542E+02  0.95854881576E+02  0.25500000000E-02 0. -1.
    5000001    1    1    2    0    0 -0.42438396972E+03 -0.18027041474E+03  0.20518721829E+04  0.21095031716E+04  0.16500000000E+03 0.  0.
   -5000001    1    1    2    0    0  0.42438396972E+03  0.18027041474E+03  0.82730118719E+03  0.96137996157E+03  0.16500000000E+03 0.  0.
<mgrwt>
<rscale>  0 0.10680281E+04</rscale>
<asrwt>0</asrwt>
<pdfrwt beam="1">  1        2 0.42500409E+00 0.10680281E+04</pdfrwt>
<pdfrwt beam="2">  1       -2 0.13693553E-01 0.10680281E+04</pdfrwt>
<totfact> 0.10082659E+02</totfact>
</mgrwt>
</event>
<event>
 4    1  0.5387486E-005  0.7374092E+03  0.7818608E-02  0.9655313E-01
          2   -1    0    0  501    0  0.00000000000E+00  0.00000000000E+00  0.10574385405E+04  0.10574385405E+04  0.25500000000E-02 0.  1.
         -2   -1    0    0    0  501 -0.00000000000E+00 -0.00000000000E+00 -0.12855885038E+03  0.12855885041E+03  0.25500000000E-02 0. -1.
    5000001    1    1    2    0    0 -0.25491019497E+03 -0.11383641333E+03  0.74660963999E+03  0.81399563330E+03  0.16500000000E+03 0.  0.
   -5000001    1    1    2    0    0  0.25491019497E+03  0.11383641333E+03  0.18227005013E+03  0.37200175762E+03  0.16500000000E+03 0.  0.
<mgrwt>
<rscale>  0 0.73740920E+03</rscale>
<asrwt>0</asrwt>
<pdfrwt beam="1">  1        2 0.15106264E+00 0.73740920E+03</pdfrwt>
<pdfrwt beam="2">  1       -2 0.18365551E-01 0.73740920E+03</pdfrwt>
<totfact> 0.64418409E+02</totfact>
</mgrwt>
</event>
<event>
 4    1  0.5387486E-005  0.4393346E+03  0.7818608E-02  0.1030951E+00
         -2   -1    0    0    0  501 -0.00000000000E+00  0.00000000000E+00  0.28245909120E+03  0.28245909122E+03  0.25500000000E-02 0. -1.
          2   -1    0    0  501    0  0.00000000000E+00 -0.00000000000E+00 -0.17083439551E+03  0.17083439553E+03  0.25500000000E-02 0.  1.
    5000001    1    1    2    0    0  0.38724663007E+02 -0.47398011945E+02 -0.79827734983E+02  0.19324502150E+03  0.16500000000E+03 0.  0.
   -5000001    1    1    2    0    0 -0.38724663007E+02  0.47398011945E+02  0.19145243068E+03  0.26004846524E+03  0.16500000000E+03 0.  0.
<mgrwt>
<rscale>  0 0.43933462E+03</rscale>
<asrwt>0</asrwt>
<pdfrwt beam="1">  1        2 0.24404914E-01 0.43933462E+03</pdfrwt>
<pdfrwt beam="2">  1       -2 0.40351299E-01 0.43933462E+03</pdfrwt>
<totfact> 0.13060713E+03</totfact>
</mgrwt>
</event>
<event>
 4    1  0.5387486E-005  0.4203738E+03  0.7818608E-02  0.1036945E+00
         -2   -1    0    0    0  501 -0.00000000000E+00  0.00000000000E+00  0.15077619900E+03  0.15077619902E+03  0.25500000000E-02 0. -1.
          2   -1    0    0  501    0  0.00000000000E+00 -0.00000000000E+00 -0.29300740680E+03  0.29300740681E+03  0.25500000000E-02 0.  1.
    5000001    1    1    2    0    0  0.71305983039E+02 -0.10695003241E+03 -0.49206824798E+02  0.21487011020E+03  0.16500000000E+03 0.  0.
   -5000001    1    1    2    0    0 -0.71305983039E+02  0.10695003241E+03 -0.93024382998E+02  0.22891349563E+03  0.16500000000E+03 0.  0.
<mgrwt>
<rscale>  0 0.42037385E+03</rscale>
<asrwt>0</asrwt>
<pdfrwt beam="1">  1        2 0.41858201E-01 0.42037385E+03</pdfrwt>
<pdfrwt beam="2">  1       -2 0.21539457E-01 0.42037385E+03</pdfrwt>
<totfact> 0.22652922E+03</totfact>
</mgrwt>
</event>
<event>
 4    1  0.5387486E-005  0.9557927E+03  0.7818608E-02  0.9358405E-01
          2   -1    0    0  501    0  0.00000000000E+00  0.00000000000E+00  0.11138426158E+04  0.11138426158E+04  0.25500000000E-02 0.  1.
         -2   -1    0    0    0  501 -0.00000000000E+00 -0.00000000000E+00 -0.20504235787E+03  0.20504235788E+03  0.25500000000E-02 0. -1.
    5000001    1    1    2    0    0  0.13076180087E+03  0.37994122289E+03  0.72936102141E+03  0.84890899451E+03  0.16500000000E+03 0.  0.
   -5000001    1    1    2    0    0 -0.13076180087E+03 -0.37994122289E+03  0.17943923656E+03  0.46997597921E+03  0.16500000000E+03 0.  0.
<mgrwt>
<rscale>  0 0.95579269E+03</rscale>
<asrwt>0</asrwt>
<pdfrwt beam="1">  1        2 0.15912037E+00 0.95579269E+03</pdfrwt>
<pdfrwt beam="2">  1       -2 0.29291766E-01 0.95579269E+03</pdfrwt>
<totfact> 0.25637883E+02</totfact>
</mgrwt>
</event>
<event>
 4    1  0.5387486E-005  0.8302743E+03  0.7818608E-02  0.9517201E-01
         -2   -1    0    0    0  501 -0.00000000000E+00  0.00000000000E+00  0.21831804182E+03  0.21831804183E+03  0.25500000000E-02 0.  1.
          2   -1    0    0  501    0  0.00000000000E+00 -0.00000000000E+00 -0.78939357250E+03  0.78939357250E+03  0.25500000000E-02 0. -1.
    5000001    1    1    2    0    0 -0.12844955330E+03 -0.19409916009E+03  0.80471723862E+02  0.29643628326E+03  0.16500000000E+03 0.  0.
   -5000001    1    1    2    0    0  0.12844955330E+03  0.19409916009E+03 -0.65154725454E+03  0.71127533107E+03  0.16500000000E+03 0.  0.
<mgrwt>
<rscale>  0 0.83027431E+03</rscale>
<asrwt>0</asrwt>
<pdfrwt beam="1">  1        2 0.11277051E+00 0.83027431E+03</pdfrwt>
<pdfrwt beam="2">  1       -2 0.31188292E-01 0.83027431E+03</pdfrwt>
<totfact> 0.36945922E+02</totfact>
</mgrwt>
</event>
<event>
 4    1  0.5387486E-005  0.4740383E+03  0.7818608E-02  0.1020787E+00
         -2   -1    0    0    0  501 -0.00000000000E+00  0.00000000000E+00  0.16171835832E+03  0.16171835834E+03  0.25500000000E-02 0. -1.
          2   -1    0    0  501    0  0.00000000000E+00 -0.00000000000E+00 -0.34738213809E+03  0.34738213810E+03  0.25500000000E-02 0.  1.
    5000001    1    1    2    0    0 -0.93616713508E+02  0.13379270258E+03 -0.41455345010E+02  0.23581374417E+03  0.16500000000E+03 0.  0.
   -5000001    1    1    2    0    0  0.93616713508E+02 -0.13379270258E+03 -0.14420843476E+03  0.27328675227E+03  0.16500000000E+03 0.  0.
<mgrwt>
<rscale>  0 0.47403826E+03</rscale>
<asrwt>0</asrwt>
<pdfrwt beam="1">  1        2 0.49626019E-01 0.47403826E+03</pdfrwt>
<pdfrwt beam="2">  1       -2 0.23102623E-01 0.47403826E+03</pdfrwt>
<totfact> 0.16647375E+03</totfact>
</mgrwt>
</event>
<event>
 4    1  0.5387486E-005  0.4647254E+03  0.7818608E-02  0.1023420E+00
          2   -1    0    0  501    0  0.00000000000E+00  0.00000000000E+00  0.13094949033E+04  0.13094949033E+04  0.25500000000E-02 0.  1.
         -2   -1    0    0    0  501 -0.00000000000E+00 -0.00000000000E+00 -0.41231492459E+02  0.41231492538E+02  0.25500000000E-02 0. -1.
    5000001    1    1    2    0    0  0.10397711258E+03  0.68799266695E+02  0.32622259349E+03  0.38625219682E+03  0.16500000000E+03 0.  0.
   -5000001    1    1    2    0    0 -0.10397711258E+03 -0.68799266695E+02  0.94204081735E+03  0.96447419903E+03  0.16500000000E+03 0.  0.
<mgrwt>
<rscale>  0 0.46472542E+03</rscale>
<asrwt>0</asrwt>
<pdfrwt beam="1">  1        2 0.18707064E+00 0.46472542E+03</pdfrwt>
<pdfrwt beam="2">  1       -2 0.58902150E-02 0.46472542E+03</pdfrwt>
<totfact> 0.29853468E+03</totfact>
</mgrwt>
</event>
<event>
 4    1  0.5387486E-005  0.4478244E+03  0.7818608E-02  0.1028373E+00
          2   -1    0    0  501    0  0.00000000000E+00  0.00000000000E+00  0.39810680332E+03  0.39810680333E+03  0.25500000000E-02 0.  1.
         -2   -1    0    0    0  501 -0.00000000000E+00 -0.00000000000E+00 -0.12593775904E+03  0.12593775906E+03  0.25500000000E-02 0. -1.
    5000001    1    1    2    0    0 -0.10702393000E+03  0.72891447698E+02  0.44356935153E+02  0.21438242101E+03  0.16500000000E+03 0.  0.
   -5000001    1    1    2    0    0  0.10702393000E+03 -0.72891447698E+02  0.22781210913E+03  0.30966214139E+03  0.16500000000E+03 0.  0.
<mgrwt>
<rscale>  0 0.44782442E+03</rscale>
<asrwt>0</asrwt>
<pdfrwt beam="1">  1        2 0.56872401E-01 0.44782442E+03</pdfrwt>
<pdfrwt beam="2">  1       -2 0.17991108E-01 0.44782442E+03</pdfrwt>
<totfact> 0.22112296E+03</totfact>
</mgrwt>
</event>
<event>
 4    1  0.5387486E-005  0.5533353E+03  0.7818608E-02  0.1000725E+00
         -2   -1    0    0    0  501 -0.00000000000E+00  0.00000000000E+00  0.92230895646E+02  0.92230895681E+02  0.25500000000E-02 0. -1.
          2   -1    0    0  501    0  0.00000000000E+00 -0.00000000000E+00 -0.82992798676E+03  0.82992798677E+03  0.25500000000E-02 0.  1.
    5000001    1    1    2    0    0 -0.17791515178E+03  0.11712148256E+03 -0.26412420481E+03  0.37730337724E+03  0.16500000000E+03 0.  0.
   -5000001    1    1    2    0    0  0.17791515178E+03 -0.11712148256E+03 -0.47357288631E+03  0.54485550521E+03  0.16500000000E+03 0.  0.
<mgrwt>
<rscale>  0 0.55333535E+03</rscale>
<asrwt>0</asrwt>
<pdfrwt beam="1">  1        2 0.11856114E+00 0.55333535E+03</pdfrwt>
<pdfrwt beam="2">  1       -2 0.13175843E-01 0.55333535E+03</pdfrwt>
<totfact> 0.15809461E+03</totfact>
</mgrwt>
</event>
<event>
 4    1  0.5387486E-005  0.4433934E+03  0.7818608E-02  0.1029711E+00
          2   -1    0    0  501    0  0.00000000000E+00  0.00000000000E+00  0.19405239504E+04  0.19405239504E+04  0.25500000000E-02 0.  1.
         -2   -1    0    0    0  501 -0.00000000000E+00 -0.00000000000E+00 -0.25327920024E+02  0.25327920152E+02  0.25500000000E-02 0. -1.
    5000001    1    1    2    0    0  0.21604364669E+02  0.13216517360E+03  0.67753813007E+03  0.71008260040E+03  0.16500000000E+03 0.  0.
   -5000001    1    1    2    0    0 -0.21604364669E+02 -0.13216517360E+03  0.12376579003E+04  0.12557692702E+04  0.16500000000E+03 0.  0.
<mgrwt>
<rscale>  0 0.44339344E+03</rscale>
<asrwt>0</asrwt>
<pdfrwt beam="1">  1        2 0.27721782E+00 0.44339344E+03</pdfrwt>
<pdfrwt beam="2">  1       -2 0.36182729E-02 0.44339344E+03</pdfrwt>
<totfact> 0.30068852E+03</totfact>
</mgrwt>
</event>
<event>
 4    1  0.5387486E-005  0.8450871E+03  0.7818608E-02  0.9496955E-01
          2   -1    0    0  501    0  0.00000000000E+00  0.00000000000E+00  0.83060523208E+03  0.83060523208E+03  0.25500000000E-02 0.  1.
         -2   -1    0    0    0  501 -0.00000000000E+00 -0.00000000000E+00 -0.21495538843E+03  0.21495538845E+03  0.25500000000E-02 0. -1.
    5000001    1    1    2    0    0 -0.33047809714E+03  0.16356508715E+03  0.15454531815E+03  0.43252579783E+03  0.16500000000E+03 0.  0.
   -5000001    1    1    2    0    0  0.33047809714E+03 -0.16356508715E+03  0.46110452549E+03  0.61303482271E+03  0.16500000000E+03 0.  0.
<mgrwt>
<rscale>  0 0.84508714E+03</rscale>
<asrwt>0</asrwt>
<pdfrwt beam="1">  1        2 0.11865789E+00 0.84508714E+03</pdfrwt>
<pdfrwt beam="2">  1       -2 0.30707913E-01 0.84508714E+03</pdfrwt>
<totfact> 0.35583080E+02</totfact>
</mgrwt>
</event>
<event>
 4    1  0.5387486E-005  0.3642652E+03  0.7818608E-02  0.1056908E+00
          2   -1    0    0  501    0  0.00000000000E+00  0.00000000000E+00  0.20503145379E+04  0.20503145379E+04  0.25500000000E-02 0.  1.
         -2   -1    0    0    0  501 -0.00000000000E+00 -0.00000000000E+00 -0.16179119214E+02  0.16179119415E+02  0.25500000000E-02 0. -1.
    5000001    1    1    2    0    0 -0.85297558584E+01  0.73931047124E+02  0.90237571535E+03  0.92035074190E+03  0.16500000000E+03 0.  0.
   -5000001    1    1    2    0    0  0.85297558584E+01 -0.73931047124E+02  0.11317597033E+04  0.11461429154E+04  0.16500000000E+03 0.  0.
<mgrwt>
<rscale>  0 0.36426520E+03</rscale>
<asrwt>0</asrwt>
<pdfrwt beam="1">  1        2 0.29290209E+00 0.36426520E+03</pdfrwt>
<pdfrwt beam="2">  1       -2 0.23113026E-02 0.36426520E+03</pdfrwt>
<totfact> 0.52125113E+03</totfact>
</mgrwt>
</event>
<event>
 4    1  0.5387486E-005  0.9407668E+03  0.7818608E-02  0.9376008E-01
          2   -1    0    0  501    0  0.00000000000E+00  0.00000000000E+00  0.41768525862E+03  0.41768525863E+03  0.25500000000E-02 0.  1.
         -2   -1    0    0    0  501 -0.00000000000E+00 -0.00000000000E+00 -0.52973028748E+03  0.52973028749E+03  0.25500000000E-02 0. -1.
    5000001    1    1    2    0    0  0.36676762841E+03 -0.10809817843E+02  0.18942149682E+03  0.44468061445E+03  0.16500000000E+03 0.  0.
   -5000001    1    1    2    0    0 -0.36676762841E+03  0.10809817843E+02 -0.30146652568E+03  0.50273493166E+03  0.16500000000E+03 0.  0.
<mgrwt>
<rscale>  0 0.94076678E+03</rscale>
<asrwt>0</asrwt>
<pdfrwt beam="1">  1        2 0.59669323E-01 0.94076678E+03</pdfrwt>
<pdfrwt beam="2">  1       -2 0.75675755E-01 0.94076678E+03</pdfrwt>
<totfact> 0.12922162E+02</totfact>
</mgrwt>
</event>
<event>
 4    1  0.5387486E-005  0.5841470E+03  0.7818608E-02  0.9938853E-01
         -2   -1    0    0    0  501 -0.00000000000E+00  0.00000000000E+00  0.12920431911E+03  0.12920431913E+03  0.25500000000E-02 0. -1.
          2   -1    0    0  501    0  0.00000000000E+00 -0.00000000000E+00 -0.66024820511E+03  0.66024820512E+03  0.25500000000E-02 0.  1.
    5000001    1    1    2    0    0  0.22700156852E+03 -0.66929250864E+02 -0.20399429115E+03  0.35333823393E+03  0.16500000000E+03 0.  0.
   -5000001    1    1    2    0    0 -0.22700156852E+03  0.66929250864E+02 -0.32704959485E+03  0.43611429032E+03  0.16500000000E+03 0.  0.
<mgrwt>
<rscale>  0 0.58414697E+03</rscale>
<asrwt>0</asrwt>
<pdfrwt beam="1">  1        2 0.94321170E-01 0.58414697E+03</pdfrwt>
<pdfrwt beam="2">  1       -2 0.18457760E-01 0.58414697E+03</pdfrwt>
<totfact> 0.11886690E+03</totfact>
</mgrwt>
</event>
<event>
 4    1  0.5387486E-005  0.3833024E+03  0.7818608E-02  0.1049720E+00
          2   -1    0    0  501    0  0.00000000000E+00  0.00000000000E+00  0.40989008489E+02  0.40989008569E+02  0.25500000000E-02 0.  1.
         -2   -1    0    0    0  501 -0.00000000000E+00 -0.00000000000E+00 -0.89609834431E+03  0.89609834432E+03  0.25500000000E-02 0. -1.
    5000001    1    1    2    0    0 -0.82025284326E+02  0.52325173808E+01 -0.29935770616E+03  0.35156160590E+03  0.16500000000E+03 0.  0.
   -5000001    1    1    2    0    0  0.82025284326E+02 -0.52325173808E+01 -0.55575162966E+03  0.58552574698E+03  0.16500000000E+03 0.  0.
<mgrwt>
<rscale>  0 0.38330240E+03</rscale>
<asrwt>0</asrwt>
<pdfrwt beam="1">  1        2 0.58555732E-02 0.38330240E+03</pdfrwt>
<pdfrwt beam="2">  1       -2 0.12801404E+00 0.38330240E+03</pdfrwt>
<totfact> 0.60808421E+02</totfact>
</mgrwt>
</event>
<event>
 4    1  0.5387486E-005  0.6970201E+03  0.7818608E-02  0.9722342E-01
         -2   -1    0    0    0  501 -0.00000000000E+00  0.00000000000E+00  0.25874470712E+03  0.25874470714E+03  0.25500000000E-02 0. -1.
          2   -1    0    0  501    0  0.00000000000E+00 -0.00000000000E+00 -0.46941732906E+03  0.46941732906E+03  0.25500000000E-02 0.  1.
    5000001    1    1    2    0    0 -0.13726893714E+03 -0.27116315376E+02 -0.39077685634E+03  0.44666498308E+03  0.16500000000E+03 0.  0.
   -5000001    1    1    2    0    0  0.13726893714E+03  0.27116315376E+02  0.18010423440E+03  0.28149705312E+03  0.16500000000E+03 0.  0.
<mgrwt>
<rscale>  0 0.69702008E+03</rscale>
<asrwt>0</asrwt>
<pdfrwt beam="1">  1        2 0.67059618E-01 0.69702008E+03</pdfrwt>
<pdfrwt beam="2">  1       -2 0.36963530E-01 0.69702008E+03</pdfrwt>
<totfact> 0.50073004E+02</totfact>
</mgrwt>
</event>
<event>
 4    1  0.5387486E-005  0.4015739E+03  0.7818608E-02  0.1043236E+00
          2   -1    0    0  501    0  0.00000000000E+00  0.00000000000E+00  0.15365075247E+03  0.15365075249E+03  0.25500000000E-02 0.  1.
         -2   -1    0    0    0  501 -0.00000000000E+00 -0.00000000000E+00 -0.26238336485E+03  0.26238336486E+03  0.25500000000E-02 0. -1.
    5000001    1    1    2    0    0  0.10845893895E+03  0.25739456143E+02 -0.81073247655E+02  0.21499705237E+03  0.16500000000E+03 0.  0.
   -5000001    1    1    2    0    0 -0.10845893895E+03 -0.25739456143E+02 -0.27659364722E+02  0.20103706499E+03  0.16500000000E+03 0.  0.
<mgrwt>
<rscale>  0 0.40157391E+03</rscale>
<asrwt>0</asrwt>
<pdfrwt beam="1">  1        2 0.21950108E-01 0.40157391E+03</pdfrwt>
<pdfrwt beam="2">  1       -2 0.37483338E-01 0.40157391E+03</pdfrwt>
<totfact> 0.16964264E+03</totfact>
</mgrwt>
</event>
<event>
 4    1  0.5387486E-005  0.4986083E+03  0.7818608E-02  0.1014143E+00
         -2   -1    0    0    0  501 -0.00000000000E+00  0.00000000000E+00  0.27932959151E+02  0.27932959267E+02  0.25500000000E-02 0. -1.
          2   -1    0    0  501    0  0.00000000000E+00 -0.00000000000E+00 -0.22250618676E+04  0.22250618676E+04  0.25500000000E-02 0.  1.
    5000001    1    1    2    0    0 -0.17213983607E+03  0.42200216799E+02 -0.83068620382E+03  0.86526155044E+03  0.16500000000E+03 0.  0.
   -5000001    1    1    2    0    0  0.17213983607E+03 -0.42200216799E+02 -0.13664427047E+04  0.13877332765E+04  0.16500000000E+03 0.  0.
<mgrwt>
<rscale>  0 0.49860831E+03</rscale>
<asrwt>0</asrwt>
<pdfrwt beam="1">  1        2 0.31786587E+00 0.49860831E+03</pdfrwt>
<pdfrwt beam="2">  1       -2 0.39904241E-02 0.49860831E+03</pdfrwt>
<totfact> 0.18644124E+03</totfact>
</mgrwt>
</event>
<event>
 4    1  0.5387486E-005  0.4010076E+03  0.7818608E-02  0.1043431E+00
          2   -1    0    0  501    0  0.00000000000E+00  0.00000000000E+00  0.43372203260E+03  0.43372203261E+03  0.25500000000E-02 0.  1.
         -2   -1    0    0    0  501 -0.00000000000E+00 -0.00000000000E+00 -0.92690191757E+02  0.92690191792E+02  0.25500000000E-02 0. -1.
    5000001    1    1    2    0    0 -0.34744065781E+02  0.10761494702E+03  0.15248560125E+03  0.25152531785E+03  0.16500000000E+03 0.  0.
   -5000001    1    1    2    0    0  0.34744065781E+02 -0.10761494702E+03  0.18854623959E+03  0.27488690655E+03  0.16500000000E+03 0.  0.
<mgrwt>
<rscale>  0 0.40100762E+03</rscale>
<asrwt>0</asrwt>
<pdfrwt beam="1">  1        2 0.61960291E-01 0.40100762E+03</pdfrwt>
<pdfrwt beam="2">  1       -2 0.13241456E-01 0.40100762E+03</pdfrwt>
<totfact> 0.33577631E+03</totfact>
</mgrwt>
</event>
<event>
 4    1  0.5387486E-005  0.3751812E+03  0.7818608E-02  0.1052729E+00
         -2   -1    0    0    0  501 -0.00000000000E+00  0.00000000000E+00  0.21080350809E+02  0.21080350963E+02  0.25500000000E-02 0. -1.
          2   -1    0    0  501    0  0.00000000000E+00 -0.00000000000E+00 -0.16693377213E+04  0.16693377213E+04  0.25500000000E-02 0.  1.
    5000001    1    1    2    0    0  0.70510146424E+02 -0.36981616943E+02 -0.64245142021E+03  0.66806298211E+03  0.16500000000E+03 0.  0.
   -5000001    1    1    2    0    0 -0.70510146424E+02  0.36981616943E+02 -0.10058059503E+04  0.10223550902E+04  0.16500000000E+03 0.  0.
<mgrwt>
<rscale>  0 0.37518116E+03</rscale>
<asrwt>0</asrwt>
<pdfrwt beam="1">  1        2 0.23847673E+00 0.37518116E+03</pdfrwt>
<pdfrwt beam="2">  1       -2 0.30114798E-02 0.37518116E+03</pdfrwt>
<totfact> 0.54186852E+03</totfact>
</mgrwt>
</event>
<event>
 4    1  0.5387486E-005  0.3411368E+03  0.7818608E-02  0.1066313E+00
          2   -1    0    0  501    0  0.00000000000E+00  0.00000000000E+00  0.78863591740E+03  0.78863591740E+03  0.25500000000E-02 0.  1.
         -2   -1    0    0    0  501 -0.00000000000E+00 -0.00000000000E+00 -0.36891020488E+02  0.36891020576E+02  0.25500000000E-02 0. -1.
    5000001    1    1    2    0    0 -0.42262471003E+02 -0.82683362031E+01  0.36678498287E+03  0.40448820193E+03  0.16500000000E+03 0.  0.
   -5000001    1    1    2    0    0  0.42262471003E+02  0.82683362031E+01  0.38495991404E+03  0.42103873605E+03  0.16500000000E+03 0.  0.
<mgrwt>
<rscale>  0 0.34113683E+03</rscale>
<asrwt>0</asrwt>
<pdfrwt beam="1">  1        2 0.11266228E+00 0.34113683E+03</pdfrwt>
<pdfrwt beam="2">  1       -2 0.52701457E-02 0.34113683E+03</pdfrwt>
<totfact> 0.71994435E+03</totfact>
</mgrwt>
</event>
<event>
 4    1  0.5387486E-005  0.5385839E+03  0.7818608E-02  0.1004171E+00
         -2   -1    0    0    0  501 -0.00000000000E+00  0.00000000000E+00  0.26877747670E+03  0.26877747671E+03  0.25500000000E-02 0. -1.
          2   -1    0    0  501    0  0.00000000000E+00 -0.00000000000E+00 -0.26980744371E+03  0.26980744373E+03  0.25500000000E-02 0.  1.
    5000001    1    1    2    0    0  0.19472433432E+03 -0.24679712723E+02 -0.82773928750E+02  0.26944976875E+03  0.16500000000E+03 0.  0.
   -5000001    1    1    2    0    0 -0.19472433432E+03  0.24679712723E+02  0.81743961739E+02  0.26913515169E+03  0.16500000000E+03 0.  0.
<mgrwt>
<rscale>  0 0.53858394E+03</rscale>
<asrwt>0</asrwt>
<pdfrwt beam="1">  1        2 0.38543920E-01 0.53858394E+03</pdfrwt>
<pdfrwt beam="2">  1       -2 0.38396783E-01 0.53858394E+03</pdfrwt>
<totfact> 0.86292602E+02</totfact>
</mgrwt>
</event>
<event>
 4    1  0.5387486E-005  0.4279255E+03  0.7818608E-02  0.1034517E+00
          2   -1    0    0  501    0  0.00000000000E+00  0.00000000000E+00  0.23229322212E+04  0.23229322212E+04  0.25500000000E-02 0.  1.
         -2   -1    0    0    0  501 -0.00000000000E+00 -0.00000000000E+00 -0.19707871888E+02  0.19707872053E+02  0.25500000000E-02 0. -1.
    5000001    1    1    2    0    0  0.18094486678E+02 -0.10222390676E+03  0.16344140947E+04  0.16459986545E+04  0.16500000000E+03 0.  0.
   -5000001    1    1    2    0    0 -0.18094486678E+02  0.10222390676E+03  0.66881025466E+03  0.69664143883E+03  0.16500000000E+03 0.  0.
<mgrwt>
<rscale>  0 0.42792546E+03</rscale>
<asrwt>0</asrwt>
<pdfrwt beam="1">  1        2 0.33184767E+00 0.42792546E+03</pdfrwt>
<pdfrwt beam="2">  1       -2 0.28154085E-02 0.42792546E+03</pdfrwt>
<totfact> 0.28362754E+03</totfact>
</mgrwt>
</event>
<event>
 4    1  0.5387486E-005  0.5659531E+03  0.7818608E-02  0.9978674E-01
         -2   -1    0    0    0  501 -0.00000000000E+00  0.00000000000E+00  0.55962885563E+02  0.55962885621E+02  0.25500000000E-02 0. -1.
          2   -1    0    0  501    0  0.00000000000E+00 -0.00000000000E+00 -0.14308718816E+04  0.14308718816E+04  0.25500000000E-02 0.  1.
    5000001    1    1    2    0    0  0.22644283416E+03  0.10616590344E+02 -0.78789387826E+03  0.83629590010E+03  0.16500000000E+03 0.  0.
   -5000001    1    1    2    0    0 -0.22644283416E+03 -0.10616590344E+02 -0.58701511778E+03  0.65053886713E+03  0.16500000000E+03 0.  0.
<mgrwt>
<rscale>  0 0.56595307E+03</rscale>
<asrwt>0</asrwt>
<pdfrwt beam="1">  1        2 0.20441024E+00 0.56595307E+03</pdfrwt>
<pdfrwt beam="2">  1       -2 0.79946989E-02 0.56595307E+03</pdfrwt>
<totfact> 0.15886014E+03</totfact>
</mgrwt>
</event>
<event>
 4    1  0.5387486E-005  0.4523473E+03  0.7818608E-02  0.1027024E+00
         -2   -1    0    0    0  501 -0.00000000000E+00  0.00000000000E+00  0.44969398736E+03  0.44969398736E+03  0.25500000000E-02 0. -1.
          2   -1    0    0  501    0  0.00000000000E+00 -0.00000000000E+00 -0.11375408924E+03  0.11375408927E+03  0.25500000000E-02 0.  1.
    5000001    1    1    2    0    0  0.13354997099E+03  0.10668429082E+02  0.71645440988E+02  0.22429328867E+03  0.16500000000E+03 0.  0.
   -5000001    1    1    2    0    0 -0.13354997099E+03 -0.10668429082E+02  0.26429445713E+03  0.33915478796E+03  0.16500000000E+03 0.  0.
<mgrwt>
<rscale>  0 0.45234734E+03</rscale>
<asrwt>0</asrwt>
<pdfrwt beam="1">  1        2 0.16250584E-01 0.45234734E+03</pdfrwt>
<pdfrwt beam="2">  1       -2 0.64241998E-01 0.45234734E+03</pdfrwt>
<totfact> 0.81788876E+02</totfact>
</mgrwt>
</event>
<event>
 4    1  0.5387486E-005  0.3790376E+03  0.7818608E-02  0.1051290E+00
          2   -1    0    0  501    0  0.00000000000E+00  0.00000000000E+00  0.77024478653E+02  0.77024478695E+02  0.25500000000E-02 0.  1.
         -2   -1    0    0    0  501 -0.00000000000E+00 -0.00000000000E+00 -0.46631120142E+03  0.46631120143E+03  0.25500000000E-02 0. -1.
    5000001    1    1    2    0    0  0.26539600794E+02  0.88539613535E+02 -0.21212709928E+03  0.28419451055E+03  0.16500000000E+03 0.  0.
   -5000001    1    1    2    0    0 -0.26539600794E+02 -0.88539613535E+02 -0.17715962349E+03  0.25914116958E+03  0.16500000000E+03 0.  0.
<mgrwt>
<rscale>  0 0.37903761E+03</rscale>
<asrwt>0</asrwt>
<pdfrwt beam="1">  1        2 0.11003497E-01 0.37903761E+03</pdfrwt>
<pdfrwt beam="2">  1       -2 0.66615884E-01 0.37903761E+03</pdfrwt>
<totfact> 0.12150778E+03</totfact>
</mgrwt>
</event>
<event>
 4    1  0.5387486E-005  0.7798704E+03  0.7818608E-02  0.9589620E-01
         -2   -1    0    0    0  501 -0.00000000000E+00  0.00000000000E+00  0.78719354444E+02  0.78719354486E+02  0.25500000000E-02 0. -1.
          2   -1    0    0  501    0  0.00000000000E+00 -0.00000000000E+00 -0.19315384668E+04  0.19315384668E+04  0.25500000000E-02 0.  1.
    5000001    1    1    2    0    0 -0.28431823296E+02  0.34683558552E+03 -0.76916738372E+03  0.86020157878E+03  0.16500000000E+03 0.  0.
   -5000001    1    1    2    0    0  0.28431823296E+02 -0.34683558552E+03 -0.10836517287E+04  0.11500562425E+04  0.16500000000E+03 0.  0.
<mgrwt>
<rscale>  0 0.77987040E+03</rscale>
<asrwt>0</asrwt>
<pdfrwt beam="1">  1        2 0.27593404E+00 0.77987040E+03</pdfrwt>
<pdfrwt beam="2">  1       -2 0.11245623E-01 0.77987040E+03</pdfrwt>
<totfact> 0.50105029E+02</totfact>
</mgrwt>
</event>
<event>
 4    1  0.5387486E-005  0.5009662E+03  0.7818608E-02  0.1013527E+00
          2   -1    0    0  501    0  0.00000000000E+00  0.00000000000E+00  0.12376217733E+04  0.12376217733E+04  0.25500000000E-02 0.  1.
         -2   -1    0    0    0  501 -0.00000000000E+00 -0.00000000000E+00 -0.50695440551E+02  0.50695440616E+02  0.25500000000E-02 0. -1.
    5000001    1    1    2    0    0 -0.17556179100E+02  0.14283469773E+03  0.28053463949E+03  0.35585763200E+03  0.16500000000E+03 0.  0.
   -5000001    1    1    2    0    0  0.17556179100E+02 -0.14283469773E+03  0.90639169329E+03  0.93245958194E+03  0.16500000000E+03 0.  0.
<mgrwt>
<rscale>  0 0.50096619E+03</rscale>
<asrwt>0</asrwt>
<pdfrwt beam="1">  1        2 0.17680311E+00 0.50096619E+03</pdfrwt>
<pdfrwt beam="2">  1       -2 0.72422058E-02 0.50096619E+03</pdfrwt>
<totfact> 0.23628174E+03</totfact>
</mgrwt>
</event>
<event>
 4    1  0.5387486E-005  0.3776024E+03  0.7818608E-02  0.1051824E+00
         -2   -1    0    0    0  501 -0.00000000000E+00  0.00000000000E+00  0.10356045937E+03  0.10356045940E+03  0.25500000000E-02 0. -1.
          2   -1    0    0  501    0  0.00000000000E+00 -0.00000000000E+00 -0.34420363200E+03  0.34420363201E+03  0.25500000000E-02 0.  1.
    5000001    1    1    2    0    0  0.88811312929E+02 -0.11488384864E+02 -0.14408082021E+03  0.23665104066E+03  0.16500000000E+03 0.  0.
   -5000001    1    1    2    0    0 -0.88811312929E+02  0.11488384864E+02 -0.96562352418E+02  0.21111305075E+03  0.16500000000E+03 0.  0.
<mgrwt>
<rscale>  0 0.37760236E+03</rscale>
<asrwt>0</asrwt>
<pdfrwt beam="1">  1        2 0.49171947E-01 0.37760236E+03</pdfrwt>
<pdfrwt beam="2">  1       -2 0.14794352E-01 0.37760236E+03</pdfrwt>
<totfact> 0.35954407E+03</totfact>
</mgrwt>
</event>
<event>
 4    1  0.5387486E-005  0.4054579E+03  0.7818608E-02  0.1041906E+00
         -2   -1    0    0    0  501 -0.00000000000E+00  0.00000000000E+00  0.23391623892E+03  0.23391623893E+03  0.25500000000E-02 0. -1.
          2   -1    0    0  501    0  0.00000000000E+00 -0.00000000000E+00 -0.17569976655E+03  0.17569976657E+03  0.25500000000E-02 0.  1.
    5000001    1    1    2    0    0 -0.98803342407E+02 -0.42360847020E+01 -0.35532188073E+02  0.19562101440E+03  0.16500000000E+03 0.  0.
   -5000001    1    1    2    0    0  0.98803342407E+02  0.42360847020E+01  0.93748660436E+02  0.21399499111E+03  0.16500000000E+03 0.  0.
<mgrwt>
<rscale>  0 0.40545791E+03</rscale>
<asrwt>0</asrwt>
<pdfrwt beam="1">  1        2 0.25099967E-01 0.40545791E+03</pdfrwt>
<pdfrwt beam="2">  1       -2 0.33416606E-01 0.40545791E+03</pdfrwt>
<totfact> 0.18082480E+03</totfact>
</mgrwt>
</event>
<event>
 4    1  0.5387486E-005  0.1154475E+04  0.7818608E-02  0.9153665E-01
         -2   -1    0    0    0  501 -0.00000000000E+00  0.00000000000E+00  0.91060497536E+03  0.91060497536E+03  0.25500000000E-02 0. -1.
          2   -1    0    0  501    0  0.00000000000E+00 -0.00000000000E+00 -0.36591419943E+03  0.36591419944E+03  0.25500000000E-02 0.  1.
    5000001    1    1    2    0    0  0.10779746715E+03 -0.49113658892E+03  0.17448157040E+02  0.52949493017E+03  0.16500000000E+03 0.  0.
   -5000001    1    1    2    0    0 -0.10779746715E+03  0.49113658892E+03  0.52724261888E+03  0.74702424463E+03  0.16500000000E+03 0.  0.
<mgrwt>
<rscale>  0 0.11544753E+04</rscale>
<asrwt>0</asrwt>
<pdfrwt beam="1">  1        2 0.52273457E-01 0.11544753E+04</pdfrwt>
<pdfrwt beam="2">  1       -2 0.13008642E+00 0.11544753E+04</pdfrwt>
<totfact> 0.41012742E+01</totfact>
</mgrwt>
</event>
<event>
 4    1  0.5387486E-005  0.8183765E+03  0.7818608E-02  0.9533792E-01
         -2   -1    0    0    0  501 -0.00000000000E+00  0.00000000000E+00  0.99044460951E+02  0.99044460984E+02  0.25500000000E-02 0. -1.
          2   -1    0    0  501    0  0.00000000000E+00 -0.00000000000E+00 -0.16905037788E+04  0.16905037788E+04  0.25500000000E-02 0.  1.
    5000001    1    1    2    0    0  0.27315019603E+03 -0.36865021145E+02 -0.13499633603E+04  0.13876585075E+04  0.16500000000E+03 0.  0.
   -5000001    1    1    2    0    0 -0.27315019603E+03  0.36865021145E+02 -0.24149595754E+03  0.40188973225E+03  0.16500000000E+03 0.  0.
<mgrwt>
<rscale>  0 0.81837653E+03</rscale>
<asrwt>0</asrwt>
<pdfrwt beam="1">  1        2 0.24150052E+00 0.81837653E+03</pdfrwt>
<pdfrwt beam="2">  1       -2 0.14149210E-01 0.81837653E+03</pdfrwt>
<totfact> 0.45279144E+02</totfact>
</mgrwt>
</event>
<event>
 4    1  0.5387486E-005  0.5801823E+03  0.7818608E-02  0.9947396E-01
          2   -1    0    0  501    0  0.00000000000E+00  0.00000000000E+00  0.43058139008E+04  0.43058139008E+04  0.25500000000E-02 0.  1.
         -2   -1    0    0    0  501 -0.00000000000E+00 -0.00000000000E+00 -0.19544011393E+02  0.19544011560E+02  0.25500000000E-02 0. -1.
    5000001    1    1    2    0    0  0.17352333928E+03 -0.55177794045E+02  0.99366134382E+03  0.10235930854E+04  0.16500000000E+03 0.  0.
   -5000001    1    1    2    0    0 -0.17352333928E+03  0.55177794045E+02  0.32926085456E+04  0.33017648270E+04  0.16500000000E+03 0.  0.
<mgrwt>
<rscale>  0 0.58018230E+03</rscale>
<asrwt>0</asrwt>
<pdfrwt beam="1">  1        2 0.61511625E+00 0.58018230E+03</pdfrwt>
<pdfrwt beam="2">  1       -2 0.27920017E-02 0.58018230E+03</pdfrwt>
<totfact> 0.19624025E+02</totfact>
</mgrwt>
</event>
<event>
 4    1  0.5387486E-005  0.4611127E+03  0.7818608E-02  0.1024459E+00
         -2   -1    0    0    0  501 -0.00000000000E+00  0.00000000000E+00  0.52636740691E+02  0.52636740753E+02  0.25500000000E-02 0.  1.
          2   -1    0    0  501    0  0.00000000000E+00 -0.00000000000E+00 -0.10098693421E+04  0.10098693421E+04  0.25500000000E-02 0. -1.
    5000001    1    1    2    0    0 -0.15057105671E+03  0.55959355938E+02 -0.45253294477E+03  0.50775403370E+03  0.16500000000E+03 0.  0.
   -5000001    1    1    2    0    0  0.15057105671E+03 -0.55959355938E+02 -0.50469965668E+03  0.55475204919E+03  0.16500000000E+03 0.  0.
<mgrwt>
<rscale>  0 0.46111270E+03</rscale>
<asrwt>0</asrwt>
<pdfrwt beam="1">  1        2 0.14426704E+00 0.46111270E+03</pdfrwt>
<pdfrwt beam="2">  1       -2 0.75195350E-02 0.46111270E+03</pdfrwt>
<totfact> 0.30068997E+03</totfact>
</mgrwt>
</event>
<event>
 4    1  0.5387486E-005  0.6661364E+03  0.7818608E-02  0.9776963E-01
         -2   -1    0    0    0  501 -0.00000000000E+00  0.00000000000E+00  0.22025134737E+03  0.22025134738E+03  0.25500000000E-02 0. -1.
          2   -1    0    0  501    0  0.00000000000E+00 -0.00000000000E+00 -0.50367192564E+03  0.50367192564E+03  0.25500000000E-02 0.  1.
    5000001    1    1    2    0    0  0.25562666896E+03  0.54659632165E+01  0.54411477327E+01  0.30435091051E+03  0.16500000000E+03 0.  0.
   -5000001    1    1    2    0    0 -0.25562666896E+03 -0.54659632165E+01 -0.28886172600E+03  0.41957236252E+03  0.16500000000E+03 0.  0.
<mgrwt>
<rscale>  0 0.66613638E+03</rscale>
<asrwt>0</asrwt>
<pdfrwt beam="1">  1        2 0.71953132E-01 0.66613638E+03</pdfrwt>
<pdfrwt beam="2">  1       -2 0.31464478E-01 0.66613638E+03</pdfrwt>
<totfact> 0.62720778E+02</totfact>
</mgrwt>
</event>
<event>
 4    1  0.5387486E-005  0.4793856E+03  0.7818608E-02  0.1019304E+00
          2   -1    0    0  501    0  0.00000000000E+00  0.00000000000E+00  0.10026618537E+04  0.10026618537E+04  0.25500000000E-02 0.  1.
         -2   -1    0    0    0  501 -0.00000000000E+00 -0.00000000000E+00 -0.57300114627E+02  0.57300114684E+02  0.25500000000E-02 0. -1.
    5000001    1    1    2    0    0  0.10164415391E+03 -0.14012719079E+03  0.50836612312E+03  0.56180804441E+03  0.16500000000E+03 0.  0.
   -5000001    1    1    2    0    0 -0.10164415391E+03  0.14012719079E+03  0.43699561599E+03  0.49815392402E+03  0.16500000000E+03 0.  0.
<mgrwt>
<rscale>  0 0.47938560E+03</rscale>
<asrwt>0</asrwt>
<pdfrwt beam="1">  1        2 0.14323740E+00 0.47938560E+03</pdfrwt>
<pdfrwt beam="2">  1       -2 0.81857309E-02 0.47938560E+03</pdfrwt>
<totfact> 0.26555729E+03</totfact>
</mgrwt>
</event>
<event>
 4    1  0.5387486E-005  0.6150771E+03  0.7818608E-02  0.9874610E-01
          2   -1    0    0  501    0  0.00000000000E+00  0.00000000000E+00  0.10510863721E+04  0.10510863721E+04  0.25500000000E-02 0.  1.
         -2   -1    0    0    0  501 -0.00000000000E+00 -0.00000000000E+00 -0.89983054205E+02  0.89983054241E+02  0.25500000000E-02 0. -1.
    5000001    1    1    2    0    0  0.15388746608E+03 -0.17212636418E+03  0.70041901981E+03  0.75572524159E+03  0.16500000000E+03 0.  0.
   -5000001    1    1    2    0    0 -0.15388746608E+03  0.17212636418E+03  0.26068429811E+03  0.38534418478E+03  0.16500000000E+03 0.  0.
<mgrwt>
<rscale>  0 0.61507711E+03</rscale>
<asrwt>0</asrwt>
<pdfrwt beam="1">  1        2 0.15015519E+00 0.61507711E+03</pdfrwt>
<pdfrwt beam="2">  1       -2 0.12854722E-01 0.61507711E+03</pdfrwt>
<totfact> 0.11930237E+03</totfact>
</mgrwt>
</event>
<event>
 4    1  0.5387486E-005  0.4926654E+03  0.7818608E-02  0.1015711E+00
         -2   -1    0    0    0  501 -0.00000000000E+00  0.00000000000E+00  0.15222426439E+03  0.15222426442E+03  0.25500000000E-02 0. -1.
          2   -1    0    0  501    0  0.00000000000E+00 -0.00000000000E+00 -0.39862105907E+03  0.39862105908E+03  0.25500000000E-02 0.  1.
    5000001    1    1    2    0    0 -0.34698023269E+02  0.94409008152E+02 -0.29400608617E+03  0.35182608252E+03  0.16500000000E+03 0.  0.
   -5000001    1    1    2    0    0  0.34698023269E+02 -0.94409008152E+02  0.47609291496E+02  0.19901924097E+03  0.16500000000E+03 0.  0.
<mgrwt>
<rscale>  0 0.49266539E+03</rscale>
<asrwt>0</asrwt>
<pdfrwt beam="1">  1        2 0.56945865E-01 0.49266539E+03</pdfrwt>
<pdfrwt beam="2">  1       -2 0.21746324E-01 0.49266539E+03</pdfrwt>
<totfact> 0.15919002E+03</totfact>
</mgrwt>
</event>
<event>
 4    1  0.5387486E-005  0.4776120E+03  0.7818608E-02  0.1019794E+00
          2   -1    0    0  501    0  0.00000000000E+00  0.00000000000E+00  0.20203795892E+03  0.20203795893E+03  0.25500000000E-02 0.  1.
         -2   -1    0    0    0  501 -0.00000000000E+00 -0.00000000000E+00 -0.28226530325E+03  0.28226530326E+03  0.25500000000E-02 0. -1.
    5000001    1    1    2    0    0  0.14093189833E+03 -0.93332857618E+02 -0.45439841422E+01  0.23625932801E+03  0.16500000000E+03 0.  0.
   -5000001    1    1    2    0    0 -0.14093189833E+03  0.93332857618E+02 -0.75683360194E+02  0.24804393419E+03  0.16500000000E+03 0.  0.
<mgrwt>
<rscale>  0 0.47761200E+03</rscale>
<asrwt>0</asrwt>
<pdfrwt beam="1">  1        2 0.28862566E-01 0.47761200E+03</pdfrwt>
<pdfrwt beam="2">  1       -2 0.40323615E-01 0.47761200E+03</pdfrwt>
<totfact> 0.10827677E+03</totfact>
</mgrwt>
</event>
<event>
 4    1  0.5387486E-005  0.4920140E+03  0.7818608E-02  0.1015885E+00
         -2   -1    0    0    0  501 -0.00000000000E+00  0.00000000000E+00  0.41330737931E+02  0.41330738010E+02  0.25500000000E-02 0. -1.
          2   -1    0    0  501    0  0.00000000000E+00 -0.00000000000E+00 -0.14642721273E+04  0.14642721273E+04  0.25500000000E-02 0.  1.
    5000001    1    1    2    0    0  0.13402691883E+03  0.80371205643E+02 -0.99969886889E+03  0.10252051376E+04  0.16500000000E+03 0.  0.
   -5000001    1    1    2    0    0 -0.13402691883E+03 -0.80371205643E+02 -0.42324252049E+03  0.48039772774E+03  0.16500000000E+03 0.  0.
<mgrwt>
<rscale>  0 0.49201401E+03</rscale>
<asrwt>0</asrwt>
<pdfrwt beam="1">  1        2 0.20918170E+00 0.49201401E+03</pdfrwt>
<pdfrwt beam="2">  1       -2 0.59043921E-02 0.49201401E+03</pdfrwt>
<totfact> 0.24630916E+03</totfact>
</mgrwt>
</event>
<event>
 4    1  0.5387486E-005  0.4198848E+03  0.7818608E-02  0.1037104E+00
          2   -1    0    0  501    0  0.00000000000E+00  0.00000000000E+00  0.12532063803E+04  0.12532063803E+04  0.25500000000E-02 0. -1.
         -2   -1    0    0    0  501 -0.00000000000E+00 -0.00000000000E+00 -0.35170425045E+02  0.35170425137E+02  0.25500000000E-02 0.  1.
    5000001    1    1    2    0    0  0.97861564706E+01 -0.92296044680E+02  0.33054476931E+03  0.38091885388E+03  0.16500000000E+03 0.  0.
   -5000001    1    1    2    0    0 -0.97861564706E+01  0.92296044680E+02  0.88749118598E+03  0.90745795160E+03  0.16500000000E+03 0.  0.
<mgrwt>
<rscale>  0 0.41988475E+03</rscale>
<asrwt>0</asrwt>
<pdfrwt beam="1">  1        2 0.17902947E+00 0.41988475E+03</pdfrwt>
<pdfrwt beam="2">  1       -2 0.50243469E-02 0.41988475E+03</pdfrwt>
<totfact> 0.40935626E+03</totfact>
</mgrwt>
</event>
<event>
 4    1  0.5387486E-005  0.3435187E+03  0.7818608E-02  0.1065307E+00
         -2   -1    0    0    0  501 -0.00000000000E+00  0.00000000000E+00  0.20497565749E+02  0.20497565908E+02  0.25500000000E-02 0. -1.
          2   -1    0    0  501    0  0.00000000000E+00 -0.00000000000E+00 -0.14392571390E+04  0.14392571390E+04  0.25500000000E-02 0.  1.
    5000001    1    1    2    0    0 -0.40863737301E+02 -0.10205181163E+02 -0.61414375694E+03  0.63731589101E+03  0.16500000000E+03 0.  0.
   -5000001    1    1    2    0    0  0.40863737301E+02  0.10205181163E+02 -0.80461581632E+03  0.82243881390E+03  0.16500000000E+03 0.  0.
<mgrwt>
<rscale>  0 0.34351866E+03</rscale>
<asrwt>0</asrwt>
<pdfrwt beam="1">  1        2 0.20560810E+00 0.34351866E+03</pdfrwt>
<pdfrwt beam="2">  1       -2 0.29282246E-02 0.34351866E+03</pdfrwt>
<totfact> 0.73871727E+03</totfact>
</mgrwt>
</event>
<event>
 4    1  0.5387486E-005  0.4795687E+03  0.7818608E-02  0.1019254E+00
         -2   -1    0    0    0  501 -0.00000000000E+00  0.00000000000E+00  0.17511676364E+03  0.17511676366E+03  0.25500000000E-02 0. -1.
          2   -1    0    0  501    0  0.00000000000E+00 -0.00000000000E+00 -0.32833257849E+03  0.32833257850E+03  0.25500000000E-02 0.  1.
    5000001    1    1    2    0    0  0.92288075209E+00  0.16491027047E+03 -0.13482465481E+03  0.26944189830E+03  0.16500000000E+03 0.  0.
   -5000001    1    1    2    0    0 -0.92288075209E+00 -0.16491027047E+03 -0.18391160045E+02  0.23400744386E+03  0.16500000000E+03 0.  0.
<mgrwt>
<rscale>  0 0.47956872E+03</rscale>
<asrwt>0</asrwt>
<pdfrwt beam="1">  1        2 0.46904654E-01 0.47956872E+03</pdfrwt>
<pdfrwt beam="2">  1       -2 0.25016681E-01 0.47956872E+03</pdfrwt>
<totfact> 0.15375165E+03</totfact>
</mgrwt>
</event>
<event>
 4    1  0.5387486E-005  0.8515936E+03  0.7818608E-02  0.9488201E-01
         -2   -1    0    0    0  501 -0.00000000000E+00  0.00000000000E+00  0.15286872900E+03  0.15286872902E+03  0.25500000000E-02 0. -1.
          2   -1    0    0  501    0  0.00000000000E+00 -0.00000000000E+00 -0.11860038908E+04  0.11860038908E+04  0.25500000000E-02 0.  1.
    5000001    1    1    2    0    0  0.37070680068E+03  0.95328642445E+02 -0.37980611963E+03  0.56390493050E+03  0.16500000000E+03 0.  0.
   -5000001    1    1    2    0    0 -0.37070680068E+03 -0.95328642445E+02 -0.65332904215E+03  0.77496768930E+03  0.16500000000E+03 0.  0.
<mgrwt>
<rscale>  0 0.85159358E+03</rscale>
<asrwt>0</asrwt>
<pdfrwt beam="1">  1        2 0.16942912E+00 0.85159358E+03</pdfrwt>
<pdfrwt beam="2">  1       -2 0.21838391E-01 0.85159358E+03</pdfrwt>
<totfact> 0.39842506E+02</totfact>
</mgrwt>
</event>
<event>
 4    1  0.5387486E-005  0.9424512E+03  0.7818608E-02  0.9374018E-01
         -2   -1    0    0    0  501 -0.00000000000E+00  0.00000000000E+00  0.26468455587E+03  0.26468455588E+03  0.25500000000E-02 0. -1.
          2   -1    0    0  501    0  0.00000000000E+00 -0.00000000000E+00 -0.83893660639E+03  0.83893660640E+03  0.25500000000E-02 0.  1.
    5000001    1    1    2    0    0 -0.39495489462E+03 -0.86210037231E+02 -0.49465299393E+03  0.65979400097E+03  0.16500000000E+03 0.  0.
   -5000001    1    1    2    0    0  0.39495489462E+03  0.86210037231E+02 -0.79599056597E+02  0.44382716131E+03  0.16500000000E+03 0.  0.
<mgrwt>
<rscale>  0 0.94245119E+03</rscale>
<asrwt>0</asrwt>
<pdfrwt beam="1">  1        2 0.11984808E+00 0.94245119E+03</pdfrwt>
<pdfrwt beam="2">  1       -2 0.37812080E-01 0.94245119E+03</pdfrwt>
<totfact> 0.23558069E+02</totfact>
</mgrwt>
</event>
<event>
 4    1  0.5387486E-005  0.5377044E+03  0.7818608E-02  0.1004381E+00
         -2   -1    0    0    0  501 -0.00000000000E+00  0.00000000000E+00  0.11086797581E+03  0.11086797584E+03  0.25500000000E-02 0. -1.
          2   -1    0    0  501    0  0.00000000000E+00 -0.00000000000E+00 -0.65196009168E+03  0.65196009169E+03  0.25500000000E-02 0.  1.
    5000001    1    1    2    0    0 -0.11485267548E+03 -0.11772843315E+03 -0.46090977854E+03  0.51644355450E+03  0.16500000000E+03 0.  0.
   -5000001    1    1    2    0    0  0.11485267548E+03  0.11772843315E+03 -0.80182337339E+02  0.24638451302E+03  0.16500000000E+03 0.  0.
<mgrwt>
<rscale>  0 0.53770436E+03</rscale>
<asrwt>0</asrwt>
<pdfrwt beam="1">  1        2 0.93137154E-01 0.53770436E+03</pdfrwt>
<pdfrwt beam="2">  1       -2 0.15838283E-01 0.53770436E+03</pdfrwt>
<totfact> 0.15672740E+03</totfact>
</mgrwt>
</event>
<event>
 4    1  0.5387486E-005  0.3849240E+03  0.7818608E-02  0.1049129E+00
         -2   -1    0    0    0  501 -0.00000000000E+00  0.00000000000E+00  0.15664282989E+03  0.15664282991E+03  0.25500000000E-02 0. -1.
          2   -1    0    0  501    0  0.00000000000E+00 -0.00000000000E+00 -0.23647190879E+03  0.23647190880E+03  0.25500000000E-02 0.  1.
    5000001    1    1    2    0    0  0.10632630504E+02 -0.44524226595E+02  0.49825412546E+02  0.17833404420E+03  0.16500000000E+03 0.  0.
   -5000001    1    1    2    0    0 -0.10632630504E+02  0.44524226595E+02 -0.12965449144E+03  0.21478069451E+03  0.16500000000E+03 0.  0.
<mgrwt>
<rscale>  0 0.38492404E+03</rscale>
<asrwt>0</asrwt>
<pdfrwt beam="1">  1        2 0.33781701E-01 0.38492404E+03</pdfrwt>
<pdfrwt beam="2">  1       -2 0.22377547E-01 0.38492404E+03</pdfrwt>
<totfact> 0.26764631E+03</totfact>
</mgrwt>
</event>
<event>
 4    1  0.5387486E-005  0.7798722E+03  0.7818608E-02  0.9589617E-01
          2   -1    0    0  501    0  0.00000000000E+00  0.00000000000E+00  0.59835354646E+03  0.59835354646E+03  0.25500000000E-02 0.  1.
         -2   -1    0    0    0  501 -0.00000000000E+00 -0.00000000000E+00 -0.25411426331E+03  0.25411426333E+03  0.25500000000E-02 0. -1.
    5000001    1    1    2    0    0  0.19161766206E+03 -0.29523443825E+03  0.13852667740E+03  0.41266856228E+03  0.16500000000E+03 0.  0.
   -5000001    1    1    2    0    0 -0.19161766206E+03  0.29523443825E+03  0.20571260575E+03  0.43979924751E+03  0.16500000000E+03 0.  0.
<mgrwt>
<rscale>  0 0.77987222E+03</rscale>
<asrwt>0</asrwt>
<pdfrwt beam="1">  1        2 0.85479077E-01 0.77987222E+03</pdfrwt>
<pdfrwt beam="2">  1       -2 0.36302038E-01 0.77987222E+03</pdfrwt>
<totfact> 0.39053620E+02</totfact>
</mgrwt>
</event>
<event>
 4    1  0.5387486E-005  0.4745597E+03  0.7818608E-02  0.1020641E+00
         -2   -1    0    0    0  501 -0.00000000000E+00  0.00000000000E+00  0.30053882144E+03  0.30053882146E+03  0.25500000000E-02 0. -1.
          2   -1    0    0  501    0  0.00000000000E+00 -0.00000000000E+00 -0.18733593877E+03  0.18733593879E+03  0.25500000000E-02 0.  1.
    5000001    1    1    2    0    0 -0.13367499996E+02  0.16548767849E+03  0.16627831324E+02  0.23466219671E+03  0.16500000000E+03 0.  0.
   -5000001    1    1    2    0    0  0.13367499996E+02 -0.16548767849E+03  0.96575051352E+02  0.25321256353E+03  0.16500000000E+03 0.  0.
<mgrwt>
<rscale>  0 0.47455968E+03</rscale>
<asrwt>0</asrwt>
<pdfrwt beam="1">  1        2 0.26762277E-01 0.47455968E+03</pdfrwt>
<pdfrwt beam="2">  1       -2 0.42934117E-01 0.47455968E+03</pdfrwt>
<totfact> 0.10432214E+03</totfact>
</mgrwt>
</event>
<event>
 4    1  0.5387486E-005  0.5919898E+03  0.7818608E-02  0.9922166E-01
         -2   -1    0    0    0  501 -0.00000000000E+00  0.00000000000E+00  0.11964483798E+03  0.11964483800E+03  0.25500000000E-02 0. -1.
          2   -1    0    0  501    0  0.00000000000E+00 -0.00000000000E+00 -0.73227536415E+03  0.73227536415E+03  0.25500000000E-02 0.  1.
    5000001    1    1    2    0    0  0.17500408192E+03 -0.20055911914E+02 -0.55289510385E+03  0.60327992189E+03  0.16500000000E+03 0.  0.
   -5000001    1    1    2    0    0 -0.17500408192E+03  0.20055911914E+02 -0.59735422326E+02  0.24864028027E+03  0.16500000000E+03 0.  0.
<mgrwt>
<rscale>  0 0.59198975E+03</rscale>
<asrwt>0</asrwt>
<pdfrwt beam="1">  1        2 0.10461076E+00 0.59198975E+03</pdfrwt>
<pdfrwt beam="2">  1       -2 0.17092120E-01 0.59198975E+03</pdfrwt>
<totfact> 0.11949949E+03</totfact>
</mgrwt>
</event>
<event>
 4    1  0.5387486E-005  0.1077997E+04  0.7818608E-02  0.9226907E-01
          2   -1    0    0  501    0  0.00000000000E+00  0.00000000000E+00  0.22661866742E+03  0.22661866744E+03  0.25500000000E-02 0.  1.
         -2   -1    0    0    0  501 -0.00000000000E+00 -0.00000000000E+00 -0.12819737353E+04  0.12819737354E+04  0.25500000000E-02 0. -1.
    5000001    1    1    2    0    0  0.38893435948E+03  0.18384615014E+03 -0.13627210192E+03  0.48048353632E+03  0.16500000000E+03 0.  0.
   -5000001    1    1    2    0    0 -0.38893435948E+03 -0.18384615014E+03 -0.91908296601E+03  0.10281088665E+04  0.16500000000E+03 0.  0.
<mgrwt>
<rscale>  0 0.10779966E+04</rscale>
<asrwt>0</asrwt>
<pdfrwt beam="1">  1        2 0.32374096E-01 0.10779966E+04</pdfrwt>
<pdfrwt beam="2">  1       -2 0.18313910E+00 0.10779966E+04</pdfrwt>
<totfact> 0.28024435E+01</totfact>
</mgrwt>
</event>
<event>
 4    1  0.5387486E-005  0.6590173E+03  0.7818608E-02  0.9790004E-01
          2   -1    0    0  501    0  0.00000000000E+00  0.00000000000E+00  0.33322604933E+03  0.33322604934E+03  0.25500000000E-02 0.  1.
         -2   -1    0    0    0  501 -0.00000000000E+00 -0.00000000000E+00 -0.32583276339E+03  0.32583276340E+03  0.25500000000E-02 0. -1.
    5000001    1    1    2    0    0 -0.27657423920E+03  0.65318332438E+02  0.28012163822E+02  0.32980217656E+03  0.16500000000E+03 0.  0.
   -5000001    1    1    2    0    0  0.27657423920E+03 -0.65318332438E+02 -0.20618877880E+02  0.32925663618E+03  0.16500000000E+03 0.  0.
<mgrwt>
<rscale>  0 0.65901734E+03</rscale>
<asrwt>0</asrwt>
<pdfrwt beam="1">  1        2 0.47603721E-01 0.65901734E+03</pdfrwt>
<pdfrwt beam="2">  1       -2 0.46547538E-01 0.65901734E+03</pdfrwt>
<totfact> 0.46777718E+02</totfact>
</mgrwt>
</event>
<event>
 4    1  0.5387486E-005  0.4444724E+03  0.7818608E-02  0.1029383E+00
          2   -1    0    0  501    0  0.00000000000E+00  0.00000000000E+00  0.24735616385E+03  0.24735616386E+03  0.25500000000E-02 0.  1.
         -2   -1    0    0    0  501 -0.00000000000E+00 -0.00000000000E+00 -0.19966723721E+03  0.19966723723E+03  0.25500000000E-02 0. -1.
    5000001    1    1    2    0    0  0.43292360374E+02 -0.35318830930E+02  0.16263021756E+03  0.23831751079E+03  0.16500000000E+03 0.  0.
   -5000001    1    1    2    0    0 -0.43292360374E+02  0.35318830930E+02 -0.11494129093E+03  0.20870589030E+03  0.16500000000E+03 0.  0.
<mgrwt>
<rscale>  0 0.44447237E+03</rscale>
<asrwt>0</asrwt>
<pdfrwt beam="1">  1        2 0.35336595E-01 0.44447237E+03</pdfrwt>
<pdfrwt beam="2">  1       -2 0.28523891E-01 0.44447237E+03</pdfrwt>
<totfact> 0.16549558E+03</totfact>
</mgrwt>
</event>
<event>
 4    1  0.5387486E-005  0.8909509E+03  0.7818608E-02  0.9436965E-01
          2   -1    0    0  501    0  0.00000000000E+00  0.00000000000E+00  0.71364679872E+03  0.71364679873E+03  0.25500000000E-02 0.  1.
         -2   -1    0    0    0  501 -0.00000000000E+00 -0.00000000000E+00 -0.27807643072E+03  0.27807643073E+03  0.25500000000E-02 0. -1.
    5000001    1    1    2    0    0  0.39280503025E+03  0.12910946606E+03  0.19989535653E+03  0.48800430282E+03  0.16500000000E+03 0.  0.
   -5000001    1    1    2    0    0 -0.39280503025E+03 -0.12910946606E+03  0.23567501148E+03  0.50371892663E+03  0.16500000000E+03 0.  0.
<mgrwt>
<rscale>  0 0.89095085E+03</rscale>
<asrwt>0</asrwt>
<pdfrwt beam="1">  1        2 0.10194954E+00 0.89095085E+03</pdfrwt>
<pdfrwt beam="2">  1       -2 0.39725205E-01 0.89095085E+03</pdfrwt>
<totfact> 0.26385694E+02</totfact>
</mgrwt>
</event>
<event>
 4    1  0.5387486E-005  0.9010681E+03  0.7818608E-02  0.9424247E-01
          2   -1    0    0  501    0  0.00000000000E+00  0.00000000000E+00  0.73626796603E+03  0.73626796603E+03  0.25500000000E-02 0. -1.
         -2   -1    0    0    0  501 -0.00000000000E+00 -0.00000000000E+00 -0.27568891039E+03  0.27568891040E+03  0.25500000000E-02 0.  1.
    5000001    1    1    2    0    0  0.32886112927E+03 -0.25834618540E+03  0.26329154396E+03  0.52099887810E+03  0.16500000000E+03 0.  0.
   -5000001    1    1    2    0    0 -0.32886112927E+03  0.25834618540E+03  0.19728751168E+03  0.49095799833E+03  0.16500000000E+03 0.  0.
<mgrwt>
<rscale>  0 0.90106806E+03</rscale>
<asrwt>0</asrwt>
<pdfrwt beam="1">  1        2 0.10518114E+00 0.90106806E+03</pdfrwt>
<pdfrwt beam="2">  1       -2 0.39384130E-01 0.90106806E+03</pdfrwt>
<totfact> 0.25794365E+02</totfact>
</mgrwt>
</event>
<event>
 4    1  0.5387486E-005  0.5978722E+03  0.7818608E-02  0.9909830E-01
          2   -1    0    0  501    0  0.00000000000E+00  0.00000000000E+00  0.14882661927E+04  0.14882661927E+04  0.25500000000E-02 0.  1.
         -2   -1    0    0    0  501 -0.00000000000E+00 -0.00000000000E+00 -0.60044905083E+02  0.60044905137E+02  0.25500000000E-02 0. -1.
    5000001    1    1    2    0    0 -0.18027233938E+03 -0.52962302350E+02  0.28988388797E+03  0.38283258785E+03  0.16500000000E+03 0.  0.
   -5000001    1    1    2    0    0  0.18027233938E+03  0.52962302350E+02  0.11383373996E+04  0.11654785100E+04  0.16500000000E+03 0.  0.
<mgrwt>
<rscale>  0 0.59787223E+03</rscale>
<asrwt>0</asrwt>
<pdfrwt beam="1">  1        2 0.21260944E+00 0.59787223E+03</pdfrwt>
<pdfrwt beam="2">  1       -2 0.85778444E-02 0.59787223E+03</pdfrwt>
<totfact> 0.13232912E+03</totfact>
</mgrwt>
</event>
<event>
 4    1  0.5387486E-005  0.5718732E+03  0.7818608E-02  0.9965542E-01
          2   -1    0    0  501    0  0.00000000000E+00  0.00000000000E+00  0.28941963026E+04  0.28941963026E+04  0.25500000000E-02 0.  1.
         -2   -1    0    0    0  501 -0.00000000000E+00 -0.00000000000E+00 -0.28249548598E+02  0.28249548713E+02  0.25500000000E-02 0. -1.
    5000001    1    1    2    0    0 -0.11570418148E+03  0.20281086322E+03  0.14527888529E+04  0.14806553127E+04  0.16500000000E+03 0.  0.
   -5000001    1    1    2    0    0  0.11570418148E+03 -0.20281086322E+03  0.14131579011E+04  0.14417905387E+04  0.16500000000E+03 0.  0.
<mgrwt>
<rscale>  0 0.57187320E+03</rscale>
<asrwt>0</asrwt>
<pdfrwt beam="1">  1        2 0.41345669E+00 0.57187320E+03</pdfrwt>
<pdfrwt beam="2">  1       -2 0.40356490E-02 0.57187320E+03</pdfrwt>
<totfact> 0.82401136E+02</totfact>
</mgrwt>
</event>
<event>
 4    1  0.5387486E-005  0.1033282E+04  0.7818608E-02  0.9272776E-01
         -2   -1    0    0    0  501 -0.00000000000E+00  0.00000000000E+00  0.16340680130E+03  0.16340680132E+03  0.25500000000E-02 0. -1.
          2   -1    0    0  501    0  0.00000000000E+00 -0.00000000000E+00 -0.16334580406E+04  0.16334580406E+04  0.25500000000E-02 0.  1.
    5000001    1    1    2    0    0  0.27411065999E+03  0.40565362654E+03 -0.73724910492E+03  0.90025149894E+03  0.16500000000E+03 0.  0.
   -5000001    1    1    2    0    0 -0.27411065999E+03 -0.40565362654E+03 -0.73280213436E+03  0.89661334295E+03  0.16500000000E+03 0.  0.
<mgrwt>
<rscale>  0 0.10332824E+04</rscale>
<asrwt>0</asrwt>
<pdfrwt beam="1">  1        2 0.23335114E+00 0.10332824E+04</pdfrwt>
<pdfrwt beam="2">  1       -2 0.23343830E-01 0.10332824E+04</pdfrwt>
<totfact> 0.20076389E+02</totfact>
</mgrwt>
</event>
<event>
 4    1  0.5387486E-005  0.5871948E+03  0.7818608E-02  0.9932335E-01
          2   -1    0    0  501    0  0.00000000000E+00  0.00000000000E+00  0.84481374886E+03  0.84481374887E+03  0.25500000000E-02 0.  1.
         -2   -1    0    0    0  501 -0.00000000000E+00 -0.00000000000E+00 -0.10203365268E+03  0.10203365271E+03  0.25500000000E-02 0. -1.
    5000001    1    1    2    0    0  0.21185110961E+03 -0.89060253303E+02  0.24481386685E+03  0.37412758621E+03  0.16500000000E+03 0.  0.
   -5000001    1    1    2    0    0 -0.21185110961E+03  0.89060253303E+02  0.49796622934E+03  0.57271981537E+03  0.16500000000E+03 0.  0.
<mgrwt>
<rscale>  0 0.58719480E+03</rscale>
<asrwt>0</asrwt>
<pdfrwt beam="1">  1        2 0.12068768E+00 0.58719480E+03</pdfrwt>
<pdfrwt beam="2">  1       -2 0.14576236E-01 0.58719480E+03</pdfrwt>
<totfact> 0.13048580E+03</totfact>
</mgrwt>
</event>
<event>
 4    1  0.5387486E-005  0.4685527E+03  0.7818608E-02  0.1022330E+00
          2   -1    0    0  501    0  0.00000000000E+00  0.00000000000E+00  0.13067248059E+03  0.13067248062E+03  0.25500000000E-02 0.  1.
         -2   -1    0    0    0  501 -0.00000000000E+00 -0.00000000000E+00 -0.42002264271E+03  0.42002264272E+03  0.25500000000E-02 0. -1.
    5000001    1    1    2    0    0 -0.13309781010E+03  0.97294327620E+02 -0.11894711172E+03  0.26182938839E+03  0.16500000000E+03 0.  0.
   -5000001    1    1    2    0    0  0.13309781010E+03 -0.97294327620E+02 -0.17040305040E+03  0.28886573494E+03  0.16500000000E+03 0.  0.
<mgrwt>
<rscale>  0 0.46855267E+03</rscale>
<asrwt>0</asrwt>
<pdfrwt beam="1">  1        2 0.18667497E-01 0.46855267E+03</pdfrwt>
<pdfrwt beam="2">  1       -2 0.60003234E-01 0.46855267E+03</pdfrwt>
<totfact> 0.80168183E+02</totfact>
</mgrwt>
</event>
<event>
 4    1  0.5387486E-005  0.4263843E+03  0.7818608E-02  0.1035008E+00
         -2   -1    0    0    0  501 -0.00000000000E+00  0.00000000000E+00  0.27671419375E+03  0.27671419376E+03  0.25500000000E-02 0. -1.
          2   -1    0    0  501    0  0.00000000000E+00 -0.00000000000E+00 -0.16425208354E+03  0.16425208356E+03  0.25500000000E-02 0.  1.
    5000001    1    1    2    0    0 -0.41379812590E+02 -0.11470068490E+03 -0.36931562790E+01  0.20520032995E+03  0.16500000000E+03 0.  0.
   -5000001    1    1    2    0    0  0.41379812590E+02  0.11470068490E+03  0.11615526649E+03  0.23576594737E+03  0.16500000000E+03 0.  0.
<mgrwt>
<rscale>  0 0.42638425E+03</rscale>
<asrwt>0</asrwt>
<pdfrwt beam="1">  1        2 0.23464583E-01 0.42638425E+03</pdfrwt>
<pdfrwt beam="2">  1       -2 0.39530599E-01 0.42638425E+03</pdfrwt>
<totfact> 0.14206858E+03</totfact>
</mgrwt>
</event>
<event>
 4    1  0.5387486E-005  0.3805106E+03  0.7818608E-02  0.1050745E+00
         -2   -1    0    0    0  501 -0.00000000000E+00  0.00000000000E+00  0.77951740738E+02  0.77951740780E+02  0.25500000000E-02 0. -1.
          2   -1    0    0  501    0  0.00000000000E+00 -0.00000000000E+00 -0.46435253025E+03  0.46435253025E+03  0.25500000000E-02 0.  1.
    5000001    1    1    2    0    0 -0.55659624879E+02 -0.74187556896E+02 -0.22062582396E+03  0.29069320879E+03  0.16500000000E+03 0.  0.
   -5000001    1    1    2    0    0  0.55659624879E+02  0.74187556896E+02 -0.16577496555E+03  0.25161106224E+03  0.16500000000E+03 0.  0.
<mgrwt>
<rscale>  0 0.38051065E+03</rscale>
<asrwt>0</asrwt>
<pdfrwt beam="1">  1        2 0.66336074E-01 0.38051065E+03</pdfrwt>
<pdfrwt beam="2">  1       -2 0.11135963E-01 0.38051065E+03</pdfrwt>
<totfact> 0.41258705E+03</totfact>
</mgrwt>
</event>
<event>
 4    1  0.5387486E-005  0.4734389E+03  0.7818608E-02  0.1020954E+00
         -2   -1    0    0    0  501 -0.00000000000E+00  0.00000000000E+00  0.28080547051E+02  0.28080547167E+02  0.25500000000E-02 0. -1.
          2   -1    0    0  501    0  0.00000000000E+00 -0.00000000000E+00 -0.19955487787E+04  0.19955487787E+04  0.25500000000E-02 0.  1.
    5000001    1    1    2    0    0 -0.79449134971E+02 -0.12229478839E+03 -0.61250947398E+03  0.65089249191E+03  0.16500000000E+03 0.  0.
   -5000001    1    1    2    0    0  0.79449134971E+02  0.12229478839E+03 -0.13549587577E+04  0.13727368340E+04  0.16500000000E+03 0.  0.
<mgrwt>
<rscale>  0 0.47343891E+03</rscale>
<asrwt>0</asrwt>
<pdfrwt beam="1">  1        2 0.28507831E+00 0.47343891E+03</pdfrwt>
<pdfrwt beam="2">  1       -2 0.40115080E-02 0.47343891E+03</pdfrwt>
<totfact> 0.24103285E+03</totfact>
</mgrwt>
</event>
<event>
 4    1  0.5387486E-005  0.5962882E+03  0.7818608E-02  0.9913137E-01
         -2   -1    0    0    0  501 -0.00000000000E+00  0.00000000000E+00  0.36612257920E+02  0.36612258008E+02  0.25500000000E-02 0. -1.
          2   -1    0    0  501    0  0.00000000000E+00 -0.00000000000E+00 -0.24278731358E+04  0.24278731358E+04  0.25500000000E-02 0.  1.
    5000001    1    1    2    0    0  0.14690762862E+03 -0.40277807732E+02 -0.38508203108E+03  0.44577721319E+03  0.16500000000E+03 0.  0.
   -5000001    1    1    2    0    0 -0.14690762862E+03  0.40277807732E+02 -0.20061788468E+04  0.20187081807E+04  0.16500000000E+03 0.  0.
<mgrwt>
<rscale>  0 0.59628824E+03</rscale>
<asrwt>0</asrwt>
<pdfrwt beam="1">  1        2 0.34683892E+00 0.59628824E+03</pdfrwt>
<pdfrwt beam="2">  1       -2 0.52303241E-02 0.59628824E+03</pdfrwt>
<totfact> 0.96433479E+02</totfact>
</mgrwt>
</event>
<event>
 4    1  0.5387486E-005  0.5546260E+03  0.7818608E-02  0.1000429E+00
         -2   -1    0    0    0  501 -0.00000000000E+00  0.00000000000E+00  0.55746637448E+02  0.55746637506E+02  0.25500000000E-02 0. -1.
          2   -1    0    0  501    0  0.00000000000E+00 -0.00000000000E+00 -0.13795003820E+04  0.13795003820E+04  0.25500000000E-02 0.  1.
    5000001    1    1    2    0    0 -0.13921646305E+03  0.16295369856E+03 -0.50356986798E+03  0.57161415605E+03  0.16500000000E+03 0.  0.
   -5000001    1    1    2    0    0  0.13921646305E+03 -0.16295369856E+03 -0.82018387657E+03  0.86363286346E+03  0.16500000000E+03 0.  0.
<mgrwt>
<rscale>  0 0.55462603E+03</rscale>
<asrwt>0</asrwt>
<pdfrwt beam="1">  1        2 0.19707146E+00 0.55462603E+03</pdfrwt>
<pdfrwt beam="2">  1       -2 0.79638062E-02 0.55462603E+03</pdfrwt>
<totfact> 0.17021943E+03</totfact>
</mgrwt>
</event>
<event>
 4    1  0.5387486E-005  0.4745662E+03  0.7818608E-02  0.1020639E+00
         -2   -1    0    0    0  501 -0.00000000000E+00  0.00000000000E+00  0.11917021069E+03  0.11917021072E+03  0.25500000000E-02 0. -1.
          2   -1    0    0  501    0  0.00000000000E+00 -0.00000000000E+00 -0.47246103656E+03  0.47246103657E+03  0.25500000000E-02 0.  1.
    5000001    1    1    2    0    0  0.15964890041E+02  0.16971030680E+03 -0.17082256884E+03  0.29233852974E+03  0.16500000000E+03 0.  0.
   -5000001    1    1    2    0    0 -0.15964890041E+02 -0.16971030680E+03 -0.18246825704E+03  0.29929271754E+03  0.16500000000E+03 0.  0.
<mgrwt>
<rscale>  0 0.47456625E+03</rscale>
<asrwt>0</asrwt>
<pdfrwt beam="1">  1        2 0.67494433E-01 0.47456625E+03</pdfrwt>
<pdfrwt beam="2">  1       -2 0.17024316E-01 0.47456625E+03</pdfrwt>
<totfact> 0.20100404E+03</totfact>
</mgrwt>
</event>
<event>
 4    1  0.5387486E-005  0.5057463E+03  0.7818608E-02  0.1012290E+00
         -2   -1    0    0    0  501 -0.00000000000E+00  0.00000000000E+00  0.11744113911E+03  0.11744113914E+03  0.25500000000E-02 0. -1.
          2   -1    0    0  501    0  0.00000000000E+00 -0.00000000000E+00 -0.54448412083E+03  0.54448412084E+03  0.25500000000E-02 0.  1.
    5000001    1    1    2    0    0 -0.16624853586E+03  0.37748078517E+02 -0.32804295518E+03  0.40484648146E+03  0.16500000000E+03 0.  0.
   -5000001    1    1    2    0    0  0.16624853586E+03 -0.37748078517E+02 -0.99000026547E+02  0.25707877852E+03  0.16500000000E+03 0.  0.
<mgrwt>
<rscale>  0 0.50574632E+03</rscale>
<asrwt>0</asrwt>
<pdfrwt beam="1">  1        2 0.77783444E-01 0.50574632E+03</pdfrwt>
<pdfrwt beam="2">  1       -2 0.16777306E-01 0.50574632E+03</pdfrwt>
<totfact> 0.17550942E+03</totfact>
</mgrwt>
</event>
<event>
 4    1  0.5387486E-005  0.5428764E+03  0.7818608E-02  0.1003156E+00
          2   -1    0    0  501    0  0.00000000000E+00  0.00000000000E+00  0.28050826491E+02  0.28050826607E+02  0.25500000000E-02 0. -1.
         -2   -1    0    0    0  501 -0.00000000000E+00 -0.00000000000E+00 -0.26266137755E+04  0.26266137755E+04  0.25500000000E-02 0.  1.
    5000001    1    1    2    0    0  0.55891714014E+02 -0.16120802553E+03 -0.65532648564E+03  0.69698616484E+03  0.16500000000E+03 0.  0.
   -5000001    1    1    2    0    0 -0.55891714014E+02  0.16120802553E+03 -0.19432364634E+04  0.19576784373E+04  0.16500000000E+03 0.  0.
<mgrwt>
<rscale>  0 0.54287637E+03</rscale>
<asrwt>0</asrwt>
<pdfrwt beam="1">  1        2 0.40072626E-02 0.54287637E+03</pdfrwt>
<pdfrwt beam="2">  1       -2 0.37523038E+00 0.54287637E+03</pdfrwt>
<totfact> 0.26145981E+01</totfact>
</mgrwt>
</event>
<event>
 4    1  0.5387486E-005  0.5510850E+03  0.7818608E-02  0.1001243E+00
          2   -1    0    0  501    0  0.00000000000E+00  0.00000000000E+00  0.25995553325E+03  0.25995553326E+03  0.25500000000E-02 0.  1.
         -2   -1    0    0    0  501 -0.00000000000E+00 -0.00000000000E+00 -0.29206402014E+03  0.29206402015E+03  0.25500000000E-02 0. -1.
    5000001    1    1    2    0    0  0.20417116604E+03 -0.77149986173E+02 -0.48677446430E+02  0.27790732124E+03  0.16500000000E+03 0.  0.
   -5000001    1    1    2    0    0 -0.20417116604E+03  0.77149986173E+02  0.16568959535E+02  0.27411223218E+03  0.16500000000E+03 0.  0.
<mgrwt>
<rscale>  0 0.55108496E+03</rscale>
<asrwt>0</asrwt>
<pdfrwt beam="1">  1        2 0.37136505E-01 0.55108496E+03</pdfrwt>
<pdfrwt beam="2">  1       -2 0.41723432E-01 0.55108496E+03</pdfrwt>
<totfact> 0.76537961E+02</totfact>
</mgrwt>
</event>
<event>
 4    1  0.5387486E-005  0.6278912E+03  0.7818608E-02  0.9849173E-01
          2   -1    0    0  501    0  0.00000000000E+00  0.00000000000E+00  0.18349721177E+04  0.18349721177E+04  0.25500000000E-02 0.  1.
         -2   -1    0    0    0  501 -0.00000000000E+00 -0.00000000000E+00 -0.53712996982E+02  0.53712997042E+02  0.25500000000E-02 0. -1.
    5000001    1    1    2    0    0 -0.26633484055E+03 -0.18305073731E+02  0.91534793112E+03  0.96765497881E+03  0.16500000000E+03 0.  0.
   -5000001    1    1    2    0    0  0.26633484055E+03  0.18305073731E+02  0.86591118957E+03  0.92103013590E+03  0.16500000000E+03 0.  0.
<mgrwt>
<rscale>  0 0.62789124E+03</rscale>
<asrwt>0</asrwt>
<pdfrwt beam="1">  1        2 0.26213883E+00 0.62789124E+03</pdfrwt>
<pdfrwt beam="2">  1       -2 0.76732865E-02 0.62789124E+03</pdfrwt>
<totfact> 0.10493374E+03</totfact>
</mgrwt>
</event>
<event>
 4    1  0.5387486E-005  0.7669596E+03  0.7818608E-02  0.9609113E-01
          2   -1    0    0  501    0  0.00000000000E+00  0.00000000000E+00  0.58305977239E+03  0.58305977240E+03  0.25500000000E-02 0.  1.
         -2   -1    0    0    0  501 -0.00000000000E+00 -0.00000000000E+00 -0.25221555129E+03  0.25221555130E+03  0.25500000000E-02 0. -1.
    5000001    1    1    2    0    0 -0.32316418458E+03  0.12353188159E+03  0.15269690446E+03  0.41259733469E+03  0.16500000000E+03 0.  0.
   -5000001    1    1    2    0    0  0.32316418458E+03 -0.12353188159E+03  0.17814731664E+03  0.42267798901E+03  0.16500000000E+03 0.  0.
<mgrwt>
<rscale>  0 0.76695956E+03</rscale>
<asrwt>0</asrwt>
<pdfrwt beam="1">  1        2 0.83294254E-01 0.76695956E+03</pdfrwt>
<pdfrwt beam="2">  1       -2 0.36030793E-01 0.76695956E+03</pdfrwt>
<totfact> 0.40866088E+02</totfact>
</mgrwt>
</event>
<event>
 4    1  0.5387486E-005  0.4219979E+03  0.7818608E-02  0.1036418E+00
          2   -1    0    0  501    0  0.00000000000E+00  0.00000000000E+00  0.12087416821E+04  0.12087416821E+04  0.25500000000E-02 0.  1.
         -2   -1    0    0    0  501 -0.00000000000E+00 -0.00000000000E+00 -0.36832146028E+02  0.36832146116E+02  0.25500000000E-02 0. -1.
    5000001    1    1    2    0    0 -0.56970057999E+02 -0.10273001165E+03  0.76048732170E+03  0.78699746458E+03  0.16500000000E+03 0.  0.
   -5000001    1    1    2    0    0  0.56970057999E+02  0.10273001165E+03  0.41142221438E+03  0.45857636364E+03  0.16500000000E+03 0.  0.
<mgrwt>
<rscale>  0 0.42199787E+03</rscale>
<asrwt>0</asrwt>
<pdfrwt beam="1">  1        2 0.17267736E+00 0.42199787E+03</pdfrwt>
<pdfrwt beam="2">  1       -2 0.52617358E-02 0.42199787E+03</pdfrwt>
<totfact> 0.40324713E+03</totfact>
</mgrwt>
</event>
<event>
 4    1  0.5387486E-005  0.4679624E+03  0.7818608E-02  0.1022497E+00
          2   -1    0    0  501    0  0.00000000000E+00  0.00000000000E+00  0.11380093615E+04  0.11380093615E+04  0.25500000000E-02 0.  1.
         -2   -1    0    0    0  501 -0.00000000000E+00 -0.00000000000E+00 -0.48107863675E+02  0.48107863742E+02  0.25500000000E-02 0. -1.
    5000001    1    1    2    0    0 -0.15192216114E+03  0.52065963497E+02  0.65040501467E+03  0.68995861521E+03  0.16500000000E+03 0.  0.
   -5000001    1    1    2    0    0  0.15192216114E+03 -0.52065963497E+02  0.43949648316E+03  0.49615861003E+03  0.16500000000E+03 0.  0.
<mgrwt>
<rscale>  0 0.46796239E+03</rscale>
<asrwt>0</asrwt>
<pdfrwt beam="1">  1        2 0.16257277E+00 0.46796239E+03</pdfrwt>
<pdfrwt beam="2">  1       -2 0.68725519E-02 0.46796239E+03</pdfrwt>
<totfact> 0.29167756E+03</totfact>
</mgrwt>
</event>
<event>
 4    1  0.5387486E-005  0.4640045E+03  0.7818608E-02  0.1023626E+00
          2   -1    0    0  501    0  0.00000000000E+00  0.00000000000E+00  0.12748786276E+04  0.12748786276E+04  0.25500000000E-02 0. -1.
         -2   -1    0    0    0  501 -0.00000000000E+00 -0.00000000000E+00 -0.42219739774E+02  0.42219739851E+02  0.25500000000E-02 0.  1.
    5000001    1    1    2    0    0 -0.11980174139E+03 -0.64006371320E+02  0.36006086013E+03  0.41871003787E+03  0.16500000000E+03 0.  0.
   -5000001    1    1    2    0    0  0.11980174139E+03  0.64006371320E+02  0.87259802772E+03  0.89838832962E+03  0.16500000000E+03 0.  0.
<mgrwt>
<rscale>  0 0.46400450E+03</rscale>
<asrwt>0</asrwt>
<pdfrwt beam="1">  1        2 0.18212549E+00 0.46400450E+03</pdfrwt>
<pdfrwt beam="2">  1       -2 0.60313924E-02 0.46400450E+03</pdfrwt>
<totfact> 0.30038322E+03</totfact>
</mgrwt>
</event>
<event>
 4    1  0.5387486E-005  0.3899701E+03  0.7818608E-02  0.1047309E+00
          2   -1    0    0  501    0  0.00000000000E+00  0.00000000000E+00  0.30435025710E+04  0.30435025710E+04  0.25500000000E-02 0.  1.
         -2   -1    0    0    0  501 -0.00000000000E+00 -0.00000000000E+00 -0.12491910238E+02  0.12491910499E+02  0.25500000000E-02 0. -1.
    5000001    1    1    2    0    0  0.89548105448E+02 -0.43314997868E+02  0.12805271698E+04  0.12949401086E+04  0.16500000000E+03 0.  0.
   -5000001    1    1    2    0    0 -0.89548105448E+02  0.43314997868E+02  0.17504834910E+04  0.17610543730E+04  0.16500000000E+03 0.  0.
<mgrwt>
<rscale>  0 0.38997006E+03</rscale>
<asrwt>0</asrwt>
<pdfrwt beam="1">  1        2 0.43478630E+00 0.38997006E+03</pdfrwt>
<pdfrwt beam="2">  1       -2 0.17845577E-02 0.38997006E+03</pdfrwt>
<totfact> 0.23806765E+03</totfact>
</mgrwt>
</event>
<event>
 4    1  0.5387486E-005  0.4010735E+03  0.7818608E-02  0.1043409E+00
          2   -1    0    0  501    0  0.00000000000E+00  0.00000000000E+00  0.68659618541E+03  0.68659618542E+03  0.25500000000E-02 0. -1.
         -2   -1    0    0    0  501 -0.00000000000E+00 -0.00000000000E+00 -0.58571542232E+02  0.58571542288E+02  0.25500000000E-02 0.  1.
    5000001    1    1    2    0    0 -0.41062036228E+01 -0.10732207589E+03  0.24313982615E+03  0.31285278318E+03  0.16500000000E+03 0.  0.
   -5000001    1    1    2    0    0  0.41062036228E+01  0.10732207589E+03  0.38488481703E+03  0.43231494453E+03  0.16500000000E+03 0.  0.
<mgrwt>
<rscale>  0 0.40107355E+03</rscale>
<asrwt>0</asrwt>
<pdfrwt beam="1">  1        2 0.98085170E-01 0.40107355E+03</pdfrwt>
<pdfrwt beam="2">  1       -2 0.83673631E-02 0.40107355E+03</pdfrwt>
<totfact> 0.41654907E+03</totfact>
</mgrwt>
</event>
<event>
 4    1  0.5387486E-005  0.4901838E+03  0.7818608E-02  0.1016373E+00
          2   -1    0    0  501    0  0.00000000000E+00  0.00000000000E+00  0.66909139514E+03  0.66909139514E+03  0.25500000000E-02 0.  1.
         -2   -1    0    0    0  501 -0.00000000000E+00 -0.00000000000E+00 -0.89778519651E+02  0.89778519687E+02  0.25500000000E-02 0. -1.
    5000001    1    1    2    0    0  0.22182040197E+02  0.16898992044E+03  0.19428087592E+03  0.30662631144E+03  0.16500000000E+03 0.  0.
   -5000001    1    1    2    0    0 -0.22182040197E+02 -0.16898992044E+03  0.38503199956E+03  0.45224360339E+03  0.16500000000E+03 0.  0.
<mgrwt>
<rscale>  0 0.49018378E+03</rscale>
<asrwt>0</asrwt>
<pdfrwt beam="1">  1        2 0.95584482E-01 0.49018378E+03</pdfrwt>
<pdfrwt beam="2">  1       -2 0.12825503E-01 0.49018378E+03</pdfrwt>
<totfact> 0.21604213E+03</totfact>
</mgrwt>
</event>
<event>
 4    1  0.5387486E-005  0.6323882E+03  0.7818608E-02  0.9840399E-01
          2   -1    0    0  501    0  0.00000000000E+00  0.00000000000E+00  0.94176535373E+03  0.94176535373E+03  0.25500000000E-02 0.  1.
         -2   -1    0    0    0  501 -0.00000000000E+00 -0.00000000000E+00 -0.10616095037E+03  0.10616095040E+03  0.25500000000E-02 0. -1.
    5000001    1    1    2    0    0  0.10830494982E+03  0.24180611946E+03  0.33406496657E+03  0.45719204220E+03  0.16500000000E+03 0.  0.
   -5000001    1    1    2    0    0 -0.10830494982E+03 -0.24180611946E+03  0.50153943679E+03  0.59073426193E+03  0.16500000000E+03 0.  0.
<mgrwt>
<rscale>  0 0.63238819E+03</rscale>
<asrwt>0</asrwt>
<pdfrwt beam="1">  1        2 0.13453790E+00 0.63238819E+03</pdfrwt>
<pdfrwt beam="2">  1       -2 0.15165851E-01 0.63238819E+03</pdfrwt>
<totfact> 0.10550181E+03</totfact>
</mgrwt>
</event>
<event>
 4    1  0.5387486E-005  0.6505789E+03  0.7818608E-02  0.9805693E-01
         -2   -1    0    0    0  501 -0.00000000000E+00  0.00000000000E+00  0.71413457000E+02  0.71413457046E+02  0.25500000000E-02 0. -1.
          2   -1    0    0  501    0  0.00000000000E+00 -0.00000000000E+00 -0.14816988202E+04  0.14816988202E+04  0.25500000000E-02 0.  1.
    5000001    1    1    2    0    0 -0.27424917990E+03  0.35895644357E+02 -0.81420559558E+03  0.87558943680E+03  0.16500000000E+03 0.  0.
   -5000001    1    1    2    0    0  0.27424917990E+03 -0.35895644357E+02 -0.59607976758E+03  0.67752284041E+03  0.16500000000E+03 0.  0.
<mgrwt>
<rscale>  0 0.65057893E+03</rscale>
<asrwt>0</asrwt>
<pdfrwt beam="1">  1        2 0.21167124E+00 0.65057893E+03</pdfrwt>
<pdfrwt beam="2">  1       -2 0.10201923E-01 0.65057893E+03</pdfrwt>
<totfact> 0.10062168E+03</totfact>
</mgrwt>
</event>
<event>
 4    1  0.5387486E-005  0.4058084E+03  0.7818608E-02  0.1041787E+00
         -2   -1    0    0    0  501 -0.00000000000E+00  0.00000000000E+00  0.54212443512E+02  0.54212443572E+02  0.25500000000E-02 0. -1.
          2   -1    0    0  501    0  0.00000000000E+00 -0.00000000000E+00 -0.75942170452E+03  0.75942170452E+03  0.25500000000E-02 0.  1.
    5000001    1    1    2    0    0 -0.49311679475E+02 -0.79008052534E+02 -0.20703774061E+03  0.28064842799E+03  0.16500000000E+03 0.  0.
   -5000001    1    1    2    0    0  0.49311679475E+02  0.79008052534E+02 -0.49817152039E+03  0.53298572010E+03  0.16500000000E+03 0.  0.
<mgrwt>
<rscale>  0 0.40580836E+03</rscale>
<asrwt>0</asrwt>
<pdfrwt beam="1">  1        2 0.10848881E+00 0.40580836E+03</pdfrwt>
<pdfrwt beam="2">  1       -2 0.77446352E-02 0.40580836E+03</pdfrwt>
<totfact> 0.41639112E+03</totfact>
</mgrwt>
</event>
<event>
 4    1  0.5387486E-005  0.3950353E+03  0.7818608E-02  0.1045512E+00
          2   -1    0    0  501    0  0.00000000000E+00  0.00000000000E+00  0.49909882801E+03  0.49909882801E+03  0.25500000000E-02 0.  1.
         -2   -1    0    0    0  501 -0.00000000000E+00 -0.00000000000E+00 -0.78167344605E+02  0.78167344646E+02  0.25500000000E-02 0. -1.
    5000001    1    1    2    0    0  0.99104217463E+02  0.51915461947E+01  0.27482334043E+03  0.33556141989E+03  0.16500000000E+03 0.  0.
   -5000001    1    1    2    0    0 -0.99104217463E+02 -0.51915461947E+01  0.14610814297E+03  0.24170475278E+03  0.16500000000E+03 0.  0.
<mgrwt>
<rscale>  0 0.39503534E+03</rscale>
<asrwt>0</asrwt>
<pdfrwt beam="1">  1        2 0.71299833E-01 0.39503534E+03</pdfrwt>
<pdfrwt beam="2">  1       -2 0.11166764E-01 0.39503534E+03</pdfrwt>
<totfact> 0.37927934E+03</totfact>
</mgrwt>
</event>
<event>
 4    1  0.5387486E-005  0.8066317E+03  0.7818608E-02  0.9550467E-01
         -2   -1    0    0    0  501 -0.00000000000E+00  0.00000000000E+00  0.65107262208E+02  0.65107262258E+02  0.25500000000E-02 0. -1.
          2   -1    0    0  501    0  0.00000000000E+00 -0.00000000000E+00 -0.24983949514E+04  0.24983949514E+04  0.25500000000E-02 0.  1.
    5000001    1    1    2    0    0 -0.36028720889E+03 -0.93304514798E+01 -0.14532894507E+04  0.15063761674E+04  0.16500000000E+03 0.  0.
   -5000001    1    1    2    0    0  0.36028720889E+03  0.93304514798E+01 -0.97999823849E+03  0.10571260463E+04  0.16500000000E+03 0.  0.
<mgrwt>
<rscale>  0 0.80663165E+03</rscale>
<asrwt>0</asrwt>
<pdfrwt beam="1">  1        2 0.35691350E+00 0.80663165E+03</pdfrwt>
<pdfrwt beam="2">  1       -2 0.93010390E-02 0.80663165E+03</pdfrwt>
<totfact> 0.35046987E+02</totfact>
</mgrwt>
</event>
<event>
 4    1  0.5387486E-005  0.5860034E+03  0.7818608E-02  0.9934878E-01
          2   -1    0    0  501    0  0.00000000000E+00  0.00000000000E+00  0.31029748129E+04  0.31029748129E+04  0.25500000000E-02 0. -1.
         -2   -1    0    0    0  501 -0.00000000000E+00 -0.00000000000E+00 -0.27666995002E+02  0.27666995120E+02  0.25500000000E-02 0.  1.
    5000001    1    1    2    0    0 -0.16999792073E+03  0.12403400586E+03  0.89787939453E+03  0.93685438291E+03  0.16500000000E+03 0.  0.
   -5000001    1    1    2    0    0  0.16999792073E+03 -0.12403400586E+03  0.21774284233E+04  0.21937874251E+04  0.16500000000E+03 0.  0.
<mgrwt>
<rscale>  0 0.58600337E+03</rscale>
<asrwt>0</asrwt>
<pdfrwt beam="1">  1        2 0.44328196E+00 0.58600337E+03</pdfrwt>
<pdfrwt beam="2">  1       -2 0.39524293E-02 0.58600337E+03</pdfrwt>
<totfact> 0.65428193E+02</totfact>
</mgrwt>
</event>
<event>
 4    1  0.5387486E-005  0.7606628E+03  0.7818608E-02  0.9618769E-01
          2   -1    0    0  501    0  0.00000000000E+00  0.00000000000E+00  0.58460739607E+03  0.58460739607E+03  0.25500000000E-02 0.  1.
         -2   -1    0    0    0  501 -0.00000000000E+00 -0.00000000000E+00 -0.24743436375E+03  0.24743436376E+03  0.25500000000E-02 0. -1.
    5000001    1    1    2    0    0  0.11568092606E+03 -0.28720023601E+03  0.32920165601E+03  0.48110786997E+03  0.16500000000E+03 0.  0.
   -5000001    1    1    2    0    0 -0.11568092606E+03  0.28720023601E+03  0.79713763041E+01  0.35093388987E+03  0.16500000000E+03 0.  0.
<mgrwt>
<rscale>  0 0.76066276E+03</rscale>
<asrwt>0</asrwt>
<pdfrwt beam="1">  1        2 0.83515342E-01 0.76066276E+03</pdfrwt>
<pdfrwt beam="2">  1       -2 0.35347766E-01 0.76066276E+03</pdfrwt>
<totfact> 0.42263402E+02</totfact>
</mgrwt>
</event>
<event>
 4    1  0.5387486E-005  0.5355360E+03  0.7818608E-02  0.1004898E+00
          2   -1    0    0  501    0  0.00000000000E+00  0.00000000000E+00  0.16866812595E+04  0.16866812595E+04  0.25500000000E-02 0.  1.
         -2   -1    0    0    0  501 -0.00000000000E+00 -0.00000000000E+00 -0.42509332628E+02  0.42509332704E+02  0.25500000000E-02 0. -1.
    5000001    1    1    2    0    0  0.17319175067E+03 -0.83707115966E+01  0.12096779634E+04  0.12331306607E+04  0.16500000000E+03 0.  0.
   -5000001    1    1    2    0    0 -0.17319175067E+03  0.83707115966E+01  0.43449396346E+03  0.49605993146E+03  0.16500000000E+03 0.  0.
<mgrwt>
<rscale>  0 0.53553597E+03</rscale>
<asrwt>0</asrwt>
<pdfrwt beam="1">  1        2 0.24095448E+00 0.53553597E+03</pdfrwt>
<pdfrwt beam="2">  1       -2 0.60727613E-02 0.53553597E+03</pdfrwt>
<totfact> 0.18107012E+03</totfact>
</mgrwt>
</event>
<event>
 4    1  0.5387486E-005  0.8179432E+03  0.7818608E-02  0.9534402E-01
         -2   -1    0    0    0  501 -0.00000000000E+00  0.00000000000E+00  0.24367856392E+03  0.24367856393E+03  0.25500000000E-02 0. -1.
          2   -1    0    0  501    0  0.00000000000E+00 -0.00000000000E+00 -0.68638690919E+03  0.68638690920E+03  0.25500000000E-02 0.  1.
    5000001    1    1    2    0    0 -0.23267577815E+03  0.22699835877E+03 -0.10560270701E+02  0.36469547836E+03  0.16500000000E+03 0.  0.
   -5000001    1    1    2    0    0  0.23267577815E+03 -0.22699835877E+03 -0.43214807458E+03  0.56536999477E+03  0.16500000000E+03 0.  0.
<mgrwt>
<rscale>  0 0.81794322E+03</rscale>
<asrwt>0</asrwt>
<pdfrwt beam="1">  1        2 0.98055272E-01 0.81794322E+03</pdfrwt>
<pdfrwt beam="2">  1       -2 0.34811224E-01 0.81794322E+03</pdfrwt>
<totfact> 0.35808525E+02</totfact>
</mgrwt>
</event>
<event>
 4    1  0.5387486E-005  0.5847811E+03  0.7818608E-02  0.9937493E-01
         -2   -1    0    0    0  501 -0.00000000000E+00  0.00000000000E+00  0.30568628435E+03  0.30568628436E+03  0.25500000000E-02 0. -1.
          2   -1    0    0  501    0  0.00000000000E+00 -0.00000000000E+00 -0.27967309104E+03  0.27967309105E+03  0.25500000000E-02 0.  1.
    5000001    1    1    2    0    0 -0.23565994817E+03  0.50063390453E+02 -0.20173699511E+01  0.29201202718E+03  0.16500000000E+03 0.  0.
   -5000001    1    1    2    0    0  0.23565994817E+03 -0.50063390453E+02  0.28030563258E+02  0.29334734823E+03  0.16500000000E+03 0.  0.
<mgrwt>
<rscale>  0 0.58478108E+03</rscale>
<asrwt>0</asrwt>
<pdfrwt beam="1">  1        2 0.39953299E-01 0.58478108E+03</pdfrwt>
<pdfrwt beam="2">  1       -2 0.43669469E-01 0.58478108E+03</pdfrwt>
<totfact> 0.64528926E+02</totfact>
</mgrwt>
</event>
<event>
 4    1  0.5387486E-005  0.1030720E+04  0.7818608E-02  0.9275479E-01
          2   -1    0    0  501    0  0.00000000000E+00  0.00000000000E+00  0.55254429217E+03  0.55254429217E+03  0.25500000000E-02 0.  1.
         -2   -1    0    0    0  501 -0.00000000000E+00 -0.00000000000E+00 -0.48067837769E+03  0.48067837769E+03  0.25500000000E-02 0. -1.
    5000001    1    1    2    0    0  0.33584170430E+03 -0.35276964024E+03  0.69704874395E+02  0.51896034428E+03  0.16500000000E+03 0.  0.
   -5000001    1    1    2    0    0 -0.33584170430E+03  0.35276964024E+03  0.21610400827E+01  0.51426232558E+03  0.16500000000E+03 0.  0.
<mgrwt>
<rscale>  0 0.10307203E+04</rscale>
<asrwt>0</asrwt>
<pdfrwt beam="1">  1        2 0.78934899E-01 0.10307203E+04</pdfrwt>
<pdfrwt beam="2">  1       -2 0.68668340E-01 0.10307203E+04</pdfrwt>
<totfact> 0.11565087E+02</totfact>
</mgrwt>
</event>
<event>
 4    1  0.5387486E-005  0.5662388E+03  0.7818608E-02  0.9978036E-01
          2   -1    0    0  501    0  0.00000000000E+00  0.00000000000E+00  0.31906308445E+04  0.31906308445E+04  0.25500000000E-02 0.  1.
         -2   -1    0    0    0  501 -0.00000000000E+00 -0.00000000000E+00 -0.25122487862E+02  0.25122487991E+02  0.25500000000E-02 0. -1.
    5000001    1    1    2    0    0 -0.75947245166E+02 -0.20424511852E+03  0.20019172752E+04  0.20204904922E+04  0.16500000000E+03 0.  0.
   -5000001    1    1    2    0    0  0.75947245166E+02  0.20424511852E+03  0.11635910815E+04  0.11952628403E+04  0.16500000000E+03 0.  0.
<mgrwt>
<rscale>  0 0.56623877E+03</rscale>
<asrwt>0</asrwt>
<pdfrwt beam="1">  1        2 0.45580472E+00 0.56623877E+03</pdfrwt>
<pdfrwt beam="2">  1       -2 0.35889244E-02 0.56623877E+03</pdfrwt>
<totfact> 0.67932280E+02</totfact>
</mgrwt>
</event>
<event>
 4    1  0.5387486E-005  0.3878108E+03  0.7818608E-02  0.1048084E+00
          2   -1    0    0  501    0  0.00000000000E+00  0.00000000000E+00  0.18495041032E+03  0.18495041034E+03  0.25500000000E-02 0.  1.
         -2   -1    0    0    0  501 -0.00000000000E+00 -0.00000000000E+00 -0.20329396462E+03  0.20329396464E+03  0.25500000000E-02 0. -1.
    5000001    1    1    2    0    0  0.94797842436E+02  0.13542453151E+02 -0.43913215671E+02  0.19576363165E+03  0.16500000000E+03 0.  0.
   -5000001    1    1    2    0    0 -0.94797842436E+02 -0.13542453151E+02  0.25569661371E+02  0.19248074332E+03  0.16500000000E+03 0.  0.
<mgrwt>
<rscale>  0 0.38781079E+03</rscale>
<asrwt>0</asrwt>
<pdfrwt beam="1">  1        2 0.26421487E-01 0.38781079E+03</pdfrwt>
<pdfrwt beam="2">  1       -2 0.29041995E-01 0.38781079E+03</pdfrwt>
<totfact> 0.22087202E+03</totfact>
</mgrwt>
</event>
