<event>
 8    2  0.4480234E-052  0.2060288E+04  0.7818608E-02  0.8578941E-01
          2   -1    0    0  501    0  0.00000000000E+00  0.00000000000E+00  0.42638131404E+04  0.42638131404E+04  0.25500000000E-02 0.  1.
         -2   -1    0    0    0  501 -0.00000000000E+00 -0.00000000000E+00 -0.24888441848E+03  0.24888441850E+03  0.25500000000E-02 0. -1.
    -200001    2    1    2    0    0  0.28494247842E+02 -0.82328432940E+03  0.18261300415E+04  0.20950090611E+04  0.61294618707E+03 0.  0.
   -5000001    2    3    3    0    0 -0.41201891494E+02 -0.62685840191E+03  0.17296617628E+04  0.18441150085E+04  0.11992205370E+03 0.  0.
     200001    1    1    2    0    0 -0.28494247842E+02  0.82328432940E+03  0.21887986804E+04  0.24176884978E+04  0.61300000000E+03 0.  1.
         13    1    4    4    0    0 -0.21930887101E+02 -0.33495113249E+03  0.75967586357E+03  0.83053034491E+03  0.10566000000E+00 0.  1.
    -200003    1    4    4    0    0 -0.19271004393E+02 -0.29190726942E+03  0.96998589919E+03  0.10135846635E+04  0.30000000000E+02 0.  1.
    -200000    1    3    3    0    0  0.69696139335E+02 -0.19642592749E+03  0.96468278748E+02  0.25089405260E+03  0.10100000000E+03 0. -1.
<mgrwt>
<rscale>  0 0.20602880E+04</rscale>
<asrwt>0</asrwt>
<pdfrwt beam="1">  1        2 0.60911610E+00 0.20602880E+04</pdfrwt>
<pdfrwt beam="2">  1       -2 0.35554921E-01 0.20602880E+04</pdfrwt>
<totfact> 0.25654841E+00</totfact>
</mgrwt>
</event>
<event>
 8    2  0.4480234E-052  0.1243135E+04  0.7818608E-02  0.9075917E-01
          2   -1    0    0  501    0  0.00000000000E+00  0.00000000000E+00  0.12931455120E+04  0.12931455120E+04  0.25500000000E-02 0. -1.
         -2   -1    0    0    0  501 -0.00000000000E+00 -0.00000000000E+00 -0.29876444915E+03  0.29876444916E+03  0.25500000000E-02 0.  1.
    -200001    2    1    2    0    0 -0.78929604348E+02 -0.27277116516E+02  0.56162954997E+03  0.83691539466E+03  0.61483794848E+03 0.  0.
   -5000001    2    3    3    0    0  0.22769022958E+02  0.71411305480E+02 -0.10284107666E+03  0.15003532573E+03  0.79475209734E+02 0.  0.
     200001    1    1    2    0    0  0.78929604348E+02  0.27277116516E+02  0.43275151286E+03  0.75499456648E+03  0.61300000000E+03 0.  1.
         13    1    4    4    0    0  0.44449374972E+02  0.35840900843E+02 -0.63218674251E+02  0.85187610875E+02  0.10566000000E+00 0.  1.
    -200003    1    4    4    0    0 -0.21680352014E+02  0.35570404638E+02 -0.39622402411E+02  0.64847714858E+02  0.30000000000E+02 0. -1.
    -200000    1    3    3    0    0 -0.10169862731E+03 -0.98688421997E+02  0.66447062664E+03  0.68688006893E+03  0.10100000000E+03 0.  1.
<mgrwt>
<rscale>  0 0.12431346E+04</rscale>
<asrwt>0</asrwt>
<pdfrwt beam="1">  1        2 0.18473507E+00 0.12431346E+04</pdfrwt>
<pdfrwt beam="2">  1       -2 0.42680635E-01 0.12431346E+04</pdfrwt>
<totfact> 0.96945980E+01</totfact>
</mgrwt>
</event>
<event>
 8    2  0.4480234E-052  0.1717465E+04  0.7818608E-02  0.8751466E-01
         -2   -1    0    0    0  501 -0.00000000000E+00  0.00000000000E+00  0.13032082162E+04  0.13032082162E+04  0.25500000000E-02 0. -1.
          2   -1    0    0  501    0  0.00000000000E+00 -0.00000000000E+00 -0.56585057036E+03  0.56585057036E+03  0.25500000000E-02 0.  1.
    -200001    2    1    2    0    0  0.16028669238E+03  0.56288942258E+03  0.21765556167E+03  0.87487792669E+03  0.61278145965E+03 0.  0.
   -5000001    2    3    3    0    0  0.91495141093E+02  0.63152004275E+03  0.30371065912E+03  0.71041236996E+03  0.72502728841E+02 0.  0.
     200001    1    1    2    0    0 -0.16028669238E+03 -0.56288942258E+03  0.51970208414E+03  0.99418085983E+03  0.61300000000E+03 0. -1.
         13    1    4    4    0    0  0.25698609247E+01  0.17439123430E+03  0.63987569596E+02  0.18577762786E+03  0.10566000000E+00 0.  1.
    -200003    1    4    4    0    0  0.88925280168E+02  0.45712880845E+03  0.23972308953E+03  0.52463474210E+03  0.30000000000E+02 0.  1.
    -200000    1    3    3    0    0  0.68791551284E+02 -0.68630620172E+02 -0.86055097453E+02  0.16446555673E+03  0.10100000000E+03 0.  1.
<mgrwt>
<rscale>  0 0.17174645E+04</rscale>
<asrwt>0</asrwt>
<pdfrwt beam="1">  1        2 0.80835796E-01 0.17174645E+04</pdfrwt>
<pdfrwt beam="2">  1       -2 0.18617260E+00 0.17174645E+04</pdfrwt>
<totfact> 0.91068882E+00</totfact>
</mgrwt>
</event>
<event>
 8    2  0.4480234E-052  0.1584863E+04  0.7818608E-02  0.8829901E-01
         -2   -1    0    0    0  501 -0.00000000000E+00  0.00000000000E+00  0.12654357528E+03  0.12654357530E+03  0.25500000000E-02 0. -1.
          2   -1    0    0  501    0  0.00000000000E+00 -0.00000000000E+00 -0.49623070093E+04  0.49623070093E+04  0.25500000000E-02 0.  1.
    -200001    2    1    2    0    0 -0.12314423516E+03  0.29732539405E+03 -0.36556772381E+04  0.37206622488E+04  0.61301273015E+03 0.  0.
   -5000001    2    3    3    0    0  0.14784228180E+03  0.27823136092E+03 -0.14085097139E+04  0.14548817747E+04  0.18306101123E+03 0.  0.
     200001    1    1    2    0    0  0.12314423516E+03 -0.29732539405E+03 -0.11800861959E+04  0.13681883358E+04  0.61300000000E+03 0. -1.
         13    1    4    4    0    0  0.59721990495E+02  0.71736859504E+02 -0.80276028537E+03  0.80816890567E+03  0.10566000000E+00 0.  1.
    -200003    1    4    4    0    0  0.88120291301E+02  0.20649450142E+03 -0.60574942850E+03  0.64671286904E+03  0.30000000000E+02 0.  1.
    -200000    1    3    3    0    0 -0.27098651695E+03  0.19094033125E+02 -0.22471675243E+04  0.22657804741E+04  0.10100000000E+03 0.  1.
<mgrwt>
<rscale>  0 0.15848635E+04</rscale>
<asrwt>0</asrwt>
<pdfrwt beam="1">  1        2 0.70890088E+00 0.15848635E+04</pdfrwt>
<pdfrwt beam="2">  1       -2 0.18077657E-01 0.15848635E+04</pdfrwt>
<totfact> 0.24347337E+00</totfact>
</mgrwt>
</event>
<event>
 8    2  0.4480234E-052  0.1962534E+04  0.7818608E-02  0.8624340E-01
          2   -1    0    0  501    0  0.00000000000E+00  0.00000000000E+00  0.27334509009E+04  0.27334509009E+04  0.25500000000E-02 0.  1.
         -2   -1    0    0    0  501 -0.00000000000E+00 -0.00000000000E+00 -0.35225980891E+03  0.35225980892E+03  0.25500000000E-02 0. -1.
    -200001    2    1    2    0    0  0.41778052237E+03 -0.61877255130E+03  0.14634225462E+04  0.17532362678E+04  0.61221877364E+03 0.  0.
   -5000001    2    3    3    0    0  0.43905490582E+03 -0.53282704377E+03  0.14602020613E+04  0.16188837420E+04  0.10918169069E+03 0.  0.
     200001    1    1    2    0    0 -0.41778052237E+03  0.61877255130E+03  0.91776854582E+03  0.13324744421E+04  0.61300000000E+03 0. -1.
         13    1    4    4    0    0  0.84601958389E+02 -0.16836333034E+03  0.43919066098E+03  0.47790391317E+03  0.10566000000E+00 0.  1.
    -200003    1    4    4    0    0  0.35445294743E+03 -0.36446371343E+03  0.10210114003E+04  0.11409798288E+04  0.30000000000E+02 0.  1.
    -200000    1    3    3    0    0 -0.21274383444E+02 -0.85945507524E+02  0.32204849488E+01  0.13435252576E+03  0.10100000000E+03 0. -1.
<mgrwt>
<rscale>  0 0.19625340E+04</rscale>
<asrwt>0</asrwt>
<pdfrwt beam="1">  1        2 0.39049296E+00 0.19625340E+04</pdfrwt>
<pdfrwt beam="2">  1       -2 0.50322833E-01 0.19625340E+04</pdfrwt>
<totfact> 0.11556275E+01</totfact>
</mgrwt>
</event>
<event>
 8    2  0.4480234E-052  0.1272934E+04  0.7818608E-02  0.9051308E-01
          2   -1    0    0  501    0  0.00000000000E+00  0.00000000000E+00  0.30619214749E+03  0.30619214750E+03  0.25500000000E-02 0.  1.
         -2   -1    0    0    0  501 -0.00000000000E+00 -0.00000000000E+00 -0.13229941460E+04  0.13229941460E+04  0.25500000000E-02 0. -1.
    -200001    2    1    2    0    0 -0.13914745727E+03 -0.87620917458E+02 -0.56286543771E+03  0.84888709366E+03  0.61380156140E+03 0.  0.
   -5000001    2    3    3    0    0 -0.25134180983E+03  0.15659409671E+03 -0.43847427381E+03  0.53599301006E+03  0.85641120696E+02 0.  0.
     200001    1    1    2    0    0  0.13914745727E+03  0.87620917458E+02 -0.45393656080E+03  0.78029919984E+03  0.61300000000E+03 0. -1.
         13    1    4    4    0    0 -0.78825160900E+02  0.54587757394E+02 -0.20838516904E+03  0.22938530704E+03  0.10566000000E+00 0.  1.
    -200003    1    4    4    0    0 -0.17251664893E+03  0.10200633932E+03 -0.23008910477E+03  0.30660770302E+03  0.30000000000E+02 0.  1.
    -200000    1    3    3    0    0  0.11219435256E+03 -0.24421501417E+03 -0.12439116390E+03  0.31289408360E+03  0.10100000000E+03 0.  1.
<mgrwt>
<rscale>  0 0.12729343E+04</rscale>
<asrwt>0</asrwt>
<pdfrwt beam="1">  1        2 0.43741736E-01 0.12729343E+04</pdfrwt>
<pdfrwt beam="2">  1       -2 0.18899916E+00 0.12729343E+04</pdfrwt>
<totfact> 0.18027886E+01</totfact>
</mgrwt>
</event>
<event>
 8    2  0.4480234E-052  0.2030630E+04  0.7818608E-02  0.8592433E-01
         -2   -1    0    0    0  501 -0.00000000000E+00  0.00000000000E+00  0.44599661765E+03  0.44599661765E+03  0.25500000000E-02 0. -1.
          2   -1    0    0  501    0  0.00000000000E+00 -0.00000000000E+00 -0.23113730994E+04  0.23113730994E+04  0.25500000000E-02 0.  1.
    -200001    2    1    2    0    0  0.12657659510E+03  0.65365232744E+03 -0.15578396816E+04  0.18015293104E+04  0.61266661657E+03 0.  0.
   -5000001    2    3    3    0    0 -0.74192853938E+02  0.63012107213E+03 -0.12461438178E+04  0.14165391766E+04  0.22616736933E+03 0.  0.
     200001    1    1    2    0    0 -0.12657659510E+03 -0.65365232744E+03 -0.30753680019E+03  0.95584040669E+03  0.61300000000E+03 0. -1.
         13    1    4    4    0    0 -0.72861851212E+02  0.31800963177E+03 -0.85565755372E+03  0.91574496212E+03  0.10566000000E+00 0.  1.
    -200003    1    4    4    0    0 -0.13310027262E+01  0.31211144036E+03 -0.39048626413E+03  0.50079421447E+03  0.30000000000E+02 0.  1.
    -200000    1    3    3    0    0  0.20076944904E+03  0.23531255307E+02 -0.31169586377E+03  0.38499013381E+03  0.10100000000E+03 0.  1.
<mgrwt>
<rscale>  0 0.20306300E+04</rscale>
<asrwt>0</asrwt>
<pdfrwt beam="1">  1        2 0.33019615E+00 0.20306300E+04</pdfrwt>
<pdfrwt beam="2">  1       -2 0.63713803E-01 0.20306300E+04</pdfrwt>
<totfact> 0.11735255E+01</totfact>
</mgrwt>
</event>
<event>
 8    2  0.4480234E-052  0.1298276E+04  0.7818608E-02  0.9030933E-01
          2   -1    0    0  501    0  0.00000000000E+00  0.00000000000E+00  0.15971758416E+04  0.15971758416E+04  0.25500000000E-02 0.  1.
         -2   -1    0    0    0  501 -0.00000000000E+00 -0.00000000000E+00 -0.26382829777E+03  0.26382829779E+03  0.25500000000E-02 0. -1.
    -200001    2    1    2    0    0 -0.27409875971E+02 -0.65488873139E+02  0.93555461966E+03  0.11268050490E+04  0.62400887680E+03 0.  0.
   -5000001    2    3    3    0    0 -0.22895697532E+03  0.10697711779E+03  0.19045583725E+03  0.32947265482E+03  0.91724609855E+02 0.  0.
     200001    1    1    2    0    0  0.27409875971E+02  0.65488873139E+02  0.39779292420E+03  0.73419909041E+03  0.61300000000E+03 0. -1.
         13    1    4    4    0    0 -0.17336657347E+02 -0.12993372849E+02  0.28062423680E+02  0.35452760299E+02  0.10566000000E+00 0.  1.
    -200003    1    4    4    0    0 -0.21162031798E+03  0.11997049064E+03  0.16239341356E+03  0.29401989452E+03  0.30000000000E+02 0.  1.
    -200000    1    3    3    0    0  0.20154709935E+03 -0.17246599093E+03  0.74509878242E+03  0.79733239420E+03  0.10100000000E+03 0.  1.
<mgrwt>
<rscale>  0 0.12982761E+04</rscale>
<asrwt>0</asrwt>
<pdfrwt beam="1">  1        2 0.22816798E+00 0.12982761E+04</pdfrwt>
<pdfrwt beam="2">  1       -2 0.37689757E-01 0.12982761E+04</pdfrwt>
<totfact> 0.84531823E+01</totfact>
</mgrwt>
</event>
<event>
 8    2  0.4480234E-052  0.1720108E+04  0.7818608E-02  0.8749978E-01
         -2   -1    0    0    0  501 -0.00000000000E+00  0.00000000000E+00  0.29853608011E+03  0.29853608012E+03  0.25500000000E-02 0. -1.
          2   -1    0    0  501    0  0.00000000000E+00 -0.00000000000E+00 -0.24777336424E+04  0.24777336424E+04  0.25500000000E-02 0.  1.
    -200001    2    1    2    0    0  0.29684686376E+03  0.47169761202E+03 -0.71738337960E+03  0.10960059330E+04  0.61316669356E+03 0.  0.
   -5000001    2    3    3    0    0 -0.96536382678E+02 -0.38062068223E+02 -0.77519032797E+01  0.13247952319E+03  0.81992303549E+02 0.  0.
     200001    1    1    2    0    0 -0.29684686376E+03 -0.47169761202E+03 -0.14618141826E+04  0.16802637895E+04  0.61300000000E+03 0.  1.
         13    1    4    4    0    0 -0.89958837166E+02 -0.12860445560E+02  0.42633831741E+01  0.90973463408E+02  0.10566000000E+00 0.  1.
    -200003    1    4    4    0    0 -0.65775455118E+01 -0.25201622662E+02 -0.12015286454E+02  0.41506059779E+02  0.30000000000E+02 0.  1.
    -200000    1    3    3    0    0  0.39338324644E+03  0.50975968025E+03 -0.70963147632E+03  0.96352640979E+03  0.10100000000E+03 0. -1.
<mgrwt>
<rscale>  0 0.17201080E+04</rscale>
<asrwt>0</asrwt>
<pdfrwt beam="1">  1        2 0.35396194E+00 0.17201080E+04</pdfrwt>
<pdfrwt beam="2">  1       -2 0.42648013E-01 0.17201080E+04</pdfrwt>
<totfact> 0.22494819E+01</totfact>
</mgrwt>
</event>
<event>
 8    2  0.4480234E-052  0.2048950E+04  0.7818608E-02  0.8584071E-01
         -2   -1    0    0    0  501 -0.00000000000E+00  0.00000000000E+00  0.10255763905E+04  0.10255763905E+04  0.25500000000E-02 0. -1.
          2   -1    0    0  501    0  0.00000000000E+00 -0.00000000000E+00 -0.10233752342E+04  0.10233752342E+04  0.25500000000E-02 0.  1.
    -200001    2    1    2    0    0 -0.30097100869E+03 -0.99124220960E+02 -0.75632684281E+03  0.10235039739E+04  0.61247116846E+03 0.  0.
   -5000001    2    3    3    0    0 -0.43729911919E+03 -0.12923137725E+03 -0.59833406993E+03  0.78972093164E+03  0.24025865671E+03 0.  0.
     200001    1    1    2    0    0  0.30097100869E+03  0.99124220960E+02  0.75852799905E+03  0.10254476508E+04  0.61300000000E+03 0. -1.
         13    1    4    4    0    0  0.13792596014E+02 -0.53467546298E+02 -0.86551424738E+02  0.10266535199E+03  0.10566000000E+00 0.  1.
    -200003    1    4    4    0    0 -0.45109171520E+03 -0.75763830955E+02 -0.51178264519E+03  0.68705557964E+03  0.30000000000E+02 0.  1.
    -200000    1    3    3    0    0  0.13632811049E+03  0.30107156292E+02 -0.15799277288E+03  0.23378304227E+03  0.10100000000E+03 0. -1.
<mgrwt>
<rscale>  0 0.20489504E+04</rscale>
<asrwt>0</asrwt>
<pdfrwt beam="1">  1        2 0.14619646E+00 0.20489504E+04</pdfrwt>
<pdfrwt beam="2">  1       -2 0.14651091E+00 0.20489504E+04</pdfrwt>
<totfact> 0.80489273E+00</totfact>
</mgrwt>
</event>
<event>
 8    2  0.4480234E-052  0.2720733E+04  0.7818608E-02  0.8328309E-01
          2   -1    0    0  501    0  0.00000000000E+00  0.00000000000E+00  0.11894467883E+04  0.11894467883E+04  0.25500000000E-02 0.  1.
         -2   -1    0    0    0  501 -0.00000000000E+00 -0.00000000000E+00 -0.15558469334E+04  0.15558469334E+04  0.25500000000E-02 0. -1.
    -200001    2    1    2    0    0 -0.26872521090E+03  0.58095145849E+03  0.85804337869E+03  0.12337551748E+04  0.61334782585E+03 0.  0.
   -5000001    2    3    3    0    0  0.31088776163E+01  0.37470121713E+02 -0.80774468709E+02  0.11088132358E+03  0.66003620982E+02 0.  0.
     200001    1    1    2    0    0  0.26872521090E+03 -0.58095145849E+03 -0.12244435238E+04  0.15115385470E+04  0.61300000000E+03 0. -1.
         13    1    4    4    0    0 -0.66219151142E+01  0.26775076557E+02 -0.71006874407E+02  0.76175730135E+02  0.10566000000E+00 0.  1.
    -200003    1    4    4    0    0  0.97307927305E+01  0.10695045157E+02 -0.97675943015E+01  0.34705593447E+02  0.30000000000E+02 0.  1.
    -200000    1    3    3    0    0 -0.27183408852E+03  0.54348133678E+03  0.93881784740E+03  0.11228738512E+04  0.10100000000E+03 0.  1.
<mgrwt>
<rscale>  0 0.27207331E+04</rscale>
<asrwt>0</asrwt>
<pdfrwt beam="1">  1        2 0.16992097E+00 0.27207331E+04</pdfrwt>
<pdfrwt beam="2">  1       -2 0.22226385E+00 0.27207331E+04</pdfrwt>
<totfact> 0.18262393E+00</totfact>
</mgrwt>
</event>
<event>
 8    2  0.4480234E-052  0.1473057E+04  0.7818608E-02  0.8902570E-01
         -2   -1    0    0    0  501 -0.00000000000E+00  0.00000000000E+00  0.63734854894E+03  0.63734854895E+03  0.25500000000E-02 0. -1.
          2   -1    0    0  501    0  0.00000000000E+00 -0.00000000000E+00 -0.85114229560E+03  0.85114229560E+03  0.25500000000E-02 0.  1.
    -200001    2    1    2    0    0 -0.12272841902E+03  0.20750884268E+03  0.22575105474E+03  0.69660018476E+03  0.61332380849E+03 0.  0.
   -5000001    2    3    3    0    0 -0.28990890774E+03  0.16859875564E+03  0.32125205483E+03  0.47572748001E+03  0.10315540368E+03 0.  0.
     200001    1    1    2    0    0  0.12272841902E+03 -0.20750884268E+03 -0.43954480140E+03  0.79189065979E+03  0.61300000000E+03 0.  1.
         13    1    4    4    0    0 -0.46930546271E+02  0.41124719334E+02  0.11613167822E+03  0.13183435275E+03  0.10566000000E+00 0.  1.
    -200003    1    4    4    0    0 -0.24297836147E+03  0.12747403631E+03  0.20512037661E+03  0.34389312726E+03  0.30000000000E+02 0.  1.
    -200000    1    3    3    0    0  0.16718048873E+03  0.38910087042E+02 -0.95501000092E+02  0.22087270475E+03  0.10100000000E+03 0.  1.
<mgrwt>
<rscale>  0 0.14730571E+04</rscale>
<asrwt>0</asrwt>
<pdfrwt beam="1">  1        2 0.12159176E+00 0.14730571E+04</pdfrwt>
<pdfrwt beam="2">  1       -2 0.91049793E-01 0.14730571E+04</pdfrwt>
<totfact> 0.34982098E+01</totfact>
</mgrwt>
</event>
<event>
 8    2  0.4480234E-052  0.1336297E+04  0.7818608E-02  0.9001266E-01
         -2   -1    0    0    0  501 -0.00000000000E+00  0.00000000000E+00  0.11467740748E+03  0.11467740751E+03  0.25500000000E-02 0. -1.
          2   -1    0    0  501    0  0.00000000000E+00 -0.00000000000E+00 -0.38928540563E+04  0.38928540563E+04  0.25500000000E-02 0.  1.
    -200001    2    1    2    0    0 -0.25536171813E+03 -0.35091976282E+02 -0.17027000045E+04  0.18281248118E+04  0.61352421970E+03 0.  0.
   -5000001    2    3    3    0    0 -0.36128487372E+03 -0.93124467629E+02 -0.15838975219E+04  0.16308876073E+04  0.10892245570E+03 0.  0.
     200001    1    1    2    0    0  0.25536171813E+03  0.35091976282E+02 -0.20754766443E+04  0.21794066520E+04  0.61300000000E+03 0.  1.
         13    1    4    4    0    0 -0.44725325876E+02  0.19123475930E+02 -0.27388619881E+03  0.27817211070E+03  0.10566000000E+00 0.  1.
    -200003    1    4    4    0    0 -0.31655954785E+03 -0.11224794356E+03 -0.13100113231E+04  0.13527154966E+04  0.30000000000E+02 0.  1.
    -200000    1    3    3    0    0  0.10592315560E+03  0.58032491347E+02 -0.11880248259E+03  0.19723720444E+03  0.10100000000E+03 0. -1.
<mgrwt>
<rscale>  0 0.13362970E+04</rscale>
<asrwt>0</asrwt>
<pdfrwt beam="1">  1        2 0.55612192E+00 0.13362970E+04</pdfrwt>
<pdfrwt beam="2">  1       -2 0.16382489E-01 0.13362970E+04</pdfrwt>
<totfact> 0.20375739E+01</totfact>
</mgrwt>
</event>
<event>
 8    2  0.4480234E-052  0.1294071E+04  0.7818608E-02  0.9034280E-01
         -2   -1    0    0    0  501 -0.00000000000E+00  0.00000000000E+00  0.26387275587E+03  0.26387275589E+03  0.25500000000E-02 0. -1.
          2   -1    0    0  501    0  0.00000000000E+00 -0.00000000000E+00 -0.15865790120E+04  0.15865790120E+04  0.25500000000E-02 0.  1.
    -200001    2    1    2    0    0  0.76601251712E+02  0.19069621624E+03 -0.69571710475E+03  0.94983131809E+03  0.61312677672E+03 0.  0.
   -5000001    2    3    3    0    0  0.27693671888E+03  0.13701815278E+03 -0.63626021104E+03  0.71160504726E+03  0.78017733108E+02 0.  0.
     200001    1    1    2    0    0 -0.76601251712E+02 -0.19069621624E+03 -0.62698915136E+03  0.90062044979E+03  0.61300000000E+03 0.  1.
         13    1    4    4    0    0  0.16659419870E+03  0.55430483358E+02 -0.39823964057E+03  0.43522521528E+03  0.10566000000E+00 0.  1.
    -200003    1    4    4    0    0  0.11034252018E+03  0.81587669426E+02 -0.23802057047E+03  0.27637983199E+03  0.30000000000E+02 0.  1.
    -200000    1    3    3    0    0 -0.20033546717E+03  0.53678063452E+02 -0.59456893713E+02  0.23822627083E+03  0.10100000000E+03 0. -1.
<mgrwt>
<rscale>  0 0.12940711E+04</rscale>
<asrwt>0</asrwt>
<pdfrwt beam="1">  1        2 0.22665414E+00 0.12940711E+04</pdfrwt>
<pdfrwt beam="2">  1       -2 0.37696109E-01 0.12940711E+04</pdfrwt>
<totfact> 0.85619101E+01</totfact>
</mgrwt>
</event>
<event>
 8    2  0.4480234E-052  0.1300968E+04  0.7818608E-02  0.9028798E-01
          2   -1    0    0  501    0  0.00000000000E+00  0.00000000000E+00  0.22203415439E+04  0.22203415439E+04  0.25500000000E-02 0.  1.
         -2   -1    0    0    0  501 -0.00000000000E+00 -0.00000000000E+00 -0.19056939179E+03  0.19056939181E+03  0.25500000000E-02 0. -1.
    -200001    2    1    2    0    0  0.12504122167E+03 -0.70584140020E+02  0.71338864970E+03  0.95171528284E+03  0.61336871956E+03 0.  0.
   -5000001    2    3    3    0    0 -0.14695380947E+03 -0.20207746078E+03  0.49508808850E+03  0.56554443284E+03  0.11089439967E+03 0.  0.
     200001    1    1    2    0    0 -0.12504122167E+03  0.70584140020E+02  0.13163835024E+04  0.14591956529E+04  0.61300000000E+03 0. -1.
         13    1    4    4    0    0 -0.90222039033E+01 -0.45498976362E+02  0.30918633235E+02  0.55745224535E+02  0.10566000000E+00 0.  1.
    -200003    1    4    4    0    0 -0.13793160556E+03 -0.15657848442E+03  0.46416945526E+03  0.50979920831E+03  0.30000000000E+02 0.  1.
    -200000    1    3    3    0    0  0.27199503114E+03  0.13149332076E+03  0.21830056120E+03  0.38617085000E+03  0.10100000000E+03 0. -1.
<mgrwt>
<rscale>  0 0.13009675E+04</rscale>
<asrwt>0</asrwt>
<pdfrwt beam="1">  1        2 0.31719163E+00 0.13009675E+04</pdfrwt>
<pdfrwt beam="2">  1       -2 0.27224200E-01 0.13009675E+04</pdfrwt>
<totfact> 0.74404251E+01</totfact>
</mgrwt>
</event>
<event>
 8    2  0.4480234E-052  0.1545256E+04  0.7818608E-02  0.8854904E-01
         -2   -1    0    0    0  501 -0.00000000000E+00  0.00000000000E+00  0.38467959809E+03  0.38467959809E+03  0.25500000000E-02 0. -1.
          2   -1    0    0  501    0  0.00000000000E+00 -0.00000000000E+00 -0.15518204081E+04  0.15518204081E+04  0.25500000000E-02 0.  1.
    -200001    2    1    2    0    0 -0.18072852986E+03  0.33412597872E+03 -0.23714371701E+03  0.75965398222E+03  0.61362371126E+03 0.  0.
   -5000001    2    3    3    0    0  0.80055098662E+02 -0.66435402519E+02 -0.23762670294E+03  0.27112685470E+03  0.78872300986E+02 0.  0.
     200001    1    1    2    0    0  0.18072852986E+03 -0.33412597872E+03 -0.92999709299E+03  0.11768460240E+04  0.61300000000E+03 0.  1.
         13    1    4    4    0    0  0.13839786648E+02 -0.40095605131E+02 -0.37624157091E+02  0.56699079412E+02  0.10566000000E+00 0.  1.
    -200003    1    4    4    0    0  0.66215312014E+02 -0.26339797388E+02 -0.20000254585E+03  0.21442777529E+03  0.30000000000E+02 0.  1.
    -200000    1    3    3    0    0 -0.26078362852E+03  0.40056138124E+03  0.48298592429E+00  0.48852712751E+03  0.10100000000E+03 0. -1.
<mgrwt>
<rscale>  0 0.15452555E+04</rscale>
<asrwt>0</asrwt>
<pdfrwt beam="1">  1        2 0.22168863E+00 0.15452555E+04</pdfrwt>
<pdfrwt beam="2">  1       -2 0.54954229E-01 0.15452555E+04</pdfrwt>
<totfact> 0.41211516E+01</totfact>
</mgrwt>
</event>
<event>
 8    2  0.4480234E-052  0.1298479E+04  0.7818608E-02  0.9030772E-01
         -2   -1    0    0    0  501 -0.00000000000E+00  0.00000000000E+00  0.45505525230E+03  0.45505525231E+03  0.25500000000E-02 0. -1.
          2   -1    0    0  501    0  0.00000000000E+00 -0.00000000000E+00 -0.92628765708E+03  0.92628765709E+03  0.25500000000E-02 0.  1.
    -200001    2    1    2    0    0 -0.88567572971E+02 -0.18183970645E+03 -0.16126624773E+03  0.66527174510E+03  0.61291907977E+03 0.  0.
   -5000001    2    3    3    0    0 -0.32467410439E+03 -0.15983883696E+03 -0.14981216278E+02  0.36890939448E+03  0.70056952800E+02 0.  0.
     200001    1    1    2    0    0  0.88567572971E+02  0.18183970645E+03 -0.30996615705E+03  0.71607116430E+03  0.61300000000E+03 0.  1.
         13    1    4    4    0    0 -0.12772846729E+03 -0.82689781608E+02 -0.28675040101E+02  0.15483678641E+03  0.10566000000E+00 0.  1.
    -200003    1    4    4    0    0 -0.19694563710E+03 -0.77149055350E+02  0.13693823823E+02  0.21407260807E+03  0.30000000000E+02 0.  1.
    -200000    1    3    3    0    0  0.23610653142E+03 -0.22000869496E+02 -0.14628503145E+03  0.29636235062E+03  0.10100000000E+03 0.  1.
<mgrwt>
<rscale>  0 0.12984792E+04</rscale>
<asrwt>0</asrwt>
<pdfrwt beam="1">  1        2 0.13232681E+00 0.12984792E+04</pdfrwt>
<pdfrwt beam="2">  1       -2 0.65007893E-01 0.12984792E+04</pdfrwt>
<totfact> 0.66967863E+01</totfact>
</mgrwt>
</event>
<event>
 8    2  0.4480234E-052  0.1449979E+04  0.7818608E-02  0.8918415E-01
          2   -1    0    0  501    0  0.00000000000E+00  0.00000000000E+00  0.42049310759E+04  0.42049310759E+04  0.25500000000E-02 0.  1.
         -2   -1    0    0    0  501 -0.00000000000E+00 -0.00000000000E+00 -0.12499836820E+03  0.12499836823E+03  0.25500000000E-02 0. -1.
    -200001    2    1    2    0    0  0.65082467559E+02 -0.25146617136E+03  0.28974121916E+04  0.29728757481E+04  0.61279837033E+03 0.  0.
   -5000001    2    3    3    0    0 -0.19205717442E+03 -0.16009688942E+03  0.59617177031E+03  0.65331164729E+03  0.94225031313E+02 0.  0.
     200001    1    1    2    0    0 -0.65082467559E+02  0.25146617136E+03  0.11825205161E+04  0.13570536960E+04  0.61300000000E+03 0. -1.
         13    1    4    4    0    0 -0.12845401148E+03 -0.14265928669E+03  0.47204360542E+03  0.50958540180E+03  0.10566000000E+00 0.  1.
    -200003    1    4    4    0    0 -0.63603162942E+02 -0.17437602733E+02  0.12412816489E+03  0.14372624549E+03  0.30000000000E+02 0.  1.
    -200000    1    3    3    0    0  0.25713964198E+03 -0.91369281936E+02  0.23012404213E+04  0.23195641008E+04  0.10100000000E+03 0.  1.
<mgrwt>
<rscale>  0 0.14499787E+04</rscale>
<asrwt>0</asrwt>
<pdfrwt beam="1">  1        2 0.60070453E+00 0.14499787E+04</pdfrwt>
<pdfrwt beam="2">  1       -2 0.17856907E-01 0.14499787E+04</pdfrwt>
<totfact> 0.10563451E+01</totfact>
</mgrwt>
</event>
<event>
 8    2  0.4480234E-052  0.1825546E+04  0.7818608E-02  0.8692831E-01
         -2   -1    0    0    0  501 -0.00000000000E+00  0.00000000000E+00  0.85879243271E+03  0.85879243271E+03  0.25500000000E-02 0. -1.
          2   -1    0    0  501    0  0.00000000000E+00 -0.00000000000E+00 -0.97014701618E+03  0.97014701618E+03  0.25500000000E-02 0.  1.
    -200001    2    1    2    0    0 -0.32855171342E+03  0.31635713235E+03  0.44485521327E+03  0.88386463621E+03  0.61261119056E+03 0.  0.
   -5000001    2    3    3    0    0 -0.64365505593E+02  0.37058703947E+03  0.39159693466E+02  0.38634570188E+03  0.79068626104E+02 0.  0.
     200001    1    1    2    0    0  0.32855171342E+03 -0.31635713235E+03 -0.55620979674E+03  0.94507481268E+03  0.61300000000E+03 0.  1.
         13    1    4    4    0    0 -0.55982857514E+02  0.18760747086E+03  0.44020918116E+02  0.20067011699E+03  0.10566000000E+00 0.  1.
    -200003    1    4    4    0    0 -0.83826480791E+01  0.18297956862E+03 -0.48612246495E+01  0.18567558489E+03  0.30000000000E+02 0.  1.
    -200000    1    3    3    0    0 -0.26418620783E+03 -0.54229907127E+02  0.40569551980E+03  0.49751893433E+03  0.10100000000E+03 0. -1.
<mgrwt>
<rscale>  0 0.18255464E+04</rscale>
<asrwt>0</asrwt>
<pdfrwt beam="1">  1        2 0.13859243E+00 0.18255464E+04</pdfrwt>
<pdfrwt beam="2">  1       -2 0.12268463E+00 0.18255464E+04</pdfrwt>
<totfact> 0.13924351E+01</totfact>
</mgrwt>
</event>
<event>
 8    2  0.4480234E-052  0.1447487E+04  0.7818608E-02  0.8920144E-01
          2   -1    0    0  501    0  0.00000000000E+00  0.00000000000E+00  0.24264295873E+04  0.24264295873E+04  0.25500000000E-02 0.  1.
         -2   -1    0    0    0  501 -0.00000000000E+00 -0.00000000000E+00 -0.21587468035E+03  0.21587468037E+03  0.25500000000E-02 0. -1.
    -200001    2    1    2    0    0  0.25041803783E+03  0.24221532340E+03  0.80838294504E+03  0.10728353552E+04  0.61328236311E+03 0.  0.
   -5000001    2    3    3    0    0 -0.36751419391E+02 -0.71130375720E+02  0.54124100836E+03  0.56076344747E+03  0.12289677665E+03 0.  0.
     200001    1    1    2    0    0 -0.25041803783E+03 -0.24221532340E+03  0.14021719619E+04  0.15694689125E+04  0.61300000000E+03 0.  1.
         13    1    4    4    0    0  0.39362874281E+02 -0.45426012468E+02  0.19455575739E+03  0.20362935048E+03  0.10566000000E+00 0.  1.
    -200003    1    4    4    0    0 -0.76114293672E+02 -0.25704363252E+02  0.34668525097E+03  0.35713409699E+03  0.30000000000E+02 0.  1.
    -200000    1    3    3    0    0  0.28716945722E+03  0.31334569912E+03  0.26714193668E+03  0.51207190770E+03  0.10100000000E+03 0. -1.
<mgrwt>
<rscale>  0 0.14474871E+04</rscale>
<asrwt>0</asrwt>
<pdfrwt beam="1">  1        2 0.34663279E+00 0.14474871E+04</pdfrwt>
<pdfrwt beam="2">  1       -2 0.30839241E-01 0.14474871E+04</pdfrwt>
<totfact> 0.45646473E+01</totfact>
</mgrwt>
</event>
<event>
 8    2  0.4480234E-052  0.1342675E+04  0.7818608E-02  0.8996392E-01
          2   -1    0    0  501    0  0.00000000000E+00  0.00000000000E+00  0.41752693143E+03  0.41752693143E+03  0.25500000000E-02 0.  1.
         -2   -1    0    0    0  501 -0.00000000000E+00 -0.00000000000E+00 -0.10794366793E+04  0.10794366793E+04  0.25500000000E-02 0. -1.
    -200001    2    1    2    0    0  0.44281943319E+02 -0.40523139228E+02 -0.35187062224E+02  0.61824104929E+03  0.61431331612E+03 0.  0.
   -5000001    2    3    3    0    0 -0.76651586167E+02  0.18068099877E+03 -0.18644570436E+03  0.30737714652E+03  0.14559402648E+03 0.  0.
     200001    1    1    2    0    0 -0.44281943319E+02  0.40523139228E+02 -0.62672268569E+03  0.87872256149E+03  0.61300000000E+03 0. -1.
         13    1    4    4    0    0 -0.11263666207E+03  0.15025982003E+03 -0.15335203528E+03  0.24244976603E+03  0.10566000000E+00 0.  1.
    -200003    1    4    4    0    0  0.35985075905E+02  0.30421178742E+02 -0.33093669082E+02  0.64927380490E+02  0.30000000000E+02 0.  1.
    -200000    1    3    3    0    0  0.12093352949E+03 -0.22120413800E+03  0.15125864214E+03  0.31086390277E+03  0.10100000000E+03 0. -1.
<mgrwt>
<rscale>  0 0.13426748E+04</rscale>
<asrwt>0</asrwt>
<pdfrwt beam="1">  1        2 0.59646705E-01 0.13426748E+04</pdfrwt>
<pdfrwt beam="2">  1       -2 0.15420524E+00 0.13426748E+04</pdfrwt>
<totfact> 0.22428011E+01</totfact>
</mgrwt>
</event>
<event>
 8    2  0.4480234E-052  0.1627371E+04  0.7818608E-02  0.8803907E-01
         -2   -1    0    0    0  501 -0.00000000000E+00  0.00000000000E+00  0.27355868189E+03  0.27355868191E+03  0.25500000000E-02 0. -1.
          2   -1    0    0  501    0  0.00000000000E+00 -0.00000000000E+00 -0.24202637169E+04  0.24202637169E+04  0.25500000000E-02 0.  1.
    -200001    2    1    2    0    0 -0.39663976428E+02 -0.29201691193E+03 -0.33467997234E+03  0.75835063833E+03  0.61338234315E+03 0.  0.
   -5000001    2    3    3    0    0 -0.28216226833E+03 -0.62672166589E+02 -0.45348846077E+02  0.30523041762E+03  0.86981284565E+02 0.  0.
     200001    1    1    2    0    0  0.39663976428E+02  0.29201691193E+03 -0.18120250626E+04  0.19354717605E+04  0.61300000000E+03 0.  1.
         13    1    4    4    0    0 -0.29227273554E+02 -0.20157298565E+02  0.17319075782E+02  0.39503313213E+02  0.10566000000E+00 0.  1.
    -200003    1    4    4    0    0 -0.25293499478E+03 -0.42514868024E+02 -0.62667921859E+02  0.26572710441E+03  0.30000000000E+02 0.  1.
    -200000    1    3    3    0    0  0.24249829190E+03 -0.22934474534E+03 -0.28933112626E+03  0.45312022071E+03  0.10100000000E+03 0. -1.
<mgrwt>
<rscale>  0 0.16273711E+04</rscale>
<asrwt>0</asrwt>
<pdfrwt beam="1">  1        2 0.34575195E+00 0.16273711E+04</pdfrwt>
<pdfrwt beam="2">  1       -2 0.39079813E-01 0.16273711E+04</pdfrwt>
<totfact> 0.28839304E+01</totfact>
</mgrwt>
</event>
<event>
 8    2  0.4480234E-052  0.1304790E+04  0.7818608E-02  0.9025775E-01
         -2   -1    0    0    0  501 -0.00000000000E+00  0.00000000000E+00  0.29479685189E+03  0.29479685190E+03  0.25500000000E-02 0. -1.
          2   -1    0    0  501    0  0.00000000000E+00 -0.00000000000E+00 -0.14437708877E+04  0.14437708877E+04  0.25500000000E-02 0.  1.
    -200001    2    1    2    0    0 -0.20949854973E+03 -0.29837003722E+02 -0.67412740418E+03  0.93480893704E+03  0.61207851013E+03 0.  0.
   -5000001    2    3    3    0    0 -0.27477713466E+03 -0.24200988593E+03 -0.52648286435E+03  0.64971503016E+03  0.10427921819E+03 0.  0.
     200001    1    1    2    0    0  0.20949854973E+03  0.29837003722E+02 -0.47484663163E+03  0.80375880257E+03  0.61300000000E+03 0. -1.
         13    1    4    4    0    0 -0.21287169015E+02 -0.64102054257E+02 -0.12147079593E+03  0.13898698627E+03  0.10566000000E+00 0.  1.
    -200003    1    4    4    0    0 -0.25348996565E+03 -0.17790783167E+03 -0.40501206841E+03  0.51072804389E+03  0.30000000000E+02 0.  1.
    -200000    1    3    3    0    0  0.65278584928E+02  0.21217288221E+03 -0.14764453984E+03  0.28509390688E+03  0.10100000000E+03 0. -1.
<mgrwt>
<rscale>  0 0.13047898E+04</rscale>
<asrwt>0</asrwt>
<pdfrwt beam="1">  1        2 0.20625298E+00 0.13047898E+04</pdfrwt>
<pdfrwt beam="2">  1       -2 0.42113837E-01 0.13047898E+04</pdfrwt>
<totfact> 0.82041113E+01</totfact>
</mgrwt>
</event>
<event>
 8    2  0.4480234E-052  0.1245474E+04  0.7818608E-02  0.9073959E-01
          2   -1    0    0  501    0  0.00000000000E+00  0.00000000000E+00  0.15744263323E+04  0.15744263323E+04  0.25500000000E-02 0.  1.
         -2   -1    0    0    0  501 -0.00000000000E+00 -0.00000000000E+00 -0.24631264761E+03  0.24631264762E+03  0.25500000000E-02 0. -1.
    -200001    2    1    2    0    0  0.41065598407E+02 -0.18733644127E+02  0.80942670534E+03  0.10164737778E+04  0.61319655648E+03 0.  0.
   -5000001    2    3    3    0    0  0.57103224037E+02 -0.82821239041E+02 -0.57230010737E+02  0.14145418445E+03  0.81325742160E+02 0.  0.
     200001    1    1    2    0    0 -0.41065598407E+02  0.18733644127E+02  0.51868697940E+03  0.80426520215E+03  0.61300000000E+03 0. -1.
         13    1    4    4    0    0  0.61238150512E+02 -0.59304781909E+02 -0.57994302450E+02  0.10310440590E+03  0.10566000000E+00 0.  1.
    -200003    1    4    4    0    0 -0.41349264751E+01 -0.23516457132E+02  0.76429171293E+00  0.38349778550E+02  0.30000000000E+02 0.  1.
    -200000    1    3    3    0    0 -0.16037625630E+02  0.64087594914E+02  0.86665671608E+03  0.87501959337E+03  0.10100000000E+03 0.  1.
<mgrwt>
<rscale>  0 0.12454736E+04</rscale>
<asrwt>0</asrwt>
<pdfrwt beam="1">  1        2 0.22491806E+00 0.12454736E+04</pdfrwt>
<pdfrwt beam="2">  1       -2 0.35187520E-01 0.12454736E+04</pdfrwt>
<totfact> 0.99523605E+01</totfact>
</mgrwt>
</event>
<event>
 8    2  0.4480234E-052  0.1470106E+04  0.7818608E-02  0.8904579E-01
          2   -1    0    0  501    0  0.00000000000E+00  0.00000000000E+00  0.54523844655E+03  0.54523844656E+03  0.25500000000E-02 0.  1.
         -2   -1    0    0    0  501 -0.00000000000E+00 -0.00000000000E+00 -0.99094737005E+03  0.99094737006E+03  0.25500000000E-02 0. -1.
    -200001    2    1    2    0    0 -0.20835227427E+03  0.24438651776E+03 -0.47524181464E+03  0.84352671437E+03  0.61850391691E+03 0.  0.
   -5000001    2    3    3    0    0 -0.35242070917E+03  0.19657691753E+03 -0.95656069153E+02  0.42242362725E+03  0.80304399228E+02 0.  0.
     200001    1    1    2    0    0  0.20835227427E+03 -0.24438651776E+03  0.29532891136E+02  0.69265910224E+03  0.61300000000E+03 0.  1.
         13    1    4    4    0    0 -0.13185138263E+03  0.59218398353E+02 -0.18758516170E+01  0.14455149874E+03  0.10566000000E+00 0.  1.
    -200003    1    4    4    0    0 -0.22056932654E+03  0.13735851918E+03 -0.93780217536E+02  0.27787212851E+03  0.30000000000E+02 0.  1.
    -200000    1    3    3    0    0  0.14406843490E+03  0.47809600226E+02 -0.37958574549E+03  0.42110308712E+03  0.10100000000E+03 0. -1.
<mgrwt>
<rscale>  0 0.14701056E+04</rscale>
<asrwt>0</asrwt>
<pdfrwt beam="1">  1        2 0.77891207E-01 0.14701056E+04</pdfrwt>
<pdfrwt beam="2">  1       -2 0.14156391E+00 0.14701056E+04</pdfrwt>
<totfact> 0.20547584E+01</totfact>
</mgrwt>
</event>
<event>
 8    2  0.4480234E-052  0.1359316E+04  0.7818608E-02  0.8983806E-01
          2   -1    0    0  501    0  0.00000000000E+00  0.00000000000E+00  0.97382238395E+03  0.97382238396E+03  0.25500000000E-02 0.  1.
         -2   -1    0    0    0  501 -0.00000000000E+00 -0.00000000000E+00 -0.47435206870E+03  0.47435206871E+03  0.25500000000E-02 0. -1.
    -200001    2    1    2    0    0 -0.26198268749E+03 -0.17402356142E+02  0.38977354370E+03  0.77234891879E+03  0.61291244599E+03 0.  0.
   -5000001    2    3    3    0    0  0.16557822117E+03  0.98043859746E+02  0.16974425560E+03  0.26762122290E+03  0.76021450114E+02 0.  0.
     200001    1    1    2    0    0  0.26198268749E+03  0.17402356142E+02  0.10969677155E+03  0.67582553387E+03  0.61300000000E+03 0. -1.
         13    1    4    4    0    0  0.99530054391E+02  0.77833786739E+02  0.13429623822E+03  0.18439040336E+03  0.10566000000E+00 0.  1.
    -200003    1    4    4    0    0  0.66048166780E+02  0.20210073007E+02  0.35448017377E+02  0.83230819544E+02  0.30000000000E+02 0.  1.
    -200000    1    3    3    0    0 -0.42756090866E+03 -0.11544621589E+03  0.22002928810E+03  0.50472769589E+03  0.10100000000E+03 0.  1.
<mgrwt>
<rscale>  0 0.13593155E+04</rscale>
<asrwt>0</asrwt>
<pdfrwt beam="1">  1        2 0.13911748E+00 0.13593155E+04</pdfrwt>
<pdfrwt beam="2">  1       -2 0.67764582E-01 0.13593155E+04</pdfrwt>
<totfact> 0.56871766E+01</totfact>
</mgrwt>
</event>
<event>
 8    2  0.4480234E-052  0.1606942E+04  0.7818608E-02  0.8816294E-01
          2   -1    0    0  501    0  0.00000000000E+00  0.00000000000E+00  0.52923278683E+03  0.52923278683E+03  0.25500000000E-02 0.  1.
         -2   -1    0    0    0  501 -0.00000000000E+00 -0.00000000000E+00 -0.12198148096E+04  0.12198148097E+04  0.25500000000E-02 0. -1.
    -200001    2    1    2    0    0  0.58473149464E+02  0.28104228428E+02 -0.90454043901E+03  0.10965476649E+04  0.61645309532E+03 0.  0.
   -5000001    2    3    3    0    0  0.22722980331E+03 -0.16141991631E+03 -0.23606062455E+03  0.37442269511E+03  0.82328386682E+02 0.  0.
     200001    1    1    2    0    0 -0.58473149464E+02 -0.28104228428E+02  0.21395841618E+03  0.65249993159E+03  0.61300000000E+03 0.  1.
         13    1    4    4    0    0  0.14207854258E+03 -0.13350886113E+03 -0.14290656246E+03  0.24172965275E+03  0.10566000000E+00 0.  1.
    -200003    1    4    4    0    0  0.85151260734E+02 -0.27911055183E+02 -0.93154062097E+02  0.13269304236E+03  0.30000000000E+02 0.  1.
    -200000    1    3    3    0    0 -0.16875665385E+03  0.18952414474E+03 -0.66847981445E+03  0.72212496979E+03  0.10100000000E+03 0. -1.
<mgrwt>
<rscale>  0 0.16069424E+04</rscale>
<asrwt>0</asrwt>
<pdfrwt beam="1">  1        2 0.75604685E-01 0.16069424E+04</pdfrwt>
<pdfrwt beam="2">  1       -2 0.17425926E+00 0.16069424E+04</pdfrwt>
<totfact> 0.12000142E+01</totfact>
</mgrwt>
</event>
<event>
 8    2  0.4480234E-052  0.1726671E+04  0.7818608E-02  0.8746298E-01
          2   -1    0    0  501    0  0.00000000000E+00  0.00000000000E+00  0.55055104496E+03  0.55055104497E+03  0.25500000000E-02 0.  1.
         -2   -1    0    0    0  501 -0.00000000000E+00 -0.00000000000E+00 -0.13538219254E+04  0.13538219254E+04  0.25500000000E-02 0. -1.
    -200001    2    1    2    0    0 -0.10943822512E+03  0.13503327968E+03  0.24111108211E+03  0.68097058546E+03  0.61267909431E+03 0.  0.
   -5000001    2    3    3    0    0  0.61291937604E+02  0.24818548938E+03  0.33822797556E+03  0.43280753015E+03  0.87014113495E+02 0.  0.
     200001    1    1    2    0    0  0.10943822512E+03 -0.13503327968E+03 -0.10443819626E+04  0.12234023849E+04  0.61300000000E+03 0. -1.
         13    1    4    4    0    0  0.17277368029E+02  0.95403131525E+02  0.19030419038E+03  0.21357893386E+03  0.10566000000E+00 0.  1.
    -200003    1    4    4    0    0  0.44014569575E+02  0.15278235785E+03  0.14792378519E+03  0.21922859629E+03  0.30000000000E+02 0.  1.
    -200000    1    3    3    0    0 -0.17073016272E+03 -0.11315220970E+03 -0.97116893457E+02  0.24816305531E+03  0.10100000000E+03 0.  1.
<mgrwt>
<rscale>  0 0.17266709E+04</rscale>
<asrwt>0</asrwt>
<pdfrwt beam="1">  1        2 0.78650150E-01 0.17266709E+04</pdfrwt>
<pdfrwt beam="2">  1       -2 0.19340313E+00 0.17266709E+04</pdfrwt>
<totfact> 0.84019714E+00</totfact>
</mgrwt>
</event>
<event>
 8    2  0.4480234E-052  0.2422273E+04  0.7818608E-02  0.8431212E-01
          2   -1    0    0  501    0  0.00000000000E+00  0.00000000000E+00  0.14208456334E+04  0.14208456334E+04  0.25500000000E-02 0.  1.
         -2   -1    0    0    0  501 -0.00000000000E+00 -0.00000000000E+00 -0.10323789209E+04  0.10323789210E+04  0.25500000000E-02 0. -1.
    -200001    2    1    2    0    0  0.35417655247E+03  0.90912602930E+03  0.57228726022E+03  0.12863868787E+04  0.61263963806E+03 0.  0.
   -5000001    2    3    3    0    0  0.19291538126E+03  0.91398864966E+03  0.56859833377E+03  0.10960098355E+04  0.73088291172E+02 0.  0.
     200001    1    1    2    0    0 -0.35417655247E+03 -0.90912602930E+03 -0.18382054775E+03  0.11668376756E+04  0.61300000000E+03 0. -1.
         13    1    4    4    0    0  0.58419042802E+02  0.41756579605E+03  0.24601479598E+03  0.48815701326E+03  0.10566000000E+00 0.  1.
    -200003    1    4    4    0    0  0.13449633846E+03  0.49642285361E+03  0.32258353779E+03  0.60785282223E+03  0.30000000000E+02 0.  1.
    -200000    1    3    3    0    0  0.16126117121E+03 -0.48626203598E+01  0.36889264521E+01  0.19037704325E+03  0.10100000000E+03 0.  1.
<mgrwt>
<rscale>  0 0.24222726E+04</rscale>
<asrwt>0</asrwt>
<pdfrwt beam="1">  1        2 0.20297795E+00 0.24222726E+04</pdfrwt>
<pdfrwt beam="2">  1       -2 0.14748270E+00 0.24222726E+04</pdfrwt>
<totfact> 0.45605946E+00</totfact>
</mgrwt>
</event>
<event>
 8    2  0.4480234E-052  0.1817960E+04  0.7818608E-02  0.8696806E-01
         -2   -1    0    0    0  501 -0.00000000000E+00  0.00000000000E+00  0.92080562294E+03  0.92080562294E+03  0.25500000000E-02 0. -1.
          2   -1    0    0  501    0  0.00000000000E+00 -0.00000000000E+00 -0.89730668036E+03  0.89730668036E+03  0.25500000000E-02 0.  1.
    -200001    2    1    2    0    0 -0.61519887766E+03 -0.39940681873E+02  0.27723934196E+03  0.91245336782E+03  0.61289850594E+03 0.  0.
   -5000001    2    3    3    0    0 -0.55841550821E+03  0.15224563531E+03  0.75298746107E+02  0.61055779679E+03  0.17917675289E+03 0.  0.
     200001    1    1    2    0    0  0.61519887766E+03  0.39940681873E+02 -0.25374039938E+03  0.90565893548E+03  0.61300000000E+03 0.  1.
         13    1    4    4    0    0 -0.11702684030E+03  0.10315382702E+03 -0.13787493425E+02  0.15660810809E+03  0.10566000000E+00 0.  1.
    -200003    1    4    4    0    0 -0.44138866791E+03  0.49091808287E+02  0.89086239532E+02  0.45394968870E+03  0.30000000000E+02 0.  1.
    -200000    1    3    3    0    0 -0.56783369448E+02 -0.19218631718E+03  0.20194059585E+03  0.30189557103E+03  0.10100000000E+03 0.  1.
<mgrwt>
<rscale>  0 0.18179604E+04</rscale>
<asrwt>0</asrwt>
<pdfrwt beam="1">  1        2 0.12818667E+00 0.18179604E+04</pdfrwt>
<pdfrwt beam="2">  1       -2 0.13154366E+00 0.18179604E+04</pdfrwt>
<totfact> 0.13013605E+01</totfact>
</mgrwt>
</event>
<event>
 8    2  0.4480234E-052  0.1854062E+04  0.7818608E-02  0.8678067E-01
          2   -1    0    0  501    0  0.00000000000E+00  0.00000000000E+00  0.15353145808E+04  0.15353145808E+04  0.25500000000E-02 0.  1.
         -2   -1    0    0    0  501 -0.00000000000E+00 -0.00000000000E+00 -0.55974621061E+03  0.55974621062E+03  0.25500000000E-02 0. -1.
    -200001    2    1    2    0    0 -0.38559065882E+03  0.18289581111E+03 -0.13262184252E+03  0.75865307615E+03  0.61305375208E+03 0.  0.
   -5000001    2    3    3    0    0  0.93340472382E+02  0.12886896308E+03 -0.19413780160E+03  0.26238788296E+03  0.76408518397E+02 0.  0.
     200001    1    1    2    0    0  0.38559065882E+03 -0.18289581111E+03  0.11081902127E+04  0.13364077152E+04  0.61300000000E+03 0.  1.
         13    1    4    4    0    0  0.49293692333E+02  0.41562767130E+02 -0.11943163579E+03  0.13572493694E+03  0.10566000000E+00 0.  1.
    -200003    1    4    4    0    0  0.44046780049E+02  0.87306195955E+02 -0.74706165803E+02  0.12666294602E+03  0.30000000000E+02 0.  1.
    -200000    1    3    3    0    0 -0.47893113121E+03  0.54026848022E+02  0.61515959082E+02  0.49626519319E+03  0.10100000000E+03 0.  1.
<mgrwt>
<rscale>  0 0.18540620E+04</rscale>
<asrwt>0</asrwt>
<pdfrwt beam="1">  1        2 0.21933066E+00 0.18540620E+04</pdfrwt>
<pdfrwt beam="2">  1       -2 0.79963744E-01 0.18540620E+04</pdfrwt>
<totfact> 0.18270136E+01</totfact>
</mgrwt>
</event>
<event>
 8    2  0.4480234E-052  0.1316440E+04  0.7818608E-02  0.9016629E-01
          2   -1    0    0  501    0  0.00000000000E+00  0.00000000000E+00  0.17553647493E+04  0.17553647493E+04  0.25500000000E-02 0.  1.
         -2   -1    0    0    0  501 -0.00000000000E+00 -0.00000000000E+00 -0.24681674527E+03  0.24681674529E+03  0.25500000000E-02 0. -1.
    -200001    2    1    2    0    0  0.11681184494E+03 -0.20760088393E+03  0.79817696512E+03  0.10341220196E+04  0.61284480068E+03 0.  0.
   -5000001    2    3    3    0    0  0.50465281432E+02  0.94390068400E+02 -0.30814182845E+02  0.14360097823E+03  0.90639381294E+02 0.  0.
     200001    1    1    2    0    0 -0.11681184494E+03  0.20760088393E+03  0.71037103890E+03  0.96805947494E+03  0.61300000000E+03 0. -1.
         13    1    4    4    0    0 -0.17201936769E+02  0.51778952333E+02 -0.75543845020E+01  0.55082178811E+02  0.10566000000E+00 0.  1.
    -200003    1    4    4    0    0  0.67667218200E+02  0.42611116067E+02 -0.23259798343E+02  0.88518799418E+02  0.30000000000E+02 0. -1.
    -200000    1    3    3    0    0  0.66346563510E+02 -0.30199095233E+03  0.82899114797E+03  0.89052104141E+03  0.10100000000E+03 0.  1.
<mgrwt>
<rscale>  0 0.13164398E+04</rscale>
<asrwt>0</asrwt>
<pdfrwt beam="1">  1        2 0.25076639E+00 0.13164398E+04</pdfrwt>
<pdfrwt beam="2">  1       -2 0.35259535E-01 0.13164398E+04</pdfrwt>
<totfact> 0.79391012E+01</totfact>
</mgrwt>
</event>
<event>
 8    2  0.4480234E-052  0.1746034E+04  0.7818608E-02  0.8735536E-01
         -2   -1    0    0    0  501 -0.00000000000E+00  0.00000000000E+00  0.51556864585E+03  0.51556864585E+03  0.25500000000E-02 0.  1.
          2   -1    0    0  501    0  0.00000000000E+00 -0.00000000000E+00 -0.14782882883E+04  0.14782882883E+04  0.25500000000E-02 0. -1.
    -200001    2    1    2    0    0 -0.55530186127E+03 -0.38773739700E+02 -0.79705763675E+03  0.11494183869E+04  0.61318691423E+03 0.  0.
   -5000001    2    3    3    0    0  0.36812998717E+02 -0.51525919948E+02 -0.43514465427E+03  0.44803073914E+03  0.85851940997E+02 0.  0.
     200001    1    1    2    0    0  0.55530186127E+03  0.38773739700E+02 -0.16566200573E+03  0.84443854730E+03  0.61300000000E+03 0.  1.
         13    1    4    4    0    0 -0.12768155951E+02  0.47818364096E+01 -0.15352252996E+02  0.20532768978E+02  0.10566000000E+00 0.  1.
    -200003    1    4    4    0    0  0.49581154668E+02 -0.56307756357E+02 -0.41979240127E+03  0.42749797016E+03  0.30000000000E+02 0.  1.
    -200000    1    3    3    0    0 -0.59211485999E+03  0.12752180248E+02 -0.36191298248E+03  0.70138764774E+03  0.10100000000E+03 0.  1.
<mgrwt>
<rscale>  0 0.17460345E+04</rscale>
<asrwt>0</asrwt>
<pdfrwt beam="1">  1        2 0.21118404E+00 0.17460345E+04</pdfrwt>
<pdfrwt beam="2">  1       -2 0.73652664E-01 0.17460345E+04</pdfrwt>
<totfact> 0.23728544E+01</totfact>
</mgrwt>
</event>
<event>
 8    2  0.4480234E-052  0.1522843E+04  0.7818608E-02  0.8869403E-01
          2   -1    0    0  501    0  0.00000000000E+00  0.00000000000E+00  0.35020449007E+04  0.35020449007E+04  0.25500000000E-02 0.  1.
         -2   -1    0    0    0  501 -0.00000000000E+00 -0.00000000000E+00 -0.16554966639E+03  0.16554966641E+03  0.25500000000E-02 0. -1.
    -200001    2    1    2    0    0 -0.12830467460E+03 -0.42397526921E+03  0.18768503883E+04  0.20236513823E+04  0.61349850737E+03 0.  0.
   -5000001    2    3    3    0    0  0.13734100859E+03 -0.33120510268E+03  0.12428626639E+04  0.13227124638E+04  0.27622687745E+03 0.  0.
     200001    1    1    2    0    0  0.12830467460E+03  0.42397526921E+03  0.14596448460E+04  0.16439431848E+04  0.61300000000E+03 0. -1.
         13    1    4    4    0    0  0.10959165977E+03 -0.28138237562E+03  0.12159408796E+04  0.12528761340E+04  0.10566000000E+00 0.  1.
    -200003    1    4    4    0    0  0.27749348816E+02 -0.49822727058E+02  0.26921784292E+02  0.69836329805E+02  0.30000000000E+02 0.  1.
    -200000    1    3    3    0    0 -0.26564568318E+03 -0.92770166529E+02  0.63398772439E+03  0.70093891850E+03  0.10100000000E+03 0. -1.
<mgrwt>
<rscale>  0 0.15228426E+04</rscale>
<asrwt>0</asrwt>
<pdfrwt beam="1">  1        2 0.50029210E+00 0.15228426E+04</pdfrwt>
<pdfrwt beam="2">  1       -2 0.23649953E-01 0.15228426E+04</pdfrwt>
<totfact> 0.18549659E+01</totfact>
</mgrwt>
</event>
<event>
 8    2  0.4480234E-052  0.1329386E+04  0.7818608E-02  0.9006581E-01
          2   -1    0    0  501    0  0.00000000000E+00  0.00000000000E+00  0.33515022289E+03  0.33515022290E+03  0.25500000000E-02 0.  1.
         -2   -1    0    0    0  501 -0.00000000000E+00 -0.00000000000E+00 -0.13182658412E+04  0.13182658412E+04  0.25500000000E-02 0. -1.
    -200001    2    1    2    0    0 -0.38208686877E+02  0.25034985086E+03 -0.55702922646E+03  0.86509280243E+03  0.61153008601E+03 0.  0.
   -5000001    2    3    3    0    0  0.19362909123E+03 -0.21242932784E+02 -0.85596664930E+02  0.26512525701E+03  0.15818067421E+03 0.  0.
     200001    1    1    2    0    0  0.38208686877E+02 -0.25034985086E+03 -0.42608639183E+03  0.78832326166E+03  0.61300000000E+03 0. -1.
         13    1    4    4    0    0  0.62530244374E+02  0.35139275609E+02  0.31269295136E+02  0.78246917729E+02  0.10566000000E+00 0.  1.
    -200003    1    4    4    0    0  0.13109884685E+03 -0.56382208394E+02 -0.11686596007E+03  0.18687833928E+03  0.30000000000E+02 0.  1.
    -200000    1    3    3    0    0 -0.23183777810E+03  0.27159278364E+03 -0.47143256153E+03  0.59996754542E+03  0.10100000000E+03 0. -1.
<mgrwt>
<rscale>  0 0.13293865E+04</rscale>
<asrwt>0</asrwt>
<pdfrwt beam="1">  1        2 0.47878604E-01 0.13293865E+04</pdfrwt>
<pdfrwt beam="2">  1       -2 0.18832369E+00 0.13293865E+04</pdfrwt>
<totfact> 0.16409424E+01</totfact>
</mgrwt>
</event>
<event>
 8    2  0.4480234E-052  0.2009291E+04  0.7818608E-02  0.8602289E-01
          2   -1    0    0  501    0  0.00000000000E+00  0.00000000000E+00  0.15103815566E+04  0.15103815566E+04  0.25500000000E-02 0.  1.
         -2   -1    0    0    0  501 -0.00000000000E+00 -0.00000000000E+00 -0.66825008453E+03  0.66825008454E+03  0.25500000000E-02 0. -1.
    -200001    2    1    2    0    0 -0.61817369312E+03 -0.27466933794E+03 -0.33433254944E+02  0.91373458950E+03  0.61336054442E+03 0.  0.
   -5000001    2    3    3    0    0 -0.31682624731E+03 -0.92532793856E+02 -0.30558508201E+03  0.45738864533E+03  0.82951441264E+02 0.  0.
     200001    1    1    2    0    0  0.61817369312E+03  0.27466933794E+03  0.87556472705E+03  0.12648970517E+04  0.61300000000E+03 0.  1.
         13    1    4    4    0    0 -0.16829495020E+03 -0.17987847688E+02 -0.17891598684E+03  0.24628782844E+03  0.10566000000E+00 0.  1.
    -200003    1    4    4    0    0 -0.14853129711E+03 -0.74544946168E+02 -0.12666909517E+03  0.21110081689E+03  0.30000000000E+02 0.  1.
    -200000    1    3    3    0    0 -0.30134744581E+03 -0.18213654409E+03  0.27215182707E+03  0.45634594417E+03  0.10100000000E+03 0.  1.
<mgrwt>
<rscale>  0 0.20092910E+04</rscale>
<asrwt>0</asrwt>
<pdfrwt beam="1">  1        2 0.21576880E+00 0.20092910E+04</pdfrwt>
<pdfrwt beam="2">  1       -2 0.95464296E-01 0.20092910E+04</pdfrwt>
<totfact> 0.12398110E+01</totfact>
</mgrwt>
</event>
<event>
 8    2  0.4480234E-052  0.1813531E+04  0.7818608E-02  0.8699137E-01
         -2   -1    0    0    0  501 -0.00000000000E+00  0.00000000000E+00  0.16336372692E+04  0.16336372692E+04  0.25500000000E-02 0. -1.
          2   -1    0    0  501    0  0.00000000000E+00 -0.00000000000E+00 -0.50330837028E+03  0.50330837029E+03  0.25500000000E-02 0.  1.
    -200001    2    1    2    0    0  0.53880384503E+03  0.39309487242E+03  0.60893828603E+03  0.10917421505E+04  0.61340192767E+03 0.  0.
   -5000001    2    3    3    0    0  0.10282264991E+03 -0.15541903596E+03  0.10261644972E+03  0.22139169690E+03  0.61290893541E+02 0.  0.
     200001    1    1    2    0    0 -0.53880384503E+03 -0.39309487242E+03  0.52139061287E+03  0.10452034890E+04  0.61300000000E+03 0.  1.
         13    1    4    4    0    0  0.20996177631E+02 -0.71220325332E+02  0.48414994111E+02  0.88640831643E+02  0.10566000000E+00 0.  1.
    -200003    1    4    4    0    0  0.81826472280E+02 -0.84198710625E+02  0.54201455606E+02  0.13275086526E+03  0.30000000000E+02 0.  1.
    -200000    1    3    3    0    0  0.43598119512E+03  0.54851390838E+03  0.50632183632E+03  0.87035045362E+03  0.10100000000E+03 0. -1.
<mgrwt>
<rscale>  0 0.18135306E+04</rscale>
<asrwt>0</asrwt>
<pdfrwt beam="1">  1        2 0.71901194E-01 0.18135306E+04</pdfrwt>
<pdfrwt beam="2">  1       -2 0.23337676E+00 0.18135306E+04</pdfrwt>
<totfact> 0.51302895E+00</totfact>
</mgrwt>
</event>
<event>
 8    2  0.4480234E-052  0.1281705E+04  0.7818608E-02  0.9044201E-01
          2   -1    0    0  501    0  0.00000000000E+00  0.00000000000E+00  0.83256118134E+03  0.83256118135E+03  0.25500000000E-02 0.  1.
         -2   -1    0    0    0  501 -0.00000000000E+00 -0.00000000000E+00 -0.49328707673E+03  0.49328707674E+03  0.25500000000E-02 0. -1.
    -200001    2    1    2    0    0  0.61384854053E+02 -0.95132066534E+02  0.32356679872E+03  0.70228276044E+03  0.61293343194E+03 0.  0.
   -5000001    2    3    3    0    0 -0.24601075226E+03  0.13398171801E+02  0.53537872332E+02  0.26709602753E+03  0.88165656108E+02 0.  0.
     200001    1    1    2    0    0 -0.61384854053E+02  0.95132066534E+02  0.15707305891E+02  0.62356549764E+03  0.61300000000E+03 0. -1.
         13    1    4    4    0    0 -0.10165257896E+03  0.41853786291E+02  0.81974907300E+01  0.11023700039E+03  0.10566000000E+00 0.  1.
    -200003    1    4    4    0    0 -0.14435817329E+03 -0.28455614489E+02  0.45340381602E+02  0.15685902714E+03  0.30000000000E+02 0.  1.
    -200000    1    3    3    0    0  0.30739560631E+03 -0.10853023833E+03  0.27002892639E+03  0.43518673291E+03  0.10100000000E+03 0.  1.
<mgrwt>
<rscale>  0 0.12817046E+04</rscale>
<asrwt>0</asrwt>
<pdfrwt beam="1">  1        2 0.11893731E+00 0.12817046E+04</pdfrwt>
<pdfrwt beam="2">  1       -2 0.70469582E-01 0.12817046E+04</pdfrwt>
<totfact> 0.64959238E+01</totfact>
</mgrwt>
</event>
<event>
 8    2  0.4480234E-052  0.2485537E+04  0.7818608E-02  0.8408156E-01
         -2   -1    0    0    0  501 -0.00000000000E+00  0.00000000000E+00  0.12561193270E+04  0.12561193270E+04  0.25500000000E-02 0. -1.
          2   -1    0    0  501    0  0.00000000000E+00 -0.00000000000E+00 -0.12295600069E+04  0.12295600069E+04  0.25500000000E-02 0.  1.
    -200001    2    1    2    0    0 -0.94856618930E+02  0.49589956934E+03  0.96865181846E+03  0.12535180472E+04  0.61490404798E+03 0.  0.
   -5000001    2    3    3    0    0  0.22391099407E+03  0.26448294597E+03  0.28671752340E+03  0.45953956673E+03  0.94246024823E+02 0.  0.
     200001    1    1    2    0    0  0.94856618930E+02 -0.49589956934E+03 -0.94209249837E+03  0.12321612867E+04  0.61300000000E+03 0.  1.
         13    1    4    4    0    0  0.45422731479E+02  0.10971176890E+03  0.71841542291E+02  0.13878441963E+03  0.10566000000E+00 0.  1.
    -200003    1    4    4    0    0  0.17848826259E+03  0.15477117707E+03  0.21487598111E+03  0.32075514710E+03  0.30000000000E+02 0.  1.
    -200000    1    3    3    0    0 -0.31876761300E+03  0.23141662337E+03  0.68193429506E+03  0.79397848047E+03  0.10100000000E+03 0. -1.
<mgrwt>
<rscale>  0 0.24855374E+04</rscale>
<asrwt>0</asrwt>
<pdfrwt beam="1">  1        2 0.17565143E+00 0.24855374E+04</pdfrwt>
<pdfrwt beam="2">  1       -2 0.17944562E+00 0.24855374E+04</pdfrwt>
<totfact> 0.33775930E+00</totfact>
</mgrwt>
</event>
<event>
 8    2  0.4480234E-052  0.1443966E+04  0.7818608E-02  0.8922594E-01
         -2   -1    0    0    0  501 -0.00000000000E+00  0.00000000000E+00  0.94947238147E+03  0.94947238147E+03  0.25500000000E-02 0. -1.
          2   -1    0    0  501    0  0.00000000000E+00 -0.00000000000E+00 -0.54899943502E+03  0.54899943503E+03  0.25500000000E-02 0.  1.
    -200001    2    1    2    0    0 -0.18745476301E+03  0.22688608144E+03 -0.51793817506E+02  0.68181349878E+03  0.61283804179E+03 0.  0.
   -5000001    2    3    3    0    0 -0.37101274110E+03  0.12715151236E+03 -0.15341462686E+03  0.42849886344E+03  0.79102889220E+02 0.  0.
     200001    1    1    2    0    0  0.18745476301E+03 -0.22688608144E+03  0.45226676395E+03  0.81665831772E+03  0.61300000000E+03 0. -1.
         13    1    4    4    0    0 -0.87430180115E+02  0.48863824978E+02 -0.12535862939E+02  0.10093992674E+03  0.10566000000E+00 0.  1.
    -200003    1    4    4    0    0 -0.28358256098E+03  0.78287687380E+02 -0.14087876392E+03  0.32755893670E+03  0.30000000000E+02 0.  1.
    -200000    1    3    3    0    0  0.18355797809E+03  0.99734569077E+02  0.10162080935E+03  0.25331463535E+03  0.10100000000E+03 0. -1.
<mgrwt>
<rscale>  0 0.14439665E+04</rscale>
<asrwt>0</asrwt>
<pdfrwt beam="1">  1        2 0.78428490E-01 0.14439665E+04</pdfrwt>
<pdfrwt beam="2">  1       -2 0.13563891E+00 0.14439665E+04</pdfrwt>
<totfact> 0.22814565E+01</totfact>
</mgrwt>
</event>
<event>
 8    2  0.4480234E-052  0.3372213E+04  0.7818608E-02  0.8144760E-01
          2   -1    0    0  501    0  0.00000000000E+00  0.00000000000E+00  0.24841861983E+04  0.24841861983E+04  0.25500000000E-02 0.  1.
         -2   -1    0    0    0  501 -0.00000000000E+00 -0.00000000000E+00 -0.11444211313E+04  0.11444211313E+04  0.25500000000E-02 0. -1.
    -200001    2    1    2    0    0 -0.35448500455E+03 -0.14815147474E+04  0.10820384510E+04  0.19664588484E+04  0.61286836098E+03 0.  0.
   -5000001    2    3    3    0    0 -0.42219855438E+01 -0.26271567606E+03 -0.32467927302E+02  0.27516324267E+03  0.74988613820E+02 0.  0.
     200001    1    1    2    0    0  0.35448500455E+03  0.14815147474E+04  0.25772661607E+03  0.16621484813E+04  0.61300000000E+03 0. -1.
         13    1    4    4    0    0  0.22240498837E+02 -0.31480091848E+02 -0.32464085086E+01  0.38680567518E+02  0.10566000000E+00 0.  1.
    -200003    1    4    4    0    0 -0.26462484381E+02 -0.23123558421E+03 -0.29221518794E+02  0.23648267515E+03  0.30000000000E+02 0.  1.
    -200000    1    3    3    0    0 -0.35026301901E+03 -0.12187990713E+04  0.11145063783E+04  0.16912956057E+04  0.10100000000E+03 0.  1.
<mgrwt>
<rscale>  0 0.33722130E+04</rscale>
<asrwt>0</asrwt>
<pdfrwt beam="1">  1        2 0.35488374E+00 0.33722130E+04</pdfrwt>
<pdfrwt beam="2">  1       -2 0.16348874E+00 0.33722130E+04</pdfrwt>
<totfact> 0.89410060E-01</totfact>
</mgrwt>
</event>
<event>
 8    2  0.4480234E-052  0.1450420E+04  0.7818608E-02  0.8918110E-01
         -2   -1    0    0    0  501 -0.00000000000E+00  0.00000000000E+00  0.10698762011E+04  0.10698762011E+04  0.25500000000E-02 0. -1.
          2   -1    0    0  501    0  0.00000000000E+00 -0.00000000000E+00 -0.49157967226E+03  0.49157967227E+03  0.25500000000E-02 0.  1.
    -200001    2    1    2    0    0 -0.21083838663E+03  0.73392793519E+02 -0.51397288398E+02  0.65474609019E+03  0.61336076982E+03 0.  0.
   -5000001    2    3    3    0    0 -0.28108959563E+03  0.26567982909E+03 -0.12621061716E+03  0.41452208936E+03  0.79387091655E+02 0.  0.
     200001    1    1    2    0    0  0.21083838663E+03 -0.73392793519E+02  0.62969381719E+03  0.90670978313E+03  0.61300000000E+03 0. -1.
         13    1    4    4    0    0 -0.39357026698E+02  0.94245586498E+01 -0.21283703701E+02  0.45725321907E+02  0.10566000000E+00 0.  1.
    -200003    1    4    4    0    0 -0.24173256893E+03  0.25625527044E+03 -0.10492691346E+03  0.36879676745E+03  0.30000000000E+02 0.  1.
    -200000    1    3    3    0    0  0.70251209000E+02 -0.19228703558E+03  0.74813328767E+02  0.24022400084E+03  0.10100000000E+03 0. -1.
<mgrwt>
<rscale>  0 0.14504198E+04</rscale>
<asrwt>0</asrwt>
<pdfrwt beam="1">  1        2 0.70225667E-01 0.14504198E+04</pdfrwt>
<pdfrwt beam="2">  1       -2 0.15283946E+00 0.14504198E+04</pdfrwt>
<totfact> 0.18943144E+01</totfact>
</mgrwt>
</event>
<event>
 8    2  0.4480234E-052  0.1446666E+04  0.7818608E-02  0.8920715E-01
          2   -1    0    0  501    0  0.00000000000E+00  0.00000000000E+00  0.40594622710E+03  0.40594622710E+03  0.25500000000E-02 0.  1.
         -2   -1    0    0    0  501 -0.00000000000E+00 -0.00000000000E+00 -0.12888662977E+04  0.12888662977E+04  0.25500000000E-02 0. -1.
    -200001    2    1    2    0    0  0.33762779872E+03  0.34949638624E+02 -0.23022194861E+03  0.73721247982E+03  0.61258965636E+03 0.  0.
   -5000001    2    3    3    0    0  0.29590962755E+03 -0.23445626562E+03 -0.49737585843E+02  0.39502020602E+03  0.10504707306E+03 0.  0.
     200001    1    1    2    0    0 -0.33762779872E+03 -0.34949638624E+02 -0.65269812202E+03  0.95760004500E+03  0.61300000000E+03 0. -1.
         13    1    4    4    0    0  0.48559598977E+02 -0.86355446850E+02 -0.33979001983E+02  0.10473720253E+03  0.10566000000E+00 0.  1.
    -200003    1    4    4    0    0  0.24735002857E+03 -0.14810081877E+03 -0.15758583860E+02  0.29028300350E+03  0.30000000000E+02 0.  1.
    -200000    1    3    3    0    0  0.41718171170E+02  0.26940590424E+03 -0.18048436276E+03  0.34219227380E+03  0.10100000000E+03 0.  1.
<mgrwt>
<rscale>  0 0.14466657E+04</rscale>
<asrwt>0</asrwt>
<pdfrwt beam="1">  1        2 0.57992319E-01 0.14466657E+04</pdfrwt>
<pdfrwt beam="2">  1       -2 0.18412376E+00 0.14466657E+04</pdfrwt>
<totfact> 0.14026155E+01</totfact>
</mgrwt>
</event>
<event>
 8    2  0.4480234E-052  0.1235357E+04  0.7818608E-02  0.9082460E-01
          2   -1    0    0  501    0  0.00000000000E+00  0.00000000000E+00  0.22595026020E+04  0.22595026020E+04  0.25500000000E-02 0.  1.
         -2   -1    0    0    0  501 -0.00000000000E+00 -0.00000000000E+00 -0.16885421968E+03  0.16885421970E+03  0.25500000000E-02 0. -1.
    -200001    2    1    2    0    0  0.23987027203E+02  0.47243024741E+02  0.11677728153E+04  0.13191789311E+04  0.61133658748E+03 0.  0.
   -5000001    2    3    3    0    0 -0.18695774342E+03 -0.14887633752E+03  0.26613223752E+03  0.36727702857E+03  0.83358779798E+02 0.  0.
     200001    1    1    2    0    0 -0.23987027203E+02 -0.47243024741E+02  0.92287556701E+03  0.11091778906E+04  0.61300000000E+03 0. -1.
         13    1    4    4    0    0 -0.38596943568E+01  0.41274909390E+01  0.28977365721E+02  0.29523419689E+02  0.10566000000E+00 0.  1.
    -200003    1    4    4    0    0 -0.18309804906E+03 -0.15300382846E+03  0.23715487180E+03  0.33775360888E+03  0.30000000000E+02 0.  1.
    -200000    1    3    3    0    0  0.21094477062E+03  0.19611936226E+03  0.90164057779E+03  0.95190190252E+03  0.10100000000E+03 0.  1.
<mgrwt>
<rscale>  0 0.12353567E+04</rscale>
<asrwt>0</asrwt>
<pdfrwt beam="1">  1        2 0.32278606E+00 0.12353567E+04</pdfrwt>
<pdfrwt beam="2">  1       -2 0.24122033E-01 0.12353567E+04</pdfrwt>
<totfact> 0.88950729E+01</totfact>
</mgrwt>
</event>
<event>
 8    2  0.4480234E-052  0.1275839E+04  0.7818608E-02  0.9048948E-01
         -2   -1    0    0    0  501 -0.00000000000E+00  0.00000000000E+00  0.24060369083E+03  0.24060369085E+03  0.25500000000E-02 0. -1.
          2   -1    0    0  501    0  0.00000000000E+00 -0.00000000000E+00 -0.16913333158E+04  0.16913333158E+04  0.25500000000E-02 0.  1.
    -200001    2    1    2    0    0  0.11452241502E+03  0.15205956313E+03 -0.67817259695E+03  0.92752132785E+03  0.60344034344E+03 0.  0.
   -5000001    2    3    3    0    0 -0.19198189593E+03  0.13892114523E+03 -0.49509955490E+03  0.55626097529E+03  0.90258353695E+02 0.  0.
     200001    1    1    2    0    0 -0.11452241502E+03 -0.15205956313E+03 -0.77255702804E+03  0.10044156788E+04  0.61300000000E+03 0.  1.
         13    1    4    4    0    0 -0.10604860341E+03  0.28135789412E+02 -0.19776328506E+03  0.22615980414E+03  0.10566000000E+00 0.  1.
    -200003    1    4    4    0    0 -0.85933292528E+02  0.11078535582E+03 -0.29733626984E+03  0.33010117114E+03  0.30000000000E+02 0.  1.
    -200000    1    3    3    0    0  0.30650431096E+03  0.13138417896E+02 -0.18307304205E+03  0.37126035256E+03  0.10100000000E+03 0.  1.
<mgrwt>
<rscale>  0 0.12758386E+04</rscale>
<asrwt>0</asrwt>
<pdfrwt beam="1">  1        2 0.24161904E+00 0.12758386E+04</pdfrwt>
<pdfrwt beam="2">  1       -2 0.34371957E-01 0.12758386E+04</pdfrwt>
<totfact> 0.90228590E+01</totfact>
</mgrwt>
</event>
<event>
 8    2  0.4480234E-052  0.1548212E+04  0.7818608E-02  0.8853011E-01
          2   -1    0    0  501    0  0.00000000000E+00  0.00000000000E+00  0.43035482120E+03  0.43035482121E+03  0.25500000000E-02 0.  1.
         -2   -1    0    0    0  501 -0.00000000000E+00 -0.00000000000E+00 -0.13924320680E+04  0.13924320680E+04  0.25500000000E-02 0. -1.
    -200001    2    1    2    0    0  0.40313853840E+03 -0.88018004687E+02 -0.18534989507E+03  0.75071309081E+03  0.59912245061E+03 0.  0.
   -5000001    2    3    3    0    0  0.61905385367E+02 -0.11154354245E+03 -0.30503183366E+03  0.37452393350E+03  0.17592475271E+03 0.  0.
     200001    1    1    2    0    0 -0.40313853840E+03  0.88018004687E+02 -0.77672735178E+03  0.10720737984E+04  0.61300000000E+03 0. -1.
         13    1    4    4    0    0  0.10542452784E+03 -0.11866408743E+03 -0.18894096217E+03  0.24676749191E+03  0.10566000000E+00 0.  1.
    -200003    1    4    4    0    0 -0.43519142472E+02  0.71205449773E+01 -0.11609087149E+03  0.12775644158E+03  0.30000000000E+02 0.  1.
    -200000    1    3    3    0    0  0.34123315303E+03  0.23525537767E+02  0.11968193859E+03  0.37618915732E+03  0.10100000000E+03 0.  1.
<mgrwt>
<rscale>  0 0.15482117E+04</rscale>
<asrwt>0</asrwt>
<pdfrwt beam="1">  1        2 0.61479261E-01 0.15482117E+04</pdfrwt>
<pdfrwt beam="2">  1       -2 0.19891886E+00 0.15482117E+04</pdfrwt>
<totfact> 0.10378089E+01</totfact>
</mgrwt>
</event>
<event>
 8    2  0.4480234E-052  0.1802799E+04  0.7818608E-02  0.8704812E-01
          2   -1    0    0  501    0  0.00000000000E+00  0.00000000000E+00  0.42768976592E+03  0.42768976593E+03  0.25500000000E-02 0.  1.
         -2   -1    0    0    0  501 -0.00000000000E+00 -0.00000000000E+00 -0.18997913225E+04  0.18997913225E+04  0.25500000000E-02 0. -1.
    -200001    2    1    2    0    0 -0.25553384783E+02  0.62945469965E+03 -0.99915073291E+03  0.13293239485E+04  0.60986373773E+03 0.  0.
   -5000001    2    3    3    0    0 -0.91165569025E+02  0.43492724185E+03 -0.19487690354E+03  0.49314018690E+03  0.87962319921E+02 0.  0.
     200001    1    1    2    0    0  0.25553384783E+02 -0.62945469965E+03 -0.47295082367E+03  0.99815713993E+03  0.61300000000E+03 0.  1.
         13    1    4    4    0    0  0.87688866339E+01  0.43127047199E+02 -0.38834962145E+02  0.58694131067E+02  0.10566000000E+00 0.  1.
    -200003    1    4    4    0    0 -0.99934455658E+02  0.39180019465E+03 -0.15604194140E+03  0.43444605583E+03  0.30000000000E+02 0.  1.
    -200000    1    3    3    0    0  0.65612184242E+02  0.19452745780E+03 -0.80427382937E+03  0.83618376161E+03  0.10100000000E+03 0.  1.
<mgrwt>
<rscale>  0 0.18027993E+04</rscale>
<asrwt>0</asrwt>
<pdfrwt beam="1">  1        2 0.61098539E-01 0.18027993E+04</pdfrwt>
<pdfrwt beam="2">  1       -2 0.27139876E+00 0.18027993E+04</pdfrwt>
<totfact> 0.36098553E+00</totfact>
</mgrwt>
</event>
<event>
 8    2  0.4480234E-052  0.1734596E+04  0.7818608E-02  0.8741875E-01
         -2   -1    0    0    0  501 -0.00000000000E+00  0.00000000000E+00  0.45550859957E+03  0.45550859958E+03  0.25500000000E-02 0. -1.
          2   -1    0    0  501    0  0.00000000000E+00 -0.00000000000E+00 -0.16513532778E+04  0.16513532778E+04  0.25500000000E-02 0.  1.
    -200001    2    1    2    0    0 -0.43042761990E+03 -0.43543722338E+03 -0.64246894399E+03  0.10788214041E+04  0.61336430155E+03 0.  0.
   -5000001    2    3    3    0    0 -0.37032802964E+03 -0.45280271072E+03 -0.72442252745E+03  0.93449222912E+03  0.79464354425E+02 0.  0.
     200001    1    1    2    0    0  0.43042761990E+03  0.43543722338E+03 -0.55337573420E+03  0.10280404733E+04  0.61300000000E+03 0. -1.
         13    1    4    4    0    0 -0.33770455572E+02 -0.60801199353E+02 -0.12073823812E+03  0.13933758581E+03  0.10566000000E+00 0.  1.
    -200003    1    4    4    0    0 -0.33655757407E+03 -0.39200151137E+03 -0.60368428934E+03  0.79515464331E+03  0.30000000000E+02 0.  1.
    -200000    1    3    3    0    0 -0.60099590257E+02  0.17365487343E+02  0.81953583466E+02  0.14432917495E+03  0.10100000000E+03 0. -1.
<mgrwt>
<rscale>  0 0.17345958E+04</rscale>
<asrwt>0</asrwt>
<pdfrwt beam="1">  1        2 0.23590761E+00 0.17345958E+04</pdfrwt>
<pdfrwt beam="2">  1       -2 0.65072658E-01 0.17345958E+04</pdfrwt>
<totfact> 0.25200425E+01</totfact>
</mgrwt>
</event>
<event>
 8    2  0.4480234E-052  0.1875445E+04  0.7818608E-02  0.8667177E-01
         -2   -1    0    0    0  501 -0.00000000000E+00  0.00000000000E+00  0.40074840753E+03  0.40074840753E+03  0.25500000000E-02 0. -1.
          2   -1    0    0  501    0  0.00000000000E+00 -0.00000000000E+00 -0.21942024306E+04  0.21942024306E+04  0.25500000000E-02 0.  1.
    -200001    2    1    2    0    0  0.96430907140E+02  0.62179263752E+03 -0.13520849369E+04  0.16118431766E+04  0.61153883402E+03 0.  0.
   -5000001    2    3    3    0    0 -0.11280374598E+03  0.59004233728E+03 -0.74963299353E+03  0.96536304105E+03  0.95401945103E+02 0.  0.
     200001    1    1    2    0    0 -0.96430907140E+02 -0.62179263752E+03 -0.44136908621E+03  0.98310766154E+03  0.61300000000E+03 0.  1.
         13    1    4    4    0    0 -0.81227909693E+02  0.22828430242E+03 -0.33386607924E+03  0.41252668529E+03  0.10566000000E+00 0.  1.
    -200003    1    4    4    0    0 -0.31575836292E+02  0.36175803487E+03 -0.41576691429E+03  0.55283635576E+03  0.30000000000E+02 0. -1.
    -200000    1    3    3    0    0  0.20923465312E+03  0.31750300235E+02 -0.60245194337E+03  0.64648013558E+03  0.10100000000E+03 0.  1.
<mgrwt>
<rscale>  0 0.18754446E+04</rscale>
<asrwt>0</asrwt>
<pdfrwt beam="1">  1        2 0.31345748E+00 0.18754446E+04</pdfrwt>
<pdfrwt beam="2">  1       -2 0.57249774E-01 0.18754446E+04</pdfrwt>
<totfact> 0.17139447E+01</totfact>
</mgrwt>
</event>
<event>
 8    2  0.4480234E-052  0.1582524E+04  0.7818608E-02  0.8831357E-01
          2   -1    0    0  501    0  0.00000000000E+00  0.00000000000E+00  0.10491075643E+04  0.10491075643E+04  0.25500000000E-02 0.  1.
         -2   -1    0    0    0  501 -0.00000000000E+00 -0.00000000000E+00 -0.59678854193E+03  0.59678854194E+03  0.25500000000E-02 0. -1.
    -200001    2    1    2    0    0 -0.42823151157E+03 -0.10427673795E+03  0.47262030321E+03  0.89062330277E+03  0.61284912568E+03 0.  0.
   -5000001    2    3    3    0    0 -0.40147650241E+03 -0.24453617111E+03  0.10926268805E+03  0.48736371442E+03  0.67850822860E+02 0.  0.
     200001    1    1    2    0    0  0.42823151157E+03  0.10427673795E+03 -0.20301280897E+02  0.75527280342E+03  0.61300000000E+03 0.  1.
         13    1    4    4    0    0 -0.10459810423E+03 -0.45709562033E+02  0.63668968838E+01  0.11432705721E+03  0.10566000000E+00 0.  1.
    -200003    1    4    4    0    0 -0.29687839818E+03 -0.19882660908E+03  0.10289579117E+03  0.37303665721E+03  0.30000000000E+02 0.  1.
    -200000    1    3    3    0    0 -0.26755009164E+02  0.14025943316E+03  0.36335761516E+03  0.40325958836E+03  0.10100000000E+03 0.  1.
<mgrwt>
<rscale>  0 0.15825238E+04</rscale>
<asrwt>0</asrwt>
<pdfrwt beam="1">  1        2 0.14987251E+00 0.15825238E+04</pdfrwt>
<pdfrwt beam="2">  1       -2 0.85255507E-01 0.15825238E+04</pdfrwt>
<totfact> 0.30186208E+01</totfact>
</mgrwt>
</event>
<event>
 8    2  0.4480234E-052  0.1232343E+04  0.7818608E-02  0.9085008E-01
         -2   -1    0    0    0  501 -0.00000000000E+00  0.00000000000E+00  0.14636470199E+03  0.14636470201E+03  0.25500000000E-02 0. -1.
          2   -1    0    0  501    0  0.00000000000E+00 -0.00000000000E+00 -0.25939832808E+04  0.25939832808E+04  0.25500000000E-02 0.  1.
    -200001    2    1    2    0    0 -0.21343618188E+02 -0.43588348211E+02 -0.13439550110E+04  0.14769407781E+04  0.61055998569E+03 0.  0.
   -5000001    2    3    3    0    0 -0.30478483144E+02  0.24222938197E+03 -0.32184766182E+03  0.41078898121E+03  0.74549703169E+02 0.  0.
     200001    1    1    2    0    0  0.21343618188E+02  0.43588348211E+02 -0.11036635678E+04  0.12634072047E+04  0.61300000000E+03 0. -1.
         13    1    4    4    0    0  0.14208693290E+02  0.29137867726E+02 -0.22669044362E+02  0.39557540835E+02  0.10566000000E+00 0.  1.
    -200003    1    4    4    0    0 -0.44687176434E+02  0.21309151424E+03 -0.29917861746E+03  0.37123144037E+03  0.30000000000E+02 0.  1.
    -200000    1    3    3    0    0  0.91348649558E+01 -0.28581773018E+03 -0.10221073492E+04  0.10661517969E+04  0.10100000000E+03 0. -1.
<mgrwt>
<rscale>  0 0.12323434E+04</rscale>
<asrwt>0</asrwt>
<pdfrwt beam="1">  1        2 0.37056901E+00 0.12323434E+04</pdfrwt>
<pdfrwt beam="2">  1       -2 0.20909245E-01 0.12323434E+04</pdfrwt>
<totfact> 0.76882602E+01</totfact>
</mgrwt>
</event>
<event>
 8    2  0.4480234E-052  0.1357177E+04  0.7818608E-02  0.8985413E-01
          2   -1    0    0  501    0  0.00000000000E+00  0.00000000000E+00  0.14396750438E+04  0.14396750438E+04  0.25500000000E-02 0.  1.
         -2   -1    0    0    0  501 -0.00000000000E+00 -0.00000000000E+00 -0.31985142767E+03  0.31985142768E+03  0.25500000000E-02 0. -1.
    -200001    2    1    2    0    0 -0.89954470529E+02 -0.27423140597E+03  0.50768702888E+03  0.84641373352E+03  0.61267888670E+03 0.  0.
   -5000001    2    3    3    0    0 -0.20605877534E+03 -0.33956460331E+03  0.11350249459E+03  0.41824194167E+03  0.65415340518E+02 0.  0.
     200001    1    1    2    0    0  0.89954470529E+02  0.27423140597E+03  0.61213658725E+03  0.91311273797E+03  0.61300000000E+03 0. -1.
         13    1    4    4    0    0 -0.10848404350E+03 -0.15759307643E+03  0.30733129048E+02  0.19377539013E+03  0.10566000000E+00 0.  1.
    -200003    1    4    4    0    0 -0.97574731839E+02 -0.18197152688E+03  0.82769365545E+02  0.22446655154E+03  0.30000000000E+02 0.  1.
    -200000    1    3    3    0    0  0.11610430481E+03  0.65333197334E+02  0.39418453429E+03  0.42817179185E+03  0.10100000000E+03 0.  1.
<mgrwt>
<rscale>  0 0.13571767E+04</rscale>
<asrwt>0</asrwt>
<pdfrwt beam="1">  1        2 0.20566786E+00 0.13571767E+04</pdfrwt>
<pdfrwt beam="2">  1       -2 0.45693062E-01 0.13571767E+04</pdfrwt>
<totfact> 0.69857346E+01</totfact>
</mgrwt>
</event>
<event>
 8    2  0.4480234E-052  0.2224558E+04  0.7818608E-02  0.8508275E-01
         -2   -1    0    0    0  501 -0.00000000000E+00  0.00000000000E+00  0.40149993421E+03  0.40149993422E+03  0.25500000000E-02 0. -1.
          2   -1    0    0  501    0  0.00000000000E+00 -0.00000000000E+00 -0.30813580721E+04  0.30813580721E+04  0.25500000000E-02 0.  1.
    -200001    2    1    2    0    0 -0.76575068596E+03  0.18000619522E+03 -0.56727742315E+03  0.11467196072E+04  0.61187077023E+03 0.  0.
   -5000001    2    3    3    0    0 -0.33151103550E+03  0.11252720057E+02 -0.53569259071E+03  0.66897447535E+03  0.22479792384E+03 0.  0.
     200001    1    1    2    0    0  0.76575068596E+03 -0.18000619522E+03 -0.21125807148E+04  0.23361383991E+04  0.61300000000E+03 0.  1.
         13    1    4    4    0    0 -0.34596014597E+03 -0.12089674123E+02 -0.52143465350E+03  0.62588233068E+03  0.10566000000E+00 0.  1.
    -200003    1    4    4    0    0  0.14449110462E+02  0.23342394180E+02 -0.14257937204E+02  0.43092144673E+02  0.30000000000E+02 0.  1.
    -200000    1    3    3    0    0 -0.43423965046E+03  0.16875347516E+03 -0.31584832443E+02  0.47774513190E+03  0.10100000000E+03 0. -1.
<mgrwt>
<rscale>  0 0.22245584E+04</rscale>
<asrwt>0</asrwt>
<pdfrwt beam="1">  1        2 0.44019400E+00 0.22245584E+04</pdfrwt>
<pdfrwt beam="2">  1       -2 0.57357135E-01 0.22245584E+04</pdfrwt>
<totfact> 0.55387695E+00</totfact>
</mgrwt>
</event>
<event>
 8    2  0.4480234E-052  0.1316899E+04  0.7818608E-02  0.9016270E-01
         -2   -1    0    0    0  501 -0.00000000000E+00  0.00000000000E+00  0.22346284895E+04  0.22346284895E+04  0.25500000000E-02 0. -1.
          2   -1    0    0  501    0  0.00000000000E+00 -0.00000000000E+00 -0.19401690927E+03  0.19401690929E+03  0.25500000000E-02 0.  1.
    -200001    2    1    2    0    0 -0.19529410014E+03 -0.13934559316E+03  0.10091565022E+04  0.12050337129E+04  0.61331266364E+03 0.  0.
   -5000001    2    3    3    0    0 -0.15909881172E+03  0.13148378329E+03  0.18465152277E+03  0.33058067746E+03  0.18051864804E+03 0.  0.
     200001    1    1    2    0    0  0.19529410014E+03  0.13934559316E+03  0.10314550779E+04  0.12236116858E+04  0.61300000000E+03 0.  1.
         13    1    4    4    0    0 -0.93605210653E+02  0.13307836223E+02  0.16585209665E+03  0.19090825832E+03  0.10566000000E+00 0.  1.
    -200003    1    4    4    0    0 -0.65493601063E+02  0.11817594707E+03  0.18799426115E+02  0.13967241914E+03  0.30000000000E+02 0.  1.
    -200000    1    3    3    0    0 -0.36195288423E+02 -0.27082937645E+03  0.82450497948E+03  0.87445303547E+03  0.10100000000E+03 0. -1.
<mgrwt>
<rscale>  0 0.13168990E+04</rscale>
<asrwt>0</asrwt>
<pdfrwt beam="1">  1        2 0.27716703E-01 0.13168990E+04</pdfrwt>
<pdfrwt beam="2">  1       -2 0.31923263E+00 0.13168990E+04</pdfrwt>
<totfact> 0.46628217E+00</totfact>
</mgrwt>
</event>
<event>
 8    2  0.4480234E-052  0.1787314E+04  0.7818608E-02  0.8713075E-01
          2   -1    0    0  501    0  0.00000000000E+00  0.00000000000E+00  0.29137358318E+04  0.29137358318E+04  0.25500000000E-02 0.  1.
         -2   -1    0    0    0  501 -0.00000000000E+00 -0.00000000000E+00 -0.27408888306E+03  0.27408888307E+03  0.25500000000E-02 0. -1.
    -200001    2    1    2    0    0  0.18461504380E+03 -0.61810500238E+03  0.11784507119E+04  0.14769769861E+04  0.61365986409E+03 0.  0.
   -5000001    2    3    3    0    0  0.11118420003E+03 -0.47806615086E+03  0.11880287871E+04  0.12891054654E+04  0.97320763679E+02 0.  0.
     200001    1    1    2    0    0 -0.18461504380E+03  0.61810500238E+03  0.14611962368E+04  0.17108477287E+04  0.61300000000E+03 0. -1.
         13    1    4    4    0    0  0.74509638830E+02 -0.16262102843E+03  0.49053458767E+03  0.52213166733E+03  0.10566000000E+00 0.  1.
    -200003    1    4    4    0    0  0.36674561202E+02 -0.31544512243E+03  0.69749419945E+03  0.76697379810E+03  0.30000000000E+02 0.  1.
    -200000    1    3    3    0    0  0.73430843768E+02 -0.14003885152E+03 -0.95780752525E+01  0.18787152067E+03  0.10100000000E+03 0. -1.
<mgrwt>
<rscale>  0 0.17873137E+04</rscale>
<asrwt>0</asrwt>
<pdfrwt beam="1">  1        2 0.41624797E+00 0.17873137E+04</pdfrwt>
<pdfrwt beam="2">  1       -2 0.39155556E-01 0.17873137E+04</pdfrwt>
<totfact> 0.15424190E+01</totfact>
</mgrwt>
</event>
<event>
 8    2  0.4480234E-052  0.1410340E+04  0.7818608E-02  0.8946368E-01
          2   -1    0    0  501    0  0.00000000000E+00  0.00000000000E+00  0.20336848560E+04  0.20336848560E+04  0.25500000000E-02 0.  1.
         -2   -1    0    0    0  501 -0.00000000000E+00 -0.00000000000E+00 -0.24451407649E+03  0.24451407651E+03  0.25500000000E-02 0. -1.
    -200001    2    1    2    0    0 -0.49361952406E+02  0.94899968946E+02  0.35831745412E+03  0.71789356328E+03  0.61281087117E+03 0.  0.
   -5000001    2    3    3    0    0 -0.10436586210E+03  0.27494733415E+03  0.39392678853E+03  0.50130291599E+03  0.98173464459E+02 0.  0.
     200001    1    1    2    0    0  0.49361952406E+02 -0.94899968946E+02  0.14308533253E+04  0.15603053692E+04  0.61300000000E+03 0.  1.
         13    1    4    4    0    0 -0.13701897167E+02 -0.29572137529E+01  0.33175860920E+02  0.36015774474E+02  0.10566000000E+00 0.  1.
    -200003    1    4    4    0    0 -0.90663964929E+02  0.27790454790E+03  0.36075092761E+03  0.46528714151E+03  0.30000000000E+02 0.  1.
    -200000    1    3    3    0    0  0.55003909690E+02 -0.18004736520E+03 -0.35609334416E+02  0.21659064730E+03  0.10100000000E+03 0.  1.
<mgrwt>
<rscale>  0 0.14103398E+04</rscale>
<asrwt>0</asrwt>
<pdfrwt beam="1">  1        2 0.29052640E+00 0.14103398E+04</pdfrwt>
<pdfrwt beam="2">  1       -2 0.34930583E-01 0.14103398E+04</pdfrwt>
<totfact> 0.57717579E+01</totfact>
</mgrwt>
</event>
<event>
 8    2  0.4480234E-052  0.1261155E+04  0.7818608E-02  0.9060949E-01
         -2   -1    0    0    0  501 -0.00000000000E+00  0.00000000000E+00  0.40219228174E+03  0.40219228174E+03  0.25500000000E-02 0. -1.
          2   -1    0    0  501    0  0.00000000000E+00 -0.00000000000E+00 -0.98865215761E+03  0.98865215762E+03  0.25500000000E-02 0.  1.
    -200001    2    1    2    0    0  0.79344875564E+02  0.10996171700E+03 -0.35578352496E+03  0.72198887397E+03  0.61343200847E+03 0.  0.
   -5000001    2    3    3    0    0 -0.61719118598E+02 -0.16424943980E+03  0.55437799345E+02  0.19816181612E+03  0.73536573864E+02 0.  0.
     200001    1    1    2    0    0 -0.79344875564E+02 -0.10996171700E+03 -0.23067635092E+03  0.66885556539E+03  0.61300000000E+03 0.  1.
         13    1    4    4    0    0 -0.64357646879E+01 -0.75628648429E+02  0.46744562677E+02  0.89141330673E+02  0.10566000000E+00 0.  1.
    -200003    1    4    4    0    0 -0.55283353910E+02 -0.88620791376E+02  0.86932366688E+01  0.10902048545E+03  0.30000000000E+02 0.  1.
    -200000    1    3    3    0    0  0.14106399416E+03  0.27421115681E+03 -0.41122132430E+03  0.52382705784E+03  0.10100000000E+03 0.  1.
<mgrwt>
<rscale>  0 0.12611554E+04</rscale>
<asrwt>0</asrwt>
<pdfrwt beam="1">  1        2 0.14123602E+00 0.12611554E+04</pdfrwt>
<pdfrwt beam="2">  1       -2 0.57456041E-01 0.12611554E+04</pdfrwt>
<totfact> 0.79659776E+01</totfact>
</mgrwt>
</event>
<event>
 8    2  0.4480234E-052  0.1340928E+04  0.7818608E-02  0.8997724E-01
         -2   -1    0    0    0  501 -0.00000000000E+00  0.00000000000E+00  0.26024673101E+03  0.26024673102E+03  0.25500000000E-02 0. -1.
          2   -1    0    0  501    0  0.00000000000E+00 -0.00000000000E+00 -0.17272913522E+04  0.17272913522E+04  0.25500000000E-02 0.  1.
    -200001    2    1    2    0    0 -0.23893459713E+03 -0.89513141318E+02 -0.87852203906E+03  0.11002781586E+04  0.61131719183E+03 0.  0.
   -5000001    2    3    3    0    0 -0.27852842394E+03 -0.29509122511E+03 -0.44755288489E+03  0.61061967405E+03  0.88858806426E+02 0.  0.
     200001    1    1    2    0    0  0.23893459713E+03  0.89513141318E+02 -0.58852258217E+03  0.88725992466E+03  0.61300000000E+03 0. -1.
         13    1    4    4    0    0 -0.19199839694E+03 -0.15367021537E+03 -0.24473113178E+03  0.34694561180E+03  0.10566000000E+00 0.  1.
    -200003    1    4    4    0    0 -0.86530027004E+02 -0.14142100974E+03 -0.20282175311E+03  0.26367406225E+03  0.30000000000E+02 0.  1.
    -200000    1    3    3    0    0  0.39593826805E+02  0.20557808380E+03 -0.43096915417E+03  0.48965848456E+03  0.10100000000E+03 0.  1.
<mgrwt>
<rscale>  0 0.13409279E+04</rscale>
<asrwt>0</asrwt>
<pdfrwt beam="1">  1        2 0.24675590E+00 0.13409279E+04</pdfrwt>
<pdfrwt beam="2">  1       -2 0.37178105E-01 0.13409279E+04</pdfrwt>
<totfact> 0.74018317E+01</totfact>
</mgrwt>
</event>
<event>
 8    2  0.4480234E-052  0.1304439E+04  0.7818608E-02  0.9026052E-01
          2   -1    0    0  501    0  0.00000000000E+00  0.00000000000E+00  0.75994613789E+03  0.75994613790E+03  0.25500000000E-02 0.  1.
         -2   -1    0    0    0  501 -0.00000000000E+00 -0.00000000000E+00 -0.55976363115E+03  0.55976363116E+03  0.25500000000E-02 0. -1.
    -200001    2    1    2    0    0 -0.18402701936E+03  0.62440563375E+02  0.19965415551E+03  0.67664363952E+03  0.61661987097E+03 0.  0.
   -5000001    2    3    3    0    0  0.10281716970E+03 -0.13615831341E+02  0.29410994769E+03  0.34924928915E+03  0.15721845756E+03 0.  0.
     200001    1    1    2    0    0  0.18402701936E+03 -0.62440563375E+02  0.52835122833E+00  0.64306612954E+03  0.61300000000E+03 0. -1.
         13    1    4    4    0    0  0.83495122055E+02 -0.55406082010E+02  0.27225497841E+03  0.29011041650E+03  0.10566000000E+00 0.  1.
    -200003    1    4    4    0    0  0.19322047644E+02  0.41790250669E+02  0.21854969279E+02  0.59138872650E+02  0.30000000000E+02 0.  1.
    -200000    1    3    3    0    0 -0.28684418906E+03  0.76056394716E+02 -0.94455792176E+02  0.32739435037E+03  0.10100000000E+03 0. -1.
<mgrwt>
<rscale>  0 0.13044389E+04</rscale>
<asrwt>0</asrwt>
<pdfrwt beam="1">  1        2 0.10856373E+00 0.13044389E+04</pdfrwt>
<pdfrwt beam="2">  1       -2 0.79966234E-01 0.13044389E+04</pdfrwt>
<totfact> 0.55131196E+01</totfact>
</mgrwt>
</event>
<event>
 8    2  0.4480234E-052  0.2271911E+04  0.7818608E-02  0.8489079E-01
          2   -1    0    0  501    0  0.00000000000E+00  0.00000000000E+00  0.40214981616E+04  0.40214981616E+04  0.25500000000E-02 0.  1.
         -2   -1    0    0    0  501 -0.00000000000E+00 -0.00000000000E+00 -0.32087430101E+03  0.32087430102E+03  0.25500000000E-02 0. -1.
    -200001    2    1    2    0    0 -0.28033301563E+03  0.47086300599E+03  0.34869916999E+03  0.89107318532E+03  0.61001781972E+03 0.  0.
   -5000001    2    3    3    0    0 -0.32532101011E+03  0.46706985453E+03  0.45850733967E+03  0.73519778067E+03  0.79364901195E+02 0.  0.
     200001    1    1    2    0    0  0.28033301563E+03 -0.47086300599E+03  0.33519246906E+04  0.34512992773E+04  0.61300000000E+03 0.  1.
         13    1    4    4    0    0 -0.46304984677E+02  0.31137414903E+02  0.36138742212E+02  0.66480900005E+02  0.10566000000E+00 0.  1.
    -200003    1    4    4    0    0 -0.27901602543E+03  0.43593243963E+03  0.42236859746E+03  0.66871688067E+03  0.30000000000E+02 0.  1.
    -200000    1    3    3    0    0  0.44987994475E+02  0.37931514580E+01 -0.10980816968E+03  0.15587540465E+03  0.10100000000E+03 0.  1.
<mgrwt>
<rscale>  0 0.22719115E+04</rscale>
<asrwt>0</asrwt>
<pdfrwt beam="1">  1        2 0.57449971E+00 0.22719115E+04</pdfrwt>
<pdfrwt beam="2">  1       -2 0.45839188E-01 0.22719115E+04</pdfrwt>
<totfact> 0.22750540E+00</totfact>
</mgrwt>
</event>
<event>
 8    2  0.4480234E-052  0.1302041E+04  0.7818608E-02  0.9027948E-01
         -2   -1    0    0    0  501 -0.00000000000E+00  0.00000000000E+00  0.16223722953E+03  0.16223722955E+03  0.25500000000E-02 0. -1.
          2   -1    0    0  501    0  0.00000000000E+00 -0.00000000000E+00 -0.26123938206E+04  0.26123938206E+04  0.25500000000E-02 0.  1.
    -200001    2    1    2    0    0 -0.20911379780E+03  0.50506034546E+02 -0.13150994882E+04  0.14668072598E+04  0.61299056553E+03 0.  0.
   -5000001    2    3    3    0    0 -0.11933866353E+03  0.13581297850E+03 -0.59875200492E+03  0.73285115327E+03  0.38194236178E+03 0.  0.
     200001    1    1    2    0    0  0.20911379780E+03 -0.50506034546E+02 -0.11350571028E+04  0.13078237904E+04  0.61300000000E+03 0.  1.
         13    1    4    4    0    0 -0.24685431587E+03  0.42410950517E+02 -0.27920654188E+03  0.37508938426E+03  0.10566000000E+00 0.  1.
    -200003    1    4    4    0    0  0.12751565234E+03  0.93402027978E+02 -0.31954546304E+03  0.35776176902E+03  0.30000000000E+02 0.  1.
    -200000    1    3    3    0    0 -0.89775134268E+02 -0.85306943950E+02 -0.71634748332E+03  0.73395610650E+03  0.10100000000E+03 0.  1.
<mgrwt>
<rscale>  0 0.13020408E+04</rscale>
<asrwt>0</asrwt>
<pdfrwt beam="1">  1        2 0.37319909E+00 0.13020408E+04</pdfrwt>
<pdfrwt beam="2">  1       -2 0.23176749E-01 0.13020408E+04</pdfrwt>
<totfact> 0.62225944E+01</totfact>
</mgrwt>
</event>
<event>
 8    2  0.4480234E-052  0.1808182E+04  0.7818608E-02  0.8701960E-01
          2   -1    0    0  501    0  0.00000000000E+00  0.00000000000E+00  0.24322000154E+04  0.24322000154E+04  0.25500000000E-02 0.  1.
         -2   -1    0    0    0  501 -0.00000000000E+00 -0.00000000000E+00 -0.33606644089E+03  0.33606644090E+03  0.25500000000E-02 0. -1.
    -200001    2    1    2    0    0 -0.46308463972E+03  0.78223719452E+02  0.17675984665E+04  0.19290581085E+04  0.61342849078E+03 0.  0.
   -5000001    2    3    3    0    0  0.79811499032E+02  0.60935312789E+02  0.80011680128E+03  0.81494102352E+03  0.11772420481E+03 0.  0.
     200001    1    1    2    0    0  0.46308463972E+03 -0.78223719452E+02  0.32853510800E+03  0.83920834780E+03  0.61300000000E+03 0. -1.
         13    1    4    4    0    0  0.14404720264E+02 -0.96844075516E+01  0.13768443254E+02  0.22155471315E+02  0.10566000000E+00 0.  1.
    -200003    1    4    4    0    0  0.65406778768E+02  0.70619720341E+02  0.78634835803E+03  0.79278555220E+03  0.30000000000E+02 0.  1.
    -200000    1    3    3    0    0 -0.54289613876E+03  0.17288406663E+02  0.96748166521E+03  0.11141170850E+04  0.10100000000E+03 0.  1.
<mgrwt>
<rscale>  0 0.18081823E+04</rscale>
<asrwt>0</asrwt>
<pdfrwt beam="1">  1        2 0.34745713E+00 0.18081823E+04</pdfrwt>
<pdfrwt beam="2">  1       -2 0.48009494E-01 0.18081823E+04</pdfrwt>
<totfact> 0.18618105E+01</totfact>
</mgrwt>
</event>
<event>
 8    2  0.4480234E-052  0.1608169E+04  0.7818608E-02  0.8815545E-01
          2   -1    0    0  501    0  0.00000000000E+00  0.00000000000E+00  0.11512244460E+04  0.11512244460E+04  0.25500000000E-02 0.  1.
         -2   -1    0    0    0  501 -0.00000000000E+00 -0.00000000000E+00 -0.56162083879E+03  0.56162083879E+03  0.25500000000E-02 0. -1.
    -200001    2    1    2    0    0 -0.42013459698E+03  0.57989055825E+02 -0.25700775243E+02  0.74628215015E+03  0.61351504269E+03 0.  0.
   -5000001    2    3    3    0    0 -0.36405050516E+02 -0.12479462240E+03  0.20601844019E+03  0.25175911463E+03  0.63561219451E+02 0.  0.
     200001    1    1    2    0    0  0.42013459698E+03 -0.57989055825E+02  0.61530438242E+03  0.96656313462E+03  0.61300000000E+03 0. -1.
         13    1    4    4    0    0 -0.89178279069E+01 -0.89372515455E+02  0.11449993301E+03  0.14552394990E+03  0.10566000000E+00 0.  1.
    -200003    1    4    4    0    0 -0.27487222609E+02 -0.35422106945E+02  0.91518507187E+02  0.10623516473E+03  0.30000000000E+02 0. -1.
    -200000    1    3    3    0    0 -0.38372954646E+03  0.18278367823E+03 -0.23171921544E+03  0.49452303552E+03  0.10100000000E+03 0. -1.
<mgrwt>
<rscale>  0 0.16081687E+04</rscale>
<asrwt>0</asrwt>
<pdfrwt beam="1">  1        2 0.16446063E+00 0.16081687E+04</pdfrwt>
<pdfrwt beam="2">  1       -2 0.80231549E-01 0.16081687E+04</pdfrwt>
<totfact> 0.30078898E+01</totfact>
</mgrwt>
</event>
<event>
 8    2  0.4480234E-052  0.1871797E+04  0.7818608E-02  0.8669023E-01
          2   -1    0    0  501    0  0.00000000000E+00  0.00000000000E+00  0.90034077672E+03  0.90034077672E+03  0.25500000000E-02 0.  1.
         -2   -1    0    0    0  501 -0.00000000000E+00 -0.00000000000E+00 -0.97286082488E+03  0.97286082489E+03  0.25500000000E-02 0. -1.
    -200001    2    1    2    0    0 -0.13407934847E+03  0.86907807134E+02 -0.72572922632E+03  0.96326673083E+03  0.61291895563E+03 0.  0.
   -5000001    2    3    3    0    0 -0.36207196022E+03  0.59107254573E+02 -0.50538924772E+03  0.62934427291E+03  0.77885494242E+02 0.  0.
     200001    1    1    2    0    0  0.13407934847E+03 -0.86907807134E+02  0.65320917815E+03  0.90993487077E+03  0.61300000000E+03 0.  1.
         13    1    4    4    0    0 -0.26597307424E+03  0.30357228632E+02 -0.32815700479E+03  0.42349766057E+03  0.10566000000E+00 0.  1.
    -200003    1    4    4    0    0 -0.96098885979E+02  0.28750025941E+02 -0.17723224293E+03  0.20584661234E+03  0.30000000000E+02 0. -1.
    -200000    1    3    3    0    0  0.22799261175E+03  0.27800552561E+02 -0.22033997860E+03  0.33392245792E+03  0.10100000000E+03 0.  1.
<mgrwt>
<rscale>  0 0.18717973E+04</rscale>
<asrwt>0</asrwt>
<pdfrwt beam="1">  1        2 0.12862011E+00 0.18717973E+04</pdfrwt>
<pdfrwt beam="2">  1       -2 0.13898012E+00 0.18717973E+04</pdfrwt>
<totfact> 0.11203693E+01</totfact>
</mgrwt>
</event>
<event>
 8    2  0.4480234E-052  0.1608273E+04  0.7818608E-02  0.8815481E-01
          2   -1    0    0  501    0  0.00000000000E+00  0.00000000000E+00  0.21293644738E+04  0.21293644738E+04  0.25500000000E-02 0.  1.
         -2   -1    0    0    0  501 -0.00000000000E+00 -0.00000000000E+00 -0.30367545059E+03  0.30367545060E+03  0.25500000000E-02 0. -1.
    -200001    2    1    2    0    0 -0.49455282922E+03  0.16005856526E+03  0.95130633501E+03  0.12453887422E+04  0.61303191669E+03 0.  0.
   -5000001    2    3    3    0    0  0.87394100120E+02 -0.10241764304E+03  0.17268959091E+03  0.23345938560E+03  0.80959789870E+02 0.  0.
     200001    1    1    2    0    0  0.49455282922E+03 -0.16005856526E+03  0.87438268816E+03  0.11876511822E+04  0.61300000000E+03 0. -1.
         13    1    4    4    0    0 -0.38797142284E+01  0.56714010854E+01  0.28217568369E+02  0.29042370796E+02  0.10566000000E+00 0.  1.
    -200003    1    4    4    0    0  0.91273814348E+02 -0.10808904412E+03  0.14447202254E+03  0.20441701480E+03  0.30000000000E+02 0.  1.
    -200000    1    3    3    0    0 -0.58194692934E+03  0.26247620830E+03  0.77861674410E+03  0.10119293566E+04  0.10100000000E+03 0.  1.
<mgrwt>
<rscale>  0 0.16082733E+04</rscale>
<asrwt>0</asrwt>
<pdfrwt beam="1">  1        2 0.30419492E+00 0.16082733E+04</pdfrwt>
<pdfrwt beam="2">  1       -2 0.43382207E-01 0.16082733E+04</pdfrwt>
<totfact> 0.33285086E+01</totfact>
</mgrwt>
</event>
<event>
 8    2  0.4480234E-052  0.1614351E+04  0.7818608E-02  0.8811780E-01
          2   -1    0    0  501    0  0.00000000000E+00  0.00000000000E+00  0.66817034321E+03  0.66817034321E+03  0.25500000000E-02 0.  1.
         -2   -1    0    0    0  501 -0.00000000000E+00 -0.00000000000E+00 -0.97509875825E+03  0.97509875825E+03  0.25500000000E-02 0. -1.
    -200001    2    1    2    0    0  0.10020014908E+03  0.20675921620E+03  0.32757827655E+03  0.73159087696E+03  0.61247713478E+03 0.  0.
   -5000001    2    3    3    0    0 -0.77902859801E+02 -0.11066767755E+03 -0.78196656089E+02  0.17721301791E+03  0.83507761765E+02 0.  0.
     200001    1    1    2    0    0 -0.10020014908E+03 -0.20675921620E+03 -0.63450669159E+03  0.91167822450E+03  0.61300000000E+03 0. -1.
         13    1    4    4    0    0 -0.15015646536E+02 -0.35296334070E+02 -0.62563603832E+02  0.73386078571E+02  0.10566000000E+00 0.  1.
    -200003    1    4    4    0    0 -0.62887213265E+02 -0.75371343478E+02 -0.15633052257E+02  0.10382693934E+03  0.30000000000E+02 0.  1.
    -200000    1    3    3    0    0  0.17810300888E+03  0.31742689375E+03  0.40577493264E+03  0.55437785905E+03  0.10100000000E+03 0.  1.
<mgrwt>
<rscale>  0 0.16143507E+04</rscale>
<asrwt>0</asrwt>
<pdfrwt beam="1">  1        2 0.95452906E-01 0.16143507E+04</pdfrwt>
<pdfrwt beam="2">  1       -2 0.13929982E+00 0.16143507E+04</pdfrwt>
<totfact> 0.16645148E+01</totfact>
</mgrwt>
</event>
<event>
 8    2  0.4480234E-052  0.2401871E+04  0.7818608E-02  0.8438803E-01
          2   -1    0    0  501    0  0.00000000000E+00  0.00000000000E+00  0.10335847088E+04  0.10335847088E+04  0.25500000000E-02 0.  1.
         -2   -1    0    0    0  501 -0.00000000000E+00 -0.00000000000E+00 -0.13953826926E+04  0.13953826926E+04  0.25500000000E-02 0. -1.
    -200001    2    1    2    0    0 -0.45556209649E+03  0.51648197854E+03  0.59727277763E+03  0.10986004657E+04  0.61310501096E+03 0.  0.
   -5000001    2    3    3    0    0 -0.39313518131E+03  0.11616006102E+03  0.52903778591E+03  0.67550263840E+03  0.91511775228E+02 0.  0.
     200001    1    1    2    0    0  0.45556209649E+03 -0.51648197854E+03 -0.95907076144E+03  0.13303669356E+04  0.61300000000E+03 0. -1.
         13    1    4    4    0    0 -0.81366852238E+02  0.37439583812E+02  0.17303676452E+03  0.19484357860E+03  0.10566000000E+00 0.  1.
    -200003    1    4    4    0    0 -0.31176832907E+03  0.78720477208E+02  0.35600102139E+03  0.48065905981E+03  0.30000000000E+02 0.  1.
    -200000    1    3    3    0    0 -0.62426915184E+02  0.40032191752E+03  0.68234991720E+02  0.42309782731E+03  0.10100000000E+03 0. -1.
<mgrwt>
<rscale>  0 0.24018711E+04</rscale>
<asrwt>0</asrwt>
<pdfrwt beam="1">  1        2 0.14765496E+00 0.24018711E+04</pdfrwt>
<pdfrwt beam="2">  1       -2 0.19934038E+00 0.24018711E+04</pdfrwt>
<totfact> 0.32507725E+00</totfact>
</mgrwt>
</event>
<event>
 8    2  0.4480234E-052  0.1605827E+04  0.7818608E-02  0.8816976E-01
          2   -1    0    0  501    0  0.00000000000E+00  0.00000000000E+00  0.16203829645E+04  0.16203829645E+04  0.25500000000E-02 0.  1.
         -2   -1    0    0    0  501 -0.00000000000E+00 -0.00000000000E+00 -0.39785055913E+03  0.39785055914E+03  0.25500000000E-02 0. -1.
    -200001    2    1    2    0    0  0.24968503952E+03 -0.37567331738E+03  0.92851202502E+03  0.12023352184E+04  0.61644329549E+03 0.  0.
   -5000001    2    3    3    0    0 -0.12419375746E+03 -0.85706652955E+01  0.50945122311E+02  0.17526444156E+03  0.11235957142E+03 0.  0.
     200001    1    1    2    0    0 -0.24968503952E+03  0.37567331738E+03  0.29402038035E+03  0.81589830519E+03  0.61300000000E+03 0. -1.
         13    1    4    4    0    0 -0.50126323837E+01  0.65873349664E+01 -0.27472631099E+02  0.28692788100E+02  0.10566000000E+00 0.  1.
    -200003    1    4    4    0    0 -0.11918112508E+03 -0.15158000262E+02  0.78417753410E+02  0.14657165346E+03  0.30000000000E+02 0.  1.
    -200000    1    3    3    0    0  0.37387879699E+03 -0.36710265208E+03  0.87756690271E+03  0.10270707769E+04  0.10100000000E+03 0.  1.
<mgrwt>
<rscale>  0 0.16058272E+04</rscale>
<asrwt>0</asrwt>
<pdfrwt beam="1">  1        2 0.23148328E+00 0.16058272E+04</pdfrwt>
<pdfrwt beam="2">  1       -2 0.56835793E-01 0.16058272E+04</pdfrwt>
<totfact> 0.35195059E+01</totfact>
</mgrwt>
</event>
<event>
 8    2  0.4480234E-052  0.1915881E+04  0.7818608E-02  0.8646992E-01
          2   -1    0    0  501    0  0.00000000000E+00  0.00000000000E+00  0.85469407399E+03  0.85469407399E+03  0.25500000000E-02 0.  1.
         -2   -1    0    0    0  501 -0.00000000000E+00 -0.00000000000E+00 -0.10736585056E+04  0.10736585056E+04  0.25500000000E-02 0. -1.
    -200001    2    1    2    0    0  0.64924102730E+03  0.30695996824E+03  0.53437908166E+02  0.94564694294E+03  0.61290635258E+03 0.  0.
   -5000001    2    3    3    0    0  0.27522030037E+03  0.25098721328E+03 -0.24701671565E+03  0.45219133760E+03  0.68694636080E+02 0.  0.
     200001    1    1    2    0    0 -0.64924102730E+03 -0.30695996824E+03 -0.27240233981E+03  0.98270563668E+03  0.61300000000E+03 0. -1.
         13    1    4    4    0    0  0.11724569807E+03  0.82417160120E+02 -0.11957778414E+03  0.18664940295E+03  0.10566000000E+00 0.  1.
    -200003    1    4    4    0    0  0.15797460230E+03  0.16857005316E+03 -0.12743893151E+03  0.26554193465E+03  0.30000000000E+02 0.  1.
    -200000    1    3    3    0    0  0.37402072693E+03  0.55972754962E+02  0.30045462382E+03  0.49345560534E+03  0.10100000000E+03 0.  1.
<mgrwt>
<rscale>  0 0.19158805E+04</rscale>
<asrwt>0</asrwt>
<pdfrwt beam="1">  1        2 0.12209915E+00 0.19158805E+04</pdfrwt>
<pdfrwt beam="2">  1       -2 0.15337979E+00 0.19158805E+04</pdfrwt>
<totfact> 0.92346924E+00</totfact>
</mgrwt>
</event>
<event>
 8    2  0.4480234E-052  0.1817111E+04  0.7818608E-02  0.8697253E-01
         -2   -1    0    0    0  501 -0.00000000000E+00  0.00000000000E+00  0.33260653044E+03  0.33260653045E+03  0.25500000000E-02 0. -1.
          2   -1    0    0  501    0  0.00000000000E+00 -0.00000000000E+00 -0.24818307402E+04  0.24818307402E+04  0.25500000000E-02 0.  1.
    -200001    2    1    2    0    0 -0.12489230656E+03 -0.52581247656E+03 -0.45966249733E+03  0.93761425587E+03  0.61298779156E+03 0.  0.
   -5000001    2    3    3    0    0 -0.26740908504E+02 -0.33281903043E+03 -0.57454478435E+03  0.67251218673E+03  0.10337963468E+03 0.  0.
     200001    1    1    2    0    0  0.12489230656E+03  0.52581247656E+03 -0.16895617124E+04  0.18768230148E+04  0.61300000000E+03 0. -1.
         13    1    4    4    0    0  0.20950314200E+02 -0.13571262167E+03 -0.16614178719E+03  0.21554567024E+03  0.10566000000E+00 0.  1.
    -200003    1    4    4    0    0 -0.47691222704E+02 -0.19710640877E+03 -0.40840299716E+03  0.45696651649E+03  0.30000000000E+02 0.  1.
    -200000    1    3    3    0    0 -0.98151398056E+02 -0.19299344613E+03  0.11488228702E+03  0.26510206914E+03  0.10100000000E+03 0. -1.
<mgrwt>
<rscale>  0 0.18171110E+04</rscale>
<asrwt>0</asrwt>
<pdfrwt beam="1">  1        2 0.35454724E+00 0.18171110E+04</pdfrwt>
<pdfrwt beam="2">  1       -2 0.47515220E-01 0.18171110E+04</pdfrwt>
<totfact> 0.17891469E+01</totfact>
</mgrwt>
</event>
<event>
 8    2  0.4480234E-052  0.1309839E+04  0.7818608E-02  0.9021799E-01
         -2   -1    0    0    0  501 -0.00000000000E+00  0.00000000000E+00  0.37523548142E+03  0.37523548142E+03  0.25500000000E-02 0. -1.
          2   -1    0    0  501    0  0.00000000000E+00 -0.00000000000E+00 -0.11430680442E+04  0.11430680442E+04  0.25500000000E-02 0.  1.
    -200001    2    1    2    0    0 -0.57966446632E+00  0.64176363766E+02 -0.12657267542E+03  0.62886427261E+03  0.61264238307E+03 0.  0.
   -5000001    2    3    3    0    0 -0.92340489707E+02  0.95663514820E+02 -0.33900072492E+03  0.37442731392E+03  0.87155308542E+02 0.  0.
     200001    1    1    2    0    0  0.57966446632E+00 -0.64176363766E+02 -0.64125988740E+03  0.88943925305E+03  0.61300000000E+03 0.  1.
         13    1    4    4    0    0 -0.23014695006E+02  0.24785641564E+02 -0.18982450392E+03  0.19281430877E+03  0.10566000000E+00 0.  1.
    -200003    1    4    4    0    0 -0.69325794701E+02  0.70877873256E+02 -0.14917622100E+03  0.18161300515E+03  0.30000000000E+02 0.  1.
    -200000    1    3    3    0    0  0.91760825240E+02 -0.31487151055E+02  0.21242804950E+03  0.25443695869E+03  0.10100000000E+03 0. -1.
<mgrwt>
<rscale>  0 0.13098392E+04</rscale>
<asrwt>0</asrwt>
<pdfrwt beam="1">  1        2 0.16329543E+00 0.13098392E+04</pdfrwt>
<pdfrwt beam="2">  1       -2 0.53605069E-01 0.13098392E+04</pdfrwt>
<totfact> 0.74084289E+01</totfact>
</mgrwt>
</event>
<event>
 8    2  0.4480234E-052  0.1460408E+04  0.7818608E-02  0.8911217E-01
          2   -1    0    0  501    0  0.00000000000E+00  0.00000000000E+00  0.15525444141E+04  0.15525444141E+04  0.25500000000E-02 0.  1.
         -2   -1    0    0    0  501 -0.00000000000E+00 -0.00000000000E+00 -0.34343465675E+03  0.34343465676E+03  0.25500000000E-02 0. -1.
    -200001    2    1    2    0    0 -0.32033451720E+03  0.18426997794E+03  0.41933106318E+03  0.83010430645E+03  0.61373038979E+03 0.  0.
   -5000001    2    3    3    0    0 -0.21777233784E+02  0.34273227212E+03  0.28245700565E+03  0.45170999124E+03  0.79500301157E+02 0.  0.
     200001    1    1    2    0    0  0.32033451720E+03 -0.18426997794E+03  0.78977869417E+03  0.10658747644E+04  0.61300000000E+03 0. -1.
         13    1    4    4    0    0 -0.84075980432E+01  0.41765120010E+02  0.85781926128E+01  0.43458135106E+02  0.10566000000E+00 0.  1.
    -200003    1    4    4    0    0 -0.13369635741E+02  0.30096715211E+03  0.27387881303E+03  0.40825185613E+03  0.30000000000E+02 0.  1.
    -200000    1    3    3    0    0 -0.29855728341E+03 -0.15846229418E+03  0.13687405754E+03  0.37839431521E+03  0.10100000000E+03 0. -1.
<mgrwt>
<rscale>  0 0.14604076E+04</rscale>
<asrwt>0</asrwt>
<pdfrwt beam="1">  1        2 0.22179206E+00 0.14604076E+04</pdfrwt>
<pdfrwt beam="2">  1       -2 0.49062093E-01 0.14604076E+04</pdfrwt>
<totfact> 0.52304036E+01</totfact>
</mgrwt>
</event>
<event>
 8    2  0.4480234E-052  0.1890845E+04  0.7818608E-02  0.8659427E-01
         -2   -1    0    0    0  501 -0.00000000000E+00  0.00000000000E+00  0.24432017490E+03  0.24432017492E+03  0.25500000000E-02 0. -1.
          2   -1    0    0  501    0  0.00000000000E+00 -0.00000000000E+00 -0.36584099786E+04  0.36584099786E+04  0.25500000000E-02 0.  1.
    -200001    2    1    2    0    0 -0.12647336876E+03  0.38338139327E+02 -0.24771420897E+03  0.67485643653E+03  0.61368033590E+03 0.  0.
   -5000001    2    3    3    0    0 -0.12812188253E+03  0.21066456505E+03 -0.34628414992E+03  0.45210961195E+03  0.15393379414E+03 0.  0.
     200001    1    1    2    0    0  0.12647336876E+03 -0.38338139327E+02 -0.31663755948E+04  0.32278737170E+04  0.61300000000E+03 0.  1.
         13    1    4    4    0    0  0.10530855448E+02 -0.78266571235E+01 -0.74473409845E+02  0.75620469558E+02  0.10566000000E+00 0.  1.
    -200003    1    4    4    0    0 -0.13865273798E+03  0.21849122217E+03 -0.27181074008E+03  0.37648914239E+03  0.30000000000E+02 0.  1.
    -200000    1    3    3    0    0  0.16485137687E+01 -0.17232642572E+03  0.98569940956E+02  0.22274682458E+03  0.10100000000E+03 0. -1.
<mgrwt>
<rscale>  0 0.18908446E+04</rscale>
<asrwt>0</asrwt>
<pdfrwt beam="1">  1        2 0.52262996E+00 0.18908446E+04</pdfrwt>
<pdfrwt beam="2">  1       -2 0.34902884E-01 0.18908446E+04</pdfrwt>
<totfact> 0.69714944E+00</totfact>
</mgrwt>
</event>
<event>
 8    2  0.4480234E-052  0.1435646E+04  0.7818608E-02  0.8928413E-01
         -2   -1    0    0    0  501 -0.00000000000E+00  0.00000000000E+00  0.68876459458E+03  0.68876459458E+03  0.25500000000E-02 0. -1.
          2   -1    0    0  501    0  0.00000000000E+00 -0.00000000000E+00 -0.74810738147E+03  0.74810738148E+03  0.25500000000E-02 0.  1.
    -200001    2    1    2    0    0 -0.24710617415E+02  0.38005629030E+02 -0.39022473422E+03  0.73879826540E+03  0.62569360817E+03 0.  0.
   -5000001    2    3    3    0    0  0.16203631914E+03 -0.13316398899E+03  0.35674374938E+02  0.23306660965E+03  0.95178604850E+02 0.  0.
     200001    1    1    2    0    0  0.24710617415E+02 -0.38005629030E+02  0.33088194732E+03  0.69807371066E+03  0.61300000000E+03 0. -1.
         13    1    4    4    0    0  0.14376238532E+03 -0.82299771741E+02  0.94601959560E+01  0.16592282041E+03  0.10566000000E+00 0.  1.
    -200003    1    4    4    0    0  0.18273933823E+02 -0.50864217247E+02  0.26214178982E+02  0.67143789238E+02  0.30000000000E+02 0. -1.
    -200000    1    3    3    0    0 -0.18674693656E+03  0.17116961802E+03 -0.42589910916E+03  0.50573165575E+03  0.10100000000E+03 0.  1.
<mgrwt>
<rscale>  0 0.14356460E+04</rscale>
<asrwt>0</asrwt>
<pdfrwt beam="1">  1        2 0.10687248E+00 0.14356460E+04</pdfrwt>
<pdfrwt beam="2">  1       -2 0.98394942E-01 0.14356460E+04</pdfrwt>
<totfact> 0.34574587E+01</totfact>
</mgrwt>
</event>
<event>
 8    2  0.4480234E-052  0.1363848E+04  0.7818608E-02  0.8980411E-01
          2   -1    0    0  501    0  0.00000000000E+00  0.00000000000E+00  0.28429994844E+04  0.28429994844E+04  0.25500000000E-02 0.  1.
         -2   -1    0    0    0  501 -0.00000000000E+00 -0.00000000000E+00 -0.16356674007E+03  0.16356674009E+03  0.25500000000E-02 0. -1.
    -200001    2    1    2    0    0 -0.26995777983E+03 -0.76970852850E+02  0.11196426174E+04  0.13072969830E+04  0.61369707178E+03 0.  0.
   -5000001    2    3    3    0    0  0.20890905963E+01 -0.29068562029E+02  0.97739861229E+03  0.98058841841E+03  0.73459195550E+02 0.  0.
     200001    1    1    2    0    0  0.26995777983E+03  0.76970852850E+02  0.15597901270E+04  0.16992692415E+04  0.61300000000E+03 0.  1.
         13    1    4    4    0    0 -0.74286657760E+01 -0.31515369370E+02  0.78082641926E+03  0.78149748033E+03  0.10566000000E+00 0.  1.
    -200003    1    4    4    0    0  0.95177563723E+01  0.24468073408E+01  0.19657219303E+03  0.19909093808E+03  0.30000000000E+02 0. -1.
    -200000    1    3    3    0    0 -0.27204687043E+03 -0.47902290821E+02  0.14224400513E+03  0.32670856458E+03  0.10100000000E+03 0. -1.
<mgrwt>
<rscale>  0 0.13638477E+04</rscale>
<asrwt>0</asrwt>
<pdfrwt beam="1">  1        2 0.40614276E+00 0.13638477E+04</pdfrwt>
<pdfrwt beam="2">  1       -2 0.23366679E-01 0.13638477E+04</pdfrwt>
<totfact> 0.45883168E+01</totfact>
</mgrwt>
</event>
<event>
 8    2  0.4480234E-052  0.1601362E+04  0.7818608E-02  0.8819711E-01
          2   -1    0    0  501    0  0.00000000000E+00  0.00000000000E+00  0.97898836338E+03  0.97898836338E+03  0.25500000000E-02 0.  1.
         -2   -1    0    0    0  501 -0.00000000000E+00 -0.00000000000E+00 -0.65484990238E+03  0.65484990238E+03  0.25500000000E-02 0. -1.
    -200001    2    1    2    0    0  0.19505881688E+03 -0.14170151269E+03  0.62661174022E+03  0.90900287384E+03  0.61279416686E+03 0.  0.
   -5000001    2    3    3    0    0  0.39384589055E+03 -0.60614511438E+02  0.29885891688E+03  0.50438661659E+03  0.79375703399E+02 0.  0.
     200001    1    1    2    0    0 -0.19505881688E+03  0.14170151269E+03 -0.30247327922E+03  0.72483539192E+03  0.61300000000E+03 0. -1.
         13    1    4    4    0    0  0.39459095995E+02  0.15424609350E+02  0.25885574160E+02  0.49648896704E+02  0.10566000000E+00 0.  1.
    -200003    1    4    4    0    0  0.35438679456E+03 -0.76039120788E+02  0.27297334272E+03  0.45473771988E+03  0.30000000000E+02 0.  1.
    -200000    1    3    3    0    0 -0.19878707367E+03 -0.81087001247E+02  0.32775282334E+03  0.40461625726E+03  0.10100000000E+03 0.  1.
<mgrwt>
<rscale>  0 0.16013625E+04</rscale>
<asrwt>0</asrwt>
<pdfrwt beam="1">  1        2 0.13985548E+00 0.16013625E+04</pdfrwt>
<pdfrwt beam="2">  1       -2 0.93549986E-01 0.16013625E+04</pdfrwt>
<totfact> 0.26879378E+01</totfact>
</mgrwt>
</event>
<event>
 8    2  0.4480234E-052  0.1569531E+04  0.7818608E-02  0.8839488E-01
          2   -1    0    0  501    0  0.00000000000E+00  0.00000000000E+00  0.16338508027E+04  0.16338508027E+04  0.25500000000E-02 0.  1.
         -2   -1    0    0    0  501 -0.00000000000E+00 -0.00000000000E+00 -0.37693578133E+03  0.37693578134E+03  0.25500000000E-02 0. -1.
    -200001    2    1    2    0    0 -0.44453314060E+03 -0.31858012301E+02  0.88865590054E+03  0.11681666068E+04  0.61341606235E+03 0.  0.
   -5000001    2    3    3    0    0 -0.15792549310E+03  0.96909563438E+02 -0.10104159535E+02  0.21072434858E+03  0.99853553709E+02 0.  0.
     200001    1    1    2    0    0  0.44453314060E+03  0.31858012301E+02  0.36825912083E+03  0.84261997728E+03  0.61300000000E+03 0. -1.
         13    1    4    4    0    0 -0.89409298094E+02  0.19647061563E+01 -0.86456066788E+01  0.89847873291E+02  0.10566000000E+00 0.  1.
    -200003    1    4    4    0    0 -0.68516195010E+02  0.94944857281E+02 -0.14585528558E+01  0.12087647529E+03  0.30000000000E+02 0.  1.
    -200000    1    3    3    0    0 -0.28660764749E+03 -0.12876757574E+03  0.89876006007E+03  0.95744225818E+03  0.10100000000E+03 0.  1.
<mgrwt>
<rscale>  0 0.15695309E+04</rscale>
<asrwt>0</asrwt>
<pdfrwt beam="1">  1        2 0.23340726E+00 0.15695309E+04</pdfrwt>
<pdfrwt beam="2">  1       -2 0.53847968E-01 0.15695309E+04</pdfrwt>
<totfact> 0.38850374E+01</totfact>
</mgrwt>
</event>
<event>
 8    2  0.4480234E-052  0.1271057E+04  0.7818608E-02  0.9052837E-01
         -2   -1    0    0    0  501 -0.00000000000E+00  0.00000000000E+00  0.45707138142E+03  0.45707138142E+03  0.25500000000E-02 0.  1.
          2   -1    0    0  501    0  0.00000000000E+00 -0.00000000000E+00 -0.88366181898E+03  0.88366181898E+03  0.25500000000E-02 0. -1.
    -200001    2    1    2    0    0  0.83797755770E+02 -0.15963169235E+02 -0.36597001133E+03  0.71886446609E+03  0.61282557450E+03 0.  0.
   -5000001    2    3    3    0    0 -0.23761705622E+03 -0.57721031590E+02 -0.25470680427E+03  0.36160867302E+03  0.78049300861E+02 0.  0.
     200001    1    1    2    0    0 -0.83797755770E+02  0.15963169235E+02 -0.60620426233E+02  0.62186873432E+03  0.61300000000E+03 0.  1.
         13    1    4    4    0    0 -0.12213340416E+03 -0.49576823982E+02 -0.96866147625E+02  0.16357717325E+03  0.10566000000E+00 0.  1.
    -200003    1    4    4    0    0 -0.11548365206E+03 -0.81442076082E+01 -0.15784065664E+03  0.19803149977E+03  0.30000000000E+02 0.  1.
    -200000    1    3    3    0    0  0.32141481199E+03  0.41757862354E+02 -0.11126320706E+03  0.35725579307E+03  0.10100000000E+03 0.  1.
<mgrwt>
<rscale>  0 0.12710571E+04</rscale>
<asrwt>0</asrwt>
<pdfrwt beam="1">  1        2 0.12623740E+00 0.12710571E+04</pdfrwt>
<pdfrwt beam="2">  1       -2 0.65295912E-01 0.12710571E+04</pdfrwt>
<totfact> 0.70854780E+01</totfact>
</mgrwt>
</event>
<event>
 8    2  0.4480234E-052  0.2040986E+04  0.7818608E-02  0.8587694E-01
         -2   -1    0    0    0  501 -0.00000000000E+00  0.00000000000E+00  0.16318068168E+04  0.16318068168E+04  0.25500000000E-02 0. -1.
          2   -1    0    0  501    0  0.00000000000E+00 -0.00000000000E+00 -0.63819203077E+03  0.63819203077E+03  0.25500000000E-02 0.  1.
    -200001    2    1    2    0    0  0.79148554486E+03  0.12912001434E+03  0.66021996734E+03  0.12069642992E+04  0.61461456905E+03 0.  0.
   -5000001    2    3    3    0    0  0.38364901547E+03  0.10103951363E+03  0.66366373885E+03  0.78585622665E+03  0.14044536417E+03 0.  0.
     200001    1    1    2    0    0 -0.79148554486E+03 -0.12912001434E+03  0.33339481866E+03  0.10630345483E+04  0.61300000000E+03 0.  1.
         13    1    4    4    0    0  0.36802364533E+02 -0.24365637673E+02  0.34827276846E+02  0.56223204382E+02  0.10566000000E+00 0.  1.
    -200003    1    4    4    0    0  0.34684665094E+03  0.12540515130E+03  0.62883646200E+03  0.72963302227E+03  0.30000000000E+02 0.  1.
    -200000    1    3    3    0    0  0.40783652939E+03  0.28080500716E+02 -0.34437715054E+01  0.42110807257E+03  0.10100000000E+03 0.  1.
<mgrwt>
<rscale>  0 0.20409861E+04</rscale>
<asrwt>0</asrwt>
<pdfrwt beam="1">  1        2 0.91170291E-01 0.20409861E+04</pdfrwt>
<pdfrwt beam="2">  1       -2 0.23311526E+00 0.20409861E+04</pdfrwt>
<totfact> 0.38268740E+00</totfact>
</mgrwt>
</event>
<event>
 8    2  0.4480234E-052  0.1262746E+04  0.7818608E-02  0.9059641E-01
         -2   -1    0    0    0  501 -0.00000000000E+00  0.00000000000E+00  0.95738132476E+03  0.95738132477E+03  0.25500000000E-02 0. -1.
          2   -1    0    0  501    0  0.00000000000E+00 -0.00000000000E+00 -0.41637723525E+03  0.41637723526E+03  0.25500000000E-02 0.  1.
    -200001    2    1    2    0    0  0.95477618518E+02 -0.67747607763E+02  0.16023263579E+03  0.64268974386E+03  0.61128544502E+03 0.  0.
   -5000001    2    3    3    0    0 -0.41042273822E+02  0.15076271045E+03 -0.15008076445E+03  0.22690152067E+03  0.67425522782E+02 0.  0.
     200001    1    1    2    0    0 -0.95477618518E+02  0.67747607763E+02  0.38077145373E+03  0.73106881617E+03  0.61300000000E+03 0. -1.
         13    1    4    4    0    0 -0.31833901244E+01  0.86216547963E+02 -0.55325805423E+02  0.10249089240E+03  0.10566000000E+00 0.  1.
    -200003    1    4    4    0    0 -0.37858883698E+02  0.64546162490E+02 -0.94754959027E+02  0.12441062827E+03  0.30000000000E+02 0.  1.
    -200000    1    3    3    0    0  0.13651989234E+03 -0.21851031822E+03  0.31031340024E+03  0.41578822318E+03  0.10100000000E+03 0. -1.
<mgrwt>
<rscale>  0 0.12627459E+04</rscale>
<asrwt>0</asrwt>
<pdfrwt beam="1">  1        2 0.59482462E-01 0.12627459E+04</pdfrwt>
<pdfrwt beam="2">  1       -2 0.13676876E+00 0.12627459E+04</pdfrwt>
<totfact> 0.31013010E+01</totfact>
</mgrwt>
</event>
<event>
 8    2  0.4480234E-052  0.1313082E+04  0.7818608E-02  0.9019255E-01
          2   -1    0    0  501    0  0.00000000000E+00  0.00000000000E+00  0.71739190611E+03  0.71739190611E+03  0.25500000000E-02 0.  1.
         -2   -1    0    0    0  501 -0.00000000000E+00 -0.00000000000E+00 -0.60085191655E+03  0.60085191655E+03  0.25500000000E-02 0. -1.
    -200001    2    1    2    0    0  0.18480166270E+03  0.10949993077E+03 -0.37548997959E+02  0.65067037693E+03  0.61304169743E+03 0.  0.
   -5000001    2    3    3    0    0  0.35388036050E+03  0.45827418564E+02 -0.17112724084E+03  0.40432520887E+03  0.82842501947E+02 0.  0.
     200001    1    1    2    0    0 -0.18480166270E+03 -0.10949993077E+03  0.15408898752E+03  0.66757344574E+03  0.61300000000E+03 0.  1.
         13    1    4    4    0    0  0.74184537953E+02 -0.14400447004E+02 -0.15106740757E+02  0.77064540001E+02  0.10566000000E+00 0.  1.
    -200003    1    4    4    0    0  0.27969582254E+03  0.60227865568E+02 -0.15602050009E+03  0.32726066886E+03  0.30000000000E+02 0.  1.
    -200000    1    3    3    0    0 -0.16907869779E+03  0.63672512201E+02  0.13357824288E+03  0.24634516806E+03  0.10100000000E+03 0.  1.
<mgrwt>
<rscale>  0 0.13130823E+04</rscale>
<asrwt>0</asrwt>
<pdfrwt beam="1">  1        2 0.10248456E+00 0.13130823E+04</pdfrwt>
<pdfrwt beam="2">  1       -2 0.85835988E-01 0.13130823E+04</pdfrwt>
<totfact> 0.50458032E+01</totfact>
</mgrwt>
</event>
<event>
 8    2  0.4480234E-052  0.1526749E+04  0.7818608E-02  0.8866857E-01
         -2   -1    0    0    0  501 -0.00000000000E+00  0.00000000000E+00  0.41542444816E+03  0.41542444817E+03  0.25500000000E-02 0. -1.
          2   -1    0    0  501    0  0.00000000000E+00 -0.00000000000E+00 -0.14027597078E+04  0.14027597078E+04  0.25500000000E-02 0.  1.
    -200001    2    1    2    0    0 -0.10133405555E+03 -0.28070128287E+03 -0.90303929552E+03  0.11312077295E+04  0.61244522773E+03 0.  0.
   -5000001    2    3    3    0    0 -0.60646195578E+02 -0.22812621348E+03 -0.96335430192E+03  0.99608356485E+03  0.91713831111E+02 0.  0.
     200001    1    1    2    0    0  0.10133405555E+03  0.28070128287E+03 -0.84295964145E+02  0.68697642652E+03  0.61300000000E+03 0. -1.
         13    1    4    4    0    0  0.13836327358E+02 -0.20289679375E+02 -0.17969641116E+03  0.18136682825E+03  0.10566000000E+00 0.  1.
    -200003    1    4    4    0    0 -0.74482522936E+02 -0.20783653411E+03 -0.78365789076E+03  0.81471673659E+03  0.30000000000E+02 0. -1.
    -200000    1    3    3    0    0 -0.40687859969E+02 -0.52575069385E+02  0.60315006404E+02  0.13512416463E+03  0.10100000000E+03 0. -1.
<mgrwt>
<rscale>  0 0.15267491E+04</rscale>
<asrwt>0</asrwt>
<pdfrwt beam="1">  1        2 0.20039424E+00 0.15267491E+04</pdfrwt>
<pdfrwt beam="2">  1       -2 0.59346350E-01 0.15267491E+04</pdfrwt>
<totfact> 0.42211534E+01</totfact>
</mgrwt>
</event>
<event>
 8    2  0.4480234E-052  0.1349853E+04  0.7818608E-02  0.8990939E-01
         -2   -1    0    0    0  501 -0.00000000000E+00  0.00000000000E+00  0.68573761145E+03  0.68573761146E+03  0.25500000000E-02 0. -1.
          2   -1    0    0  501    0  0.00000000000E+00 -0.00000000000E+00 -0.66428617421E+03  0.66428617421E+03  0.25500000000E-02 0.  1.
    -200001    2    1    2    0    0  0.24395647680E+03 -0.11647240307E+03  0.94156621739E+02  0.67612792791E+03  0.61253809859E+03 0.  0.
   -5000001    2    3    3    0    0 -0.61269722167E+02  0.25461195653E+02  0.23249318943E+03  0.29844262909E+03  0.17496476327E+03 0.  0.
     200001    1    1    2    0    0 -0.24395647680E+03  0.11647240307E+03 -0.72705184493E+02  0.67389585776E+03  0.61300000000E+03 0.  1.
         13    1    4    4    0    0 -0.24398888911E+02 -0.73267736013E+02  0.87546358563E+02  0.11673835266E+03  0.10566000000E+00 0.  1.
    -200003    1    4    4    0    0 -0.36870833256E+02  0.98728931665E+02  0.14494683087E+03  0.18170427643E+03  0.30000000000E+02 0.  1.
    -200000    1    3    3    0    0  0.30522619897E+03 -0.14193359873E+03 -0.13833656769E+03  0.37768529882E+03  0.10100000000E+03 0.  1.
<mgrwt>
<rscale>  0 0.13498533E+04</rscale>
<asrwt>0</asrwt>
<pdfrwt beam="1">  1        2 0.94898024E-01 0.13498533E+04</pdfrwt>
<pdfrwt beam="2">  1       -2 0.97962516E-01 0.13498533E+04</pdfrwt>
<totfact> 0.40729465E+01</totfact>
</mgrwt>
</event>
<event>
 8    2  0.4480234E-052  0.1285958E+04  0.7818608E-02  0.9040776E-01
         -2   -1    0    0    0  501 -0.00000000000E+00  0.00000000000E+00  0.19082768768E+04  0.19082768768E+04  0.25500000000E-02 0. -1.
          2   -1    0    0  501    0  0.00000000000E+00 -0.00000000000E+00 -0.21664659008E+03  0.21664659010E+03  0.25500000000E-02 0.  1.
    -200001    2    1    2    0    0  0.16008567640E+03 -0.91048555353E+02  0.93930144143E+03  0.11371558046E+04  0.61393718151E+03 0.  0.
   -5000001    2    3    3    0    0  0.25082338244E+03 -0.23159197853E+03  0.29054681610E+03  0.45960923868E+03  0.10137053928E+03 0.  0.
     200001    1    1    2    0    0 -0.16008567640E+03  0.91048555353E+02  0.75232884524E+03  0.98776766225E+03  0.61300000000E+03 0.  1.
         13    1    4    4    0    0  0.16307153654E+03 -0.15196698731E+03  0.23940494482E+03  0.32711011912E+03  0.10566000000E+00 0.  1.
    -200003    1    4    4    0    0  0.87751845908E+02 -0.79624991215E+02  0.51141871277E+02  0.13249911956E+03  0.30000000000E+02 0.  1.
    -200000    1    3    3    0    0 -0.90737706049E+02  0.14054342318E+03  0.64875462534E+03  0.67754656592E+03  0.10100000000E+03 0. -1.
<mgrwt>
<rscale>  0 0.12859575E+04</rscale>
<asrwt>0</asrwt>
<pdfrwt beam="1">  1        2 0.30949513E-01 0.12859575E+04</pdfrwt>
<pdfrwt beam="2">  1       -2 0.27261098E+00 0.12859575E+04</pdfrwt>
<totfact> 0.79212801E+00</totfact>
</mgrwt>
</event>
<event>
 8    2  0.4480234E-052  0.1645342E+04  0.7818608E-02  0.8793167E-01
         -2   -1    0    0    0  501 -0.00000000000E+00  0.00000000000E+00  0.70534267930E+03  0.70534267930E+03  0.25500000000E-02 0. -1.
          2   -1    0    0  501    0  0.00000000000E+00 -0.00000000000E+00 -0.95951564701E+03  0.95951564702E+03  0.25500000000E-02 0.  1.
    -200001    2    1    2    0    0 -0.25460014218E+03 -0.43595468249E+03  0.91599808057E+02  0.79871426783E+03  0.61210802905E+03 0.  0.
   -5000001    2    3    3    0    0 -0.39093734964E+03 -0.29317929118E+03  0.21217767814E+03  0.54630058109E+03  0.12099111407E+03 0.  0.
     200001    1    1    2    0    0  0.25460014218E+03  0.43595468249E+03 -0.34577277577E+03  0.86614405849E+03  0.61300000000E+03 0.  1.
         13    1    4    4    0    0 -0.36578644220E+03 -0.26472723737E+03  0.20967937108E+03  0.49784102013E+03  0.10566000000E+00 0.  1.
    -200003    1    4    4    0    0 -0.25150907437E+02 -0.28452053804E+02  0.24983070682E+01  0.48459560964E+02  0.30000000000E+02 0. -1.
    -200000    1    3    3    0    0  0.13633720745E+03 -0.14277539131E+03 -0.12057787009E+03  0.25241368674E+03  0.10100000000E+03 0.  1.
<mgrwt>
<rscale>  0 0.16453417E+04</rscale>
<asrwt>0</asrwt>
<pdfrwt beam="1">  1        2 0.13707366E+00 0.16453417E+04</pdfrwt>
<pdfrwt beam="2">  1       -2 0.10076324E+00 0.16453417E+04</pdfrwt>
<totfact> 0.23141592E+01</totfact>
</mgrwt>
</event>
<event>
 8    2  0.4480234E-052  0.1385961E+04  0.7818608E-02  0.8964044E-01
         -2   -1    0    0    0  501 -0.00000000000E+00  0.00000000000E+00  0.71829730306E+03  0.71829730307E+03  0.25500000000E-02 0. -1.
          2   -1    0    0  501    0  0.00000000000E+00 -0.00000000000E+00 -0.66855637999E+03  0.66855637999E+03  0.25500000000E-02 0.  1.
    -200001    2    1    2    0    0  0.15986944949E+03  0.19094164669E+03 -0.17956396211E+03  0.68659181512E+03  0.61412388879E+03 0.  0.
   -5000001    2    3    3    0    0 -0.61139354205E+02  0.33225137217E+02 -0.11026756468E+03  0.38872879397E+03  0.36620924219E+03 0.  0.
     200001    1    1    2    0    0 -0.15986944949E+03 -0.19094164669E+03  0.22930488519E+03  0.70026186794E+03  0.61300000000E+03 0. -1.
         13    1    4    4    0    0 -0.67011749448E+02  0.12696134107E+03 -0.20614137596E+03  0.25120516463E+03  0.10566000000E+00 0.  1.
    -200003    1    4    4    0    0  0.58723952421E+01 -0.93736203851E+02  0.95873811278E+02  0.13752362934E+03  0.30000000000E+02 0.  1.
    -200000    1    3    3    0    0  0.22100880370E+03  0.15771650947E+03 -0.69296397427E+02  0.29786302115E+03  0.10100000000E+03 0.  1.
<mgrwt>
<rscale>  0 0.13859614E+04</rscale>
<asrwt>0</asrwt>
<pdfrwt beam="1">  1        2 0.95508055E-01 0.13859614E+04</pdfrwt>
<pdfrwt beam="2">  1       -2 0.10261390E+00 0.13859614E+04</pdfrwt>
<totfact> 0.36106360E+01</totfact>
</mgrwt>
</event>
<event>
 8    2  0.4480234E-052  0.1504519E+04  0.7818608E-02  0.8881453E-01
         -2   -1    0    0    0  501 -0.00000000000E+00  0.00000000000E+00  0.13554881680E+04  0.13554881680E+04  0.25500000000E-02 0. -1.
          2   -1    0    0  501    0  0.00000000000E+00 -0.00000000000E+00 -0.41748398021E+03  0.41748398022E+03  0.25500000000E-02 0.  1.
    -200001    2    1    2    0    0 -0.25265920648E+03 -0.56530416591E+02  0.55173941327E+02  0.66744485019E+03  0.61270392656E+03 0.  0.
   -5000001    2    3    3    0    0 -0.94693454149E+02 -0.31472042990E+03  0.73223917873E+02  0.34784813003E+03  0.87297079908E+02 0.  0.
     200001    1    1    2    0    0  0.25265920648E+03  0.56530416591E+02  0.88283024649E+03  0.11055272980E+04  0.61300000000E+03 0. -1.
         13    1    4    4    0    0 -0.97360372973E+02 -0.25367198896E+03  0.53010932963E+02  0.27683693826E+03  0.10566000000E+00 0.  1.
    -200003    1    4    4    0    0  0.26669188239E+01 -0.61048440944E+02  0.20212984910E+02  0.71011191771E+02  0.30000000000E+02 0. -1.
    -200000    1    3    3    0    0 -0.15796575233E+03  0.25819001331E+03 -0.18049976546E+02  0.31959672016E+03  0.10100000000E+03 0. -1.
<mgrwt>
<rscale>  0 0.15045193E+04</rscale>
<asrwt>0</asrwt>
<pdfrwt beam="1">  1        2 0.59640568E-01 0.15045193E+04</pdfrwt>
<pdfrwt beam="2">  1       -2 0.19364117E+00 0.15045193E+04</pdfrwt>
<totfact> 0.11676770E+01</totfact>
</mgrwt>
</event>
<event>
 8    2  0.4480234E-052  0.1232009E+04  0.7818608E-02  0.9085292E-01
         -2   -1    0    0    0  501 -0.00000000000E+00  0.00000000000E+00  0.62195083414E+03  0.62195083414E+03  0.25500000000E-02 0. -1.
          2   -1    0    0  501    0  0.00000000000E+00 -0.00000000000E+00 -0.61011488319E+03  0.61011488320E+03  0.25500000000E-02 0.  1.
    -200001    2    1    2    0    0 -0.16642574055E+02  0.11944016919E+02  0.65744564167E+02  0.61635899057E+03  0.61250014100E+03 0.  0.
   -5000001    2    3    3    0    0 -0.28416895052E+03 -0.12925073450E+02 -0.55622462262E+02  0.30471851042E+03  0.94023732756E+02 0.  0.
     200001    1    1    2    0    0  0.16642574055E+02 -0.11944016919E+02 -0.53908613223E+02  0.61570672677E+03  0.61300000000E+03 0.  1.
         13    1    4    4    0    0 -0.14086734777E+03 -0.25780177169E+02  0.10430392127E+02  0.14358632054E+03  0.10566000000E+00 0.  1.
    -200003    1    4    4    0    0 -0.14330160275E+03  0.12855103719E+02 -0.66052854389E+02  0.16113218988E+03  0.30000000000E+02 0.  1.
    -200000    1    3    3    0    0  0.26752637647E+03  0.24869090370E+02  0.12136702643E+03  0.31164048015E+03  0.10100000000E+03 0. -1.
<mgrwt>
<rscale>  0 0.12320089E+04</rscale>
<asrwt>0</asrwt>
<pdfrwt beam="1">  1        2 0.87159269E-01 0.12320089E+04</pdfrwt>
<pdfrwt beam="2">  1       -2 0.88850119E-01 0.12320089E+04</pdfrwt>
<totfact> 0.57100802E+01</totfact>
</mgrwt>
</event>
<event>
 8    2  0.4480234E-052  0.1248779E+04  0.7818608E-02  0.9071200E-01
          2   -1    0    0  501    0  0.00000000000E+00  0.00000000000E+00  0.21103038919E+04  0.21103038919E+04  0.25500000000E-02 0.  1.
         -2   -1    0    0    0  501 -0.00000000000E+00 -0.00000000000E+00 -0.18474210982E+03  0.18474210984E+03  0.25500000000E-02 0. -1.
    -200001    2    1    2    0    0 -0.10110100267E+03  0.12622398524E+02  0.10780853365E+04  0.12441577757E+04  0.61260088195E+03 0.  0.
   -5000001    2    3    3    0    0 -0.99498496865E+02  0.29439753582E+03  0.54754770452E+03  0.63500182287E+03  0.82758481998E+02 0.  0.
     200001    1    1    2    0    0  0.10110100267E+03 -0.12622398524E+02  0.84747644564E+03  0.10508882260E+04  0.61300000000E+03 0. -1.
         13    1    4    4    0    0 -0.84409588057E+02  0.17802027178E+03  0.38272649344E+03  0.43045995826E+03  0.10566000000E+00 0.  1.
    -200003    1    4    4    0    0 -0.15088908808E+02  0.11637726404E+03  0.16482121108E+03  0.20454186460E+03  0.30000000000E+02 0.  1.
    -200000    1    3    3    0    0 -0.16025058048E+01 -0.28177513729E+03  0.53053763194E+03  0.60915595288E+03  0.10100000000E+03 0.  1.
<mgrwt>
<rscale>  0 0.12487786E+04</rscale>
<asrwt>0</asrwt>
<pdfrwt beam="1">  1        2 0.30147196E+00 0.12487786E+04</pdfrwt>
<pdfrwt beam="2">  1       -2 0.26391732E-01 0.12487786E+04</pdfrwt>
<totfact> 0.90064729E+01</totfact>
</mgrwt>
</event>
<event>
 8    2  0.4480234E-052  0.1594449E+04  0.7818608E-02  0.8823966E-01
         -2   -1    0    0    0  501 -0.00000000000E+00  0.00000000000E+00  0.14314312109E+04  0.14314312109E+04  0.25500000000E-02 0. -1.
          2   -1    0    0  501    0  0.00000000000E+00 -0.00000000000E+00 -0.44400787685E+03  0.44400787686E+03  0.25500000000E-02 0.  1.
    -200001    2    1    2    0    0 -0.34323630329E+03 -0.36338166308E+03  0.61297302862E+03  0.10003165682E+04  0.61240502112E+03 0.  0.
   -5000001    2    3    3    0    0 -0.47974880111E+03 -0.33932497779E+03  0.40274044646E+03  0.72899918071E+03  0.15472422414E+03 0.  0.
     200001    1    1    2    0    0  0.34323630329E+03  0.36338166308E+03  0.37445030542E+03  0.87512251953E+03  0.61300000000E+03 0.  1.
         13    1    4    4    0    0 -0.39321072829E+03 -0.20489692175E+03  0.27076062641E+03  0.51952743274E+03  0.10566000000E+00 0.  1.
    -200003    1    4    4    0    0 -0.86538072819E+02 -0.13442805604E+03  0.13197982004E+03  0.20947174797E+03  0.30000000000E+02 0.  1.
    -200000    1    3    3    0    0  0.13651249782E+03 -0.24056685290E+02  0.21023258217E+03  0.27131738752E+03  0.10100000000E+03 0. -1.
<mgrwt>
<rscale>  0 0.15944488E+04</rscale>
<asrwt>0</asrwt>
<pdfrwt beam="1">  1        2 0.63429697E-01 0.15944488E+04</pdfrwt>
<pdfrwt beam="2">  1       -2 0.20449017E+00 0.15944488E+04</pdfrwt>
<totfact> 0.91806147E+00</totfact>
</mgrwt>
</event>
<event>
 8    2  0.4480234E-052  0.1311902E+04  0.7818608E-02  0.9020179E-01
          2   -1    0    0  501    0  0.00000000000E+00  0.00000000000E+00  0.84952462788E+03  0.84952462788E+03  0.25500000000E-02 0.  1.
         -2   -1    0    0    0  501 -0.00000000000E+00 -0.00000000000E+00 -0.50648565722E+03  0.50648565722E+03  0.25500000000E-02 0. -1.
    -200001    2    1    2    0    0  0.12054520027E+03  0.14587134400E+03  0.30867739238E+03  0.71354681348E+03  0.61486399159E+03 0.  0.
   -5000001    2    3    3    0    0 -0.12545766796E+03 -0.17206262761E+03  0.14045941538E+03  0.26622398904E+03  0.76165547987E+02 0.  0.
     200001    1    1    2    0    0 -0.12054520027E+03 -0.14587134400E+03  0.34361578280E+02  0.64246347162E+03  0.61300000000E+03 0. -1.
         13    1    4    4    0    0 -0.32464511505E+02 -0.33721190777E+02  0.98783546781E+00  0.46819335724E+02  0.10566000000E+00 0.  1.
    -200003    1    4    4    0    0 -0.92993156457E+02 -0.13834143683E+03  0.13947157991E+03  0.21940465331E+03  0.30000000000E+02 0.  1.
    -200000    1    3    3    0    0  0.24600286823E+03  0.31793397161E+03  0.16821797700E+03  0.44732282444E+03  0.10100000000E+03 0.  1.
<mgrwt>
<rscale>  0 0.13119025E+04</rscale>
<asrwt>0</asrwt>
<pdfrwt beam="1">  1        2 0.12136066E+00 0.13119025E+04</pdfrwt>
<pdfrwt beam="2">  1       -2 0.72355094E-01 0.13119025E+04</pdfrwt>
<totfact> 0.59572448E+01</totfact>
</mgrwt>
</event>
<event>
 8    2  0.4480234E-052  0.1519255E+04  0.7818608E-02  0.8871748E-01
         -2   -1    0    0    0  501 -0.00000000000E+00  0.00000000000E+00  0.77846071498E+03  0.77846071499E+03  0.25500000000E-02 0. -1.
          2   -1    0    0  501    0  0.00000000000E+00 -0.00000000000E+00 -0.74125006952E+03  0.74125006953E+03  0.25500000000E-02 0.  1.
    -200001    2    1    2    0    0  0.44282780354E+03  0.42045512758E+02  0.11469499608E+03  0.75837175798E+03  0.60341403070E+03 0.  0.
   -5000001    2    3    3    0    0  0.16199118187E+03 -0.13109394212E+03 -0.19332538360E+03  0.29585253329E+03  0.82019832032E+02 0.  0.
     200001    1    1    2    0    0 -0.44282780354E+03 -0.42045512758E+02 -0.77484350617E+02  0.76133902653E+03  0.61300000000E+03 0.  1.
         13    1    4    4    0    0  0.11714982509E+03 -0.10649421850E+03 -0.16953255236E+03  0.23196206062E+03  0.10566000000E+00 0.  1.
    -200003    1    4    4    0    0  0.44841356776E+02 -0.24599723619E+02 -0.23792831241E+02  0.63890472671E+02  0.30000000000E+02 0. -1.
    -200000    1    3    3    0    0  0.28083662167E+03  0.17313945488E+03  0.30802037968E+03  0.46251922469E+03  0.10100000000E+03 0. -1.
<mgrwt>
<rscale>  0 0.15192552E+04</rscale>
<asrwt>0</asrwt>
<pdfrwt beam="1">  1        2 0.10589287E+00 0.15192552E+04</pdfrwt>
<pdfrwt beam="2">  1       -2 0.11120867E+00 0.15192552E+04</pdfrwt>
<totfact> 0.25920897E+01</totfact>
</mgrwt>
</event>
<event>
 8    2  0.4480234E-052  0.1587851E+04  0.7818608E-02  0.8828046E-01
          2   -1    0    0  501    0  0.00000000000E+00  0.00000000000E+00  0.16358098529E+04  0.16358098529E+04  0.25500000000E-02 0.  1.
         -2   -1    0    0    0  501 -0.00000000000E+00 -0.00000000000E+00 -0.38532466294E+03  0.38532466295E+03  0.25500000000E-02 0. -1.
    -200001    2    1    2    0    0  0.14213467089E+03  0.48517697625E+03  0.53796138544E+03  0.95386785052E+03  0.60403845993E+03 0.  0.
   -5000001    2    3    3    0    0  0.10620100536E+03 -0.32337683284E+02  0.38056395068E+03  0.40242646322E+03  0.69236973114E+02 0.  0.
     200001    1    1    2    0    0 -0.14213467089E+03 -0.48517697625E+03  0.71252380455E+03  0.10672666654E+04  0.61300000000E+03 0. -1.
         13    1    4    4    0    0  0.19418439469E+02  0.17663726953E+02  0.72833856855E+02  0.77420054958E+02  0.10566000000E+00 0.  1.
    -200003    1    4    4    0    0  0.86782565896E+02 -0.50001410237E+02  0.30773009382E+03  0.32500640826E+03  0.30000000000E+02 0.  1.
    -200000    1    3    3    0    0  0.35933665524E+02  0.51751465954E+03  0.15739743477E+03  0.55144138730E+03  0.10100000000E+03 0.  1.
<mgrwt>
<rscale>  0 0.15878512E+04</rscale>
<asrwt>0</asrwt>
<pdfrwt beam="1">  1        2 0.23368712E+00 0.15878512E+04</pdfrwt>
<pdfrwt beam="2">  1       -2 0.55046380E-01 0.15878512E+04</pdfrwt>
<totfact> 0.36978661E+01</totfact>
</mgrwt>
</event>
<event>
 8    2  0.4480234E-052  0.1932406E+04  0.7818608E-02  0.8638892E-01
          2   -1    0    0  501    0  0.00000000000E+00  0.00000000000E+00  0.14540055959E+04  0.14540055959E+04  0.25500000000E-02 0.  1.
         -2   -1    0    0    0  501 -0.00000000000E+00 -0.00000000000E+00 -0.64205253197E+03  0.64205253197E+03  0.25500000000E-02 0. -1.
    -200001    2    1    2    0    0 -0.14631517489E+03 -0.73332435878E+03  0.40632733270E+03  0.10475000802E+04  0.61072233553E+03 0.  0.
   -5000001    2    3    3    0    0 -0.41757993659E+02 -0.57460544394E+03  0.15517403726E+01  0.58905904994E+03  0.12277218811E+03 0.  0.
     200001    1    1    2    0    0  0.14631517489E+03  0.73332435878E+03  0.40562573127E+03  0.10485580477E+04  0.61300000000E+03 0. -1.
         13    1    4    4    0    0 -0.25535952917E+02 -0.47845737953E+03 -0.35667401638E+02  0.48046407111E+03  0.10566000000E+00 0.  1.
    -200003    1    4    4    0    0 -0.16222040742E+02 -0.96148064414E+02  0.37219142011E+02  0.10859497884E+03  0.30000000000E+02 0. -1.
    -200000    1    3    3    0    0 -0.10455718123E+03 -0.15871891484E+03  0.40477559232E+03  0.45844103025E+03  0.10100000000E+03 0.  1.
<mgrwt>
<rscale>  0 0.19324057E+04</rscale>
<asrwt>0</asrwt>
<pdfrwt beam="1">  1        2 0.20771508E+00 0.19324057E+04</pdfrwt>
<pdfrwt beam="2">  1       -2 0.91721791E-01 0.19324057E+04</pdfrwt>
<totfact> 0.14673353E+01</totfact>
</mgrwt>
</event>
<event>
 8    2  0.4480234E-052  0.1515022E+04  0.7818608E-02  0.8874524E-01
          2   -1    0    0  501    0  0.00000000000E+00  0.00000000000E+00  0.18645480746E+04  0.18645480746E+04  0.25500000000E-02 0.  1.
         -2   -1    0    0    0  501 -0.00000000000E+00 -0.00000000000E+00 -0.30775452025E+03  0.30775452026E+03  0.25500000000E-02 0. -1.
    -200001    2    1    2    0    0 -0.36604020253E+03  0.83366286522E+02  0.11212479177E+04  0.13318239400E+04  0.61288069537E+03 0.  0.
   -5000001    2    3    3    0    0  0.16357730431E+01  0.55863631529E+02  0.20459083952E+03  0.33864559855E+03  0.26400759217E+03 0.  0.
     200001    1    1    2    0    0  0.36604020253E+03 -0.83366286522E+02  0.43554563666E+03  0.84047865482E+03  0.61300000000E+03 0. -1.
         13    1    4    4    0    0  0.66259921735E+02 -0.23048032821E+02  0.22027599767E+03  0.23117767054E+03  0.10566000000E+00 0.  1.
    -200003    1    4    4    0    0 -0.64624148691E+02  0.78911664350E+02 -0.15685158149E+02  0.10746792801E+03  0.30000000000E+02 0.  1.
    -200000    1    3    3    0    0 -0.36767597557E+03  0.27502654993E+02  0.91665707816E+03  0.99317834148E+03  0.10100000000E+03 0.  1.
<mgrwt>
<rscale>  0 0.15150222E+04</rscale>
<asrwt>0</asrwt>
<pdfrwt beam="1">  1        2 0.26636401E+00 0.15150222E+04</pdfrwt>
<pdfrwt beam="2">  1       -2 0.43964931E-01 0.15150222E+04</pdfrwt>
<totfact> 0.44681738E+01</totfact>
</mgrwt>
</event>
<event>
 8    2  0.4480234E-052  0.1404159E+04  0.7818608E-02  0.8950813E-01
          2   -1    0    0  501    0  0.00000000000E+00  0.00000000000E+00  0.29380277834E+04  0.29380277834E+04  0.25500000000E-02 0.  1.
         -2   -1    0    0    0  501 -0.00000000000E+00 -0.00000000000E+00 -0.16777102076E+03  0.16777102078E+03  0.25500000000E-02 0. -1.
    -200001    2    1    2    0    0 -0.49376562243E+01  0.26873527113E+03  0.91628557678E+03  0.11347023620E+04  0.61296587645E+03 0.  0.
   -5000001    2    3    3    0    0  0.13346271426E+03  0.11315947725E+03 -0.42116359404E+00  0.18923383367E+03  0.72054861320E+02 0.  0.
     200001    1    1    2    0    0  0.49376562243E+01 -0.26873527113E+03  0.18539711859E+04  0.19710964422E+04  0.61300000000E+03 0.  1.
         13    1    4    4    0    0  0.10914558463E+03  0.10019782154E+03 -0.49639722493E+01  0.14824646461E+03  0.10566000000E+00 0.  1.
    -200003    1    4    4    0    0  0.24317129623E+02  0.12961655709E+02  0.45428086553E+01  0.40987369058E+02  0.30000000000E+02 0. -1.
    -200000    1    3    3    0    0 -0.13840037048E+03  0.15557579389E+03  0.91670674037E+03  0.94546852832E+03  0.10100000000E+03 0. -1.
<mgrwt>
<rscale>  0 0.14041594E+04</rscale>
<asrwt>0</asrwt>
<pdfrwt beam="1">  1        2 0.41971822E+00 0.14041594E+04</pdfrwt>
<pdfrwt beam="2">  1       -2 0.23967291E-01 0.14041594E+04</pdfrwt>
<totfact> 0.38750127E+01</totfact>
</mgrwt>
</event>
<event>
 8    2  0.4480234E-052  0.1391943E+04  0.7818608E-02  0.8959671E-01
          2   -1    0    0  501    0  0.00000000000E+00  0.00000000000E+00  0.24035858032E+04  0.24035858032E+04  0.25500000000E-02 0.  1.
         -2   -1    0    0    0  501 -0.00000000000E+00 -0.00000000000E+00 -0.20152250399E+03  0.20152250400E+03  0.25500000000E-02 0. -1.
    -200001    2    1    2    0    0  0.18718551166E+03 -0.25270984716E+03  0.12818920507E+04  0.14555932750E+04  0.61368059281E+03 0.  0.
   -5000001    2    3    3    0    0 -0.93442201556E+02 -0.25099072536E+02  0.94301166401E+03  0.95002478843E+03  0.62567497104E+02 0.  0.
     200001    1    1    2    0    0 -0.18718551166E+03  0.25270984716E+03  0.92017124847E+03  0.11495150322E+04  0.61300000000E+03 0.  1.
         13    1    4    4    0    0 -0.35077367041E+02  0.59553965539E+01  0.17442319417E+03  0.17801502817E+03  0.10566000000E+00 0.  1.
    -200003    1    4    4    0    0 -0.58364834516E+02 -0.31054469090E+02  0.76858846984E+03  0.77200976026E+03  0.30000000000E+02 0.  1.
    -200000    1    3    3    0    0  0.28062771322E+03 -0.22761077462E+03  0.33888038670E+03  0.50556848660E+03  0.10100000000E+03 0. -1.
<mgrwt>
<rscale>  0 0.13919434E+04</rscale>
<asrwt>0</asrwt>
<pdfrwt beam="1">  1        2 0.34336936E+00 0.13919434E+04</pdfrwt>
<pdfrwt beam="2">  1       -2 0.28788932E-01 0.13919434E+04</pdfrwt>
<totfact> 0.53565533E+01</totfact>
</mgrwt>
</event>
<event>
 8    2  0.4480234E-052  0.1363016E+04  0.7818608E-02  0.8981033E-01
         -2   -1    0    0    0  501 -0.00000000000E+00  0.00000000000E+00  0.12418090306E+04  0.12418090306E+04  0.25500000000E-02 0. -1.
          2   -1    0    0  501    0  0.00000000000E+00 -0.00000000000E+00 -0.37401357906E+03  0.37401357907E+03  0.25500000000E-02 0.  1.
    -200001    2    1    2    0    0  0.22422205036E+03  0.19507318269E+03  0.44276098909E+03  0.81285787276E+03  0.61349128224E+03 0.  0.
   -5000001    2    3    3    0    0  0.34823957011E+03  0.27437360441E+03  0.15880288985E+03  0.47744453938E+03  0.78633691025E+02 0.  0.
     200001    1    1    2    0    0 -0.22422205036E+03 -0.19507318269E+03  0.42503446248E+03  0.80296473694E+03  0.61300000000E+03 0.  1.
         13    1    4    4    0    0  0.27102556741E+03  0.21366121112E+03  0.14283388290E+03  0.37350702884E+03  0.10566000000E+00 0.  1.
    -200003    1    4    4    0    0  0.77214002699E+02  0.60712393299E+02  0.15969006951E+02  0.10393751053E+03  0.30000000000E+02 0.  1.
    -200000    1    3    3    0    0 -0.12401751975E+03 -0.79300421728E+02  0.28395809923E+03  0.33541333339E+03  0.10100000000E+03 0. -1.
<mgrwt>
<rscale>  0 0.13630164E+04</rscale>
<asrwt>0</asrwt>
<pdfrwt beam="1">  1        2 0.53430512E-01 0.13630164E+04</pdfrwt>
<pdfrwt beam="2">  1       -2 0.17740129E+00 0.13630164E+04</pdfrwt>
<totfact> 0.17207968E+01</totfact>
</mgrwt>
</event>
<event>
 8    2  0.4480234E-052  0.1319523E+04  0.7818608E-02  0.9014225E-01
          2   -1    0    0  501    0  0.00000000000E+00  0.00000000000E+00  0.73535356539E+03  0.73535356539E+03  0.25500000000E-02 0.  1.
         -2   -1    0    0    0  501 -0.00000000000E+00 -0.00000000000E+00 -0.59194029458E+03  0.59194029458E+03  0.25500000000E-02 0. -1.
    -200001    2    1    2    0    0 -0.52113454712E+02  0.13508710149E+03 -0.12568865009E+03  0.64234920456E+03  0.61306649451E+03 0.  0.
   -5000001    2    3    3    0    0 -0.10961219484E+03  0.19143038036E+03 -0.31442780333E+03  0.41364822477E+03  0.15355646051E+03 0.  0.
     200001    1    1    2    0    0  0.52113454712E+02 -0.13508710149E+03  0.26910192090E+03  0.68494465542E+03  0.61300000000E+03 0.  1.
         13    1    4    4    0    0 -0.65542900328E+02 -0.11985480240E+01 -0.51427276738E+02  0.83319171008E+02  0.10566000000E+00 0.  1.
    -200003    1    4    4    0    0 -0.44069294512E+02  0.19262892838E+03 -0.26300052660E+03  0.33032905376E+03  0.30000000000E+02 0.  1.
    -200000    1    3    3    0    0  0.57498740128E+02 -0.56343278867E+02  0.18873915324E+03  0.22870097979E+03  0.10100000000E+03 0.  1.
<mgrwt>
<rscale>  0 0.13195233E+04</rscale>
<asrwt>0</asrwt>
<pdfrwt beam="1">  1        2 0.10505051E+00 0.13195233E+04</pdfrwt>
<pdfrwt beam="2">  1       -2 0.84562898E-01 0.13195233E+04</pdfrwt>
<totfact> 0.50592466E+01</totfact>
</mgrwt>
</event>
<event>
 8    2  0.4480234E-052  0.1850905E+04  0.7818608E-02  0.8679687E-01
         -2   -1    0    0    0  501 -0.00000000000E+00  0.00000000000E+00  0.44680034956E+03  0.44680034957E+03  0.25500000000E-02 0. -1.
          2   -1    0    0  501    0  0.00000000000E+00 -0.00000000000E+00 -0.19168800233E+04  0.19168800233E+04  0.25500000000E-02 0.  1.
    -200001    2    1    2    0    0 -0.19377868177E+02 -0.66417422031E+03 -0.98796135439E+03  0.13391268259E+04  0.61293565847E+03 0.  0.
   -5000001    2    3    3    0    0 -0.27642645660E+03 -0.46367425623E+03 -0.73034688631E+03  0.91152838512E+03  0.77923172054E+02 0.  0.
     200001    1    1    2    0    0  0.19377868177E+02  0.66417422031E+03 -0.48211831933E+03  0.10245535469E+04  0.61300000000E+03 0. -1.
         13    1    4    4    0    0 -0.18718953629E+03 -0.26386902459E+03 -0.40643115647E+03  0.51947384991E+03  0.10566000000E+00 0.  1.
    -200003    1    4    4    0    0 -0.89236920312E+02 -0.19980523164E+03 -0.32391572985E+03  0.39205453521E+03  0.30000000000E+02 0.  1.
    -200000    1    3    3    0    0  0.25704858842E+03 -0.20049996409E+03 -0.25761446808E+03  0.42759844080E+03  0.10100000000E+03 0.  1.
<mgrwt>
<rscale>  0 0.18509054E+04</rscale>
<asrwt>0</asrwt>
<pdfrwt beam="1">  1        2 0.27384000E+00 0.18509054E+04</pdfrwt>
<pdfrwt beam="2">  1       -2 0.63828622E-01 0.18509054E+04</pdfrwt>
<totfact> 0.18958925E+01</totfact>
</mgrwt>
</event>
<event>
 8    2  0.4480234E-052  0.1456228E+04  0.7818608E-02  0.8914094E-01
         -2   -1    0    0    0  501 -0.00000000000E+00  0.00000000000E+00  0.12214716046E+04  0.12214716046E+04  0.25500000000E-02 0. -1.
          2   -1    0    0  501    0  0.00000000000E+00 -0.00000000000E+00 -0.43402593195E+03  0.43402593196E+03  0.25500000000E-02 0.  1.
    -200001    2    1    2    0    0 -0.12318281336E+03  0.38065949847E+03  0.42514835850E+03  0.83873318676E+03  0.60220143852E+03 0.  0.
   -5000001    2    3    3    0    0  0.75703945581E+01  0.31892421128E+03  0.53513579037E+03  0.63087293987E+03  0.99299489954E+02 0.  0.
     200001    1    1    2    0    0  0.12318281336E+03 -0.38065949847E+03  0.36229731417E+03  0.81676434982E+03  0.61300000000E+03 0.  1.
         13    1    4    4    0    0 -0.17949508394E+00  0.28909382048E+03  0.48680607290E+03  0.56617615018E+03  0.10566000000E+00 0.  1.
    -200003    1    4    4    0    0  0.77498896420E+01  0.29830390805E+02  0.48329717476E+02  0.64696789691E+02  0.30000000000E+02 0. -1.
    -200000    1    3    3    0    0 -0.13075320792E+03  0.61735287182E+02 -0.10998743188E+03  0.20786024689E+03  0.10100000000E+03 0.  1.
<mgrwt>
<rscale>  0 0.14562285E+04</rscale>
<asrwt>0</asrwt>
<pdfrwt beam="1">  1        2 0.62003705E-01 0.14562285E+04</pdfrwt>
<pdfrwt beam="2">  1       -2 0.17449594E+00 0.14562285E+04</pdfrwt>
<totfact> 0.15158779E+01</totfact>
</mgrwt>
</event>
<event>
 8    2  0.4480234E-052  0.1689382E+04  0.7818608E-02  0.8767443E-01
         -2   -1    0    0    0  501 -0.00000000000E+00  0.00000000000E+00  0.25038274317E+03  0.25038274318E+03  0.25500000000E-02 0. -1.
          2   -1    0    0  501    0  0.00000000000E+00 -0.00000000000E+00 -0.28496487527E+04  0.28496487527E+04  0.25500000000E-02 0.  1.
    -200001    2    1    2    0    0 -0.41558444410E+03 -0.17479430094E+03 -0.19656901488E+04  0.21098543152E+04  0.61990643854E+03 0.  0.
   -5000001    2    3    3    0    0 -0.15205535474E+03 -0.19165759303E+03 -0.17087967659E+04  0.17278501768E+04  0.75009216225E+02 0.  0.
     200001    1    1    2    0    0  0.41558444410E+03  0.17479430094E+03 -0.63357586077E+03  0.99017718069E+03  0.61300000000E+03 0. -1.
         13    1    4    4    0    0 -0.83388338347E+02 -0.57837656556E+02 -0.60582404073E+03  0.61426508038E+03  0.10566000000E+00 0.  1.
    -200003    1    4    4    0    0 -0.68667016389E+02 -0.13381993647E+03 -0.11029727252E+04  0.11135850965E+04  0.30000000000E+02 0. -1.
    -200000    1    3    3    0    0 -0.26352908937E+03  0.16863292086E+02 -0.25689338283E+03  0.38200413834E+03  0.10100000000E+03 0. -1.
<mgrwt>
<rscale>  0 0.16893820E+04</rscale>
<asrwt>0</asrwt>
<pdfrwt beam="1">  1        2 0.40709266E+00 0.16893820E+04</pdfrwt>
<pdfrwt beam="2">  1       -2 0.35768965E-01 0.16893820E+04</pdfrwt>
<totfact> 0.20090772E+01</totfact>
</mgrwt>
</event>
<event>
 8    2  0.4480234E-052  0.1421829E+04  0.7818608E-02  0.8938168E-01
         -2   -1    0    0    0  501 -0.00000000000E+00  0.00000000000E+00  0.22881112369E+03  0.22881112371E+03  0.25500000000E-02 0. -1.
          2   -1    0    0  501    0  0.00000000000E+00 -0.00000000000E+00 -0.22088050454E+04  0.22088050454E+04  0.25500000000E-02 0.  1.
    -200001    2    1    2    0    0  0.28044566386E+03  0.13132889045E+02 -0.60461154920E+03  0.90586295342E+03  0.61335986322E+03 0.  0.
   -5000001    2    3    3    0    0 -0.46320479708E+02 -0.21500099230E+03 -0.35970393653E+03  0.42732150366E+03  0.69611292226E+02 0.  0.
     200001    1    1    2    0    0 -0.28044566386E+03 -0.13132889045E+02 -0.13753823725E+04  0.15317532157E+04  0.61300000000E+03 0.  1.
         13    1    4    4    0    0 -0.36951414236E+02 -0.12690164665E+03 -0.16579962181E+03  0.21203528172E+03  0.10566000000E+00 0.  1.
    -200003    1    4    4    0    0 -0.93690654723E+01 -0.88099345649E+02 -0.19390431472E+03  0.21528622194E+03  0.30000000000E+02 0.  1.
    -200000    1    3    3    0    0  0.32676614357E+03  0.22813388134E+03 -0.24490761266E+03  0.47854144976E+03  0.10100000000E+03 0. -1.
<mgrwt>
<rscale>  0 0.14218286E+04</rscale>
<asrwt>0</asrwt>
<pdfrwt beam="1">  1        2 0.31554357E+00 0.14218286E+04</pdfrwt>
<pdfrwt beam="2">  1       -2 0.32687305E-01 0.14218286E+04</pdfrwt>
<totfact> 0.53162465E+01</totfact>
</mgrwt>
</event>
<event>
 8    2  0.4480234E-052  0.1575493E+04  0.7818608E-02  0.8835746E-01
          2   -1    0    0  501    0  0.00000000000E+00  0.00000000000E+00  0.60654767494E+03  0.60654767495E+03  0.25500000000E-02 0.  1.
         -2   -1    0    0    0  501 -0.00000000000E+00 -0.00000000000E+00 -0.10230768338E+04  0.10230768338E+04  0.25500000000E-02 0. -1.
    -200001    2    1    2    0    0  0.33252251552E+02 -0.40865370654E+02  0.30063753091E+03  0.68470506684E+03  0.61291305486E+03 0.  0.
   -5000001    2    3    3    0    0 -0.22377275801E+03 -0.40852489596E+01 -0.12739274347E+02  0.26539533053E+03  0.14206145103E+03 0.  0.
     200001    1    1    2    0    0 -0.33252251552E+02  0.40865370654E+02 -0.71716668973E+03  0.94491944186E+03  0.61300000000E+03 0. -1.
         13    1    4    4    0    0 -0.92813567471E+02  0.42961487556E+02 -0.56018382793E+02  0.11661096901E+03  0.10566000000E+00 0.  1.
    -200003    1    4    4    0    0 -0.13095919054E+03 -0.47046736515E+02  0.43279108446E+02  0.14878436151E+03  0.30000000000E+02 0.  1.
    -200000    1    3    3    0    0  0.25702500956E+03 -0.36780121694E+02  0.31337680526E+03  0.41930973631E+03  0.10100000000E+03 0.  1.
<mgrwt>
<rscale>  0 0.15754934E+04</rscale>
<asrwt>0</asrwt>
<pdfrwt beam="1">  1        2 0.86649668E-01 0.15754934E+04</pdfrwt>
<pdfrwt beam="2">  1       -2 0.14615383E+00 0.15754934E+04</pdfrwt>
<totfact> 0.16542438E+01</totfact>
</mgrwt>
</event>
<event>
 8    2  0.4480234E-052  0.1406702E+04  0.7818608E-02  0.8948981E-01
          2   -1    0    0  501    0  0.00000000000E+00  0.00000000000E+00  0.72434117440E+03  0.72434117440E+03  0.25500000000E-02 0.  1.
         -2   -1    0    0    0  501 -0.00000000000E+00 -0.00000000000E+00 -0.68296921175E+03  0.68296921176E+03  0.25500000000E-02 0. -1.
    -200001    2    1    2    0    0  0.19507682741E+03  0.15449681964E+03  0.25594316426E+03  0.71180047506E+03  0.61581553820E+03 0.  0.
   -5000001    2    3    3    0    0  0.22173541087E+03 -0.16506036122E+02 -0.12669910108E+03  0.27986441501E+03  0.11328012585E+03 0.  0.
     200001    1    1    2    0    0 -0.19507682741E+03 -0.15449681964E+03 -0.21457120161E+03  0.69550991110E+03  0.61300000000E+03 0. -1.
         13    1    4    4    0    0  0.12540811358E+03  0.38467459033E+02 -0.44214984174E+02  0.13842657384E+03  0.10566000000E+00 0.  1.
    -200003    1    4    4    0    0  0.96327297284E+02 -0.54973495155E+02 -0.82484116907E+02  0.14143784117E+03  0.30000000000E+02 0.  1.
    -200000    1    3    3    0    0 -0.26658583451E+02  0.17100285576E+03  0.38264226534E+03  0.43193606005E+03  0.10100000000E+03 0.  1.
<mgrwt>
<rscale>  0 0.14067021E+04</rscale>
<asrwt>0</asrwt>
<pdfrwt beam="1">  1        2 0.10347731E+00 0.14067021E+04</pdfrwt>
<pdfrwt beam="2">  1       -2 0.97567030E-01 0.14067021E+04</pdfrwt>
<totfact> 0.36806207E+01</totfact>
</mgrwt>
</event>
<event>
 8    2  0.4480234E-052  0.1712515E+04  0.7818608E-02  0.8754258E-01
          2   -1    0    0  501    0  0.00000000000E+00  0.00000000000E+00  0.11286675974E+04  0.11286675974E+04  0.25500000000E-02 0.  1.
         -2   -1    0    0    0  501 -0.00000000000E+00 -0.00000000000E+00 -0.64959533996E+03  0.64959533996E+03  0.25500000000E-02 0. -1.
    -200001    2    1    2    0    0 -0.54079222028E+03  0.13746346778E+03  0.46179167875E+03  0.94915495356E+03  0.61342574188E+03 0.  0.
   -5000001    2    3    3    0    0 -0.25564532853E+02 -0.11613781458E+03 -0.51492700639E+02  0.17234414362E+03  0.11361984116E+03 0.  0.
     200001    1    1    2    0    0  0.54079222028E+03 -0.13746346778E+03  0.17280578735E+02  0.82910798386E+03  0.61300000000E+03 0.  1.
         13    1    4    4    0    0 -0.32994795387E+02 -0.11993720668E+03 -0.62634206844E+02  0.13927183886E+03  0.10566000000E+00 0.  1.
    -200003    1    4    4    0    0  0.74302625336E+01  0.37993920978E+01  0.11141506205E+02  0.33072304760E+02  0.30000000000E+02 0.  1.
    -200000    1    3    3    0    0 -0.51522768743E+03  0.25360128236E+03  0.51328437939E+03  0.77681080994E+03  0.10100000000E+03 0. -1.
<mgrwt>
<rscale>  0 0.17125154E+04</rscale>
<asrwt>0</asrwt>
<pdfrwt beam="1">  1        2 0.16123823E+00 0.17125154E+04</pdfrwt>
<pdfrwt beam="2">  1       -2 0.92799334E-01 0.17125154E+04</pdfrwt>
<totfact> 0.22055551E+01</totfact>
</mgrwt>
</event>
<event>
 8    2  0.4480234E-052  0.1403137E+04  0.7818608E-02  0.8951551E-01
         -2   -1    0    0    0  501 -0.00000000000E+00  0.00000000000E+00  0.46129981348E+03  0.46129981348E+03  0.25500000000E-02 0. -1.
          2   -1    0    0  501    0  0.00000000000E+00 -0.00000000000E+00 -0.10669818557E+04  0.10669818557E+04  0.25500000000E-02 0.  1.
    -200001    2    1    2    0    0 -0.14394466026E+03  0.70039264793E+02  0.26107033484E+02  0.63354595402E+03  0.61243231040E+03 0.  0.
   -5000001    2    3    3    0    0 -0.28618438287E+03  0.16070160081E+03 -0.15023985472E+03  0.36944176466E+03  0.78668278416E+02 0.  0.
     200001    1    1    2    0    0  0.14394466026E+03 -0.70039264793E+02 -0.63178907574E+03  0.89473571520E+03  0.61300000000E+03 0.  1.
         13    1    4    4    0    0 -0.73165938320E+02  0.37047773958E+02 -0.72386438446E+02  0.10938738373E+03  0.10566000000E+00 0.  1.
    -200003    1    4    4    0    0 -0.21301844455E+03  0.12365382685E+03 -0.77853416269E+02  0.26005438092E+03  0.30000000000E+02 0.  1.
    -200000    1    3    3    0    0  0.14223972261E+03 -0.90662336013E+02  0.17634688820E+03  0.26410418936E+03  0.10100000000E+03 0.  1.
<mgrwt>
<rscale>  0 0.14031372E+04</rscale>
<asrwt>0</asrwt>
<pdfrwt beam="1">  1        2 0.15242598E+00 0.14031372E+04</pdfrwt>
<pdfrwt beam="2">  1       -2 0.65899974E-01 0.14031372E+04</pdfrwt>
<totfact> 0.52800165E+01</totfact>
</mgrwt>
</event>
<event>
 8    2  0.4480234E-052  0.1345579E+04  0.7818608E-02  0.8994181E-01
         -2   -1    0    0    0  501 -0.00000000000E+00  0.00000000000E+00  0.53653584486E+03  0.53653584487E+03  0.25500000000E-02 0. -1.
          2   -1    0    0  501    0  0.00000000000E+00 -0.00000000000E+00 -0.84364532027E+03  0.84364532027E+03  0.25500000000E-02 0.  1.
    -200001    2    1    2    0    0  0.22734436397E+03  0.73145108782E+02 -0.18345189857E+02  0.66171788885E+03  0.61684548443E+03 0.  0.
   -5000001    2    3    3    0    0  0.32964698237E+03  0.25077637906E+03  0.37279103276E+02  0.42652912233E+03  0.94770435140E+02 0.  0.
     200001    1    1    2    0    0 -0.22734436397E+03 -0.73145108782E+02 -0.28876428555E+03  0.71846327629E+03  0.61300000000E+03 0. -1.
         13    1    4    4    0    0  0.23763389178E+03  0.13958008616E+03  0.43382380746E+02  0.27898836732E+03  0.10566000000E+00 0.  1.
    -200003    1    4    4    0    0  0.92013090586E+02  0.11119629290E+03 -0.61032774696E+01  0.14754075501E+03  0.30000000000E+02 0. -1.
    -200000    1    3    3    0    0 -0.10230261840E+03 -0.17763127028E+03 -0.55624293133E+02  0.23518876652E+03  0.10100000000E+03 0.  1.
<mgrwt>
<rscale>  0 0.13455794E+04</rscale>
<asrwt>0</asrwt>
<pdfrwt beam="1">  1        2 0.12052076E+00 0.13455794E+04</pdfrwt>
<pdfrwt beam="2">  1       -2 0.76647978E-01 0.13455794E+04</pdfrwt>
<totfact> 0.52798305E+01</totfact>
</mgrwt>
</event>
<event>
 8    2  0.4480234E-052  0.1934426E+04  0.7818608E-02  0.8637908E-01
          2   -1    0    0  501    0  0.00000000000E+00  0.00000000000E+00  0.30734198078E+04  0.30734198078E+04  0.25500000000E-02 0.  1.
         -2   -1    0    0    0  501 -0.00000000000E+00 -0.00000000000E+00 -0.30438427379E+03  0.30438427381E+03  0.25500000000E-02 0. -1.
    -200001    2    1    2    0    0 -0.17370455714E+03  0.67466018538E+03  0.91766916293E+03  0.13068946005E+04  0.61686073417E+03 0.  0.
   -5000001    2    3    3    0    0 -0.45082291042E+02 -0.32955559432E+01  0.79777792483E+02  0.21674294905E+03  0.19639179243E+03 0.  0.
     200001    1    1    2    0    0  0.17370455714E+03 -0.67466018538E+03  0.18513663710E+04  0.20709094811E+04  0.61300000000E+03 0.  1.
         13    1    4    4    0    0 -0.10810259333E+03 -0.32534904927E+02  0.84360835876E+02  0.14093066564E+03  0.10566000000E+00 0.  1.
    -200003    1    4    4    0    0  0.63020302289E+02  0.29239348984E+02 -0.45830433932E+01  0.75812283413E+02  0.30000000000E+02 0.  1.
    -200000    1    3    3    0    0 -0.12862226610E+03  0.67795574132E+03  0.83789137045E+03  0.10901516515E+04  0.10100000000E+03 0.  1.
<mgrwt>
<rscale>  0 0.19344257E+04</rscale>
<asrwt>0</asrwt>
<pdfrwt beam="1">  1        2 0.43905997E+00 0.19344257E+04</pdfrwt>
<pdfrwt beam="2">  1       -2 0.43483468E-01 0.19344257E+04</pdfrwt>
<totfact> 0.10092376E+01</totfact>
</mgrwt>
</event>
<event>
 8    2  0.4480234E-052  0.1395128E+04  0.7818608E-02  0.8957353E-01
          2   -1    0    0  501    0  0.00000000000E+00  0.00000000000E+00  0.18423709086E+04  0.18423709086E+04  0.25500000000E-02 0.  1.
         -2   -1    0    0    0  501 -0.00000000000E+00 -0.00000000000E+00 -0.26411378162E+03  0.26411378163E+03  0.25500000000E-02 0. -1.
    -200001    2    1    2    0    0 -0.23336053065E+03 -0.18728024342E+03  0.57043723890E+03  0.88952086429E+03  0.61344738784E+03 0.  0.
   -5000001    2    3    3    0    0  0.13515888302E+03  0.10822769151E+03  0.12541032475E+03  0.23272450912E+03  0.91933621292E+02 0.  0.
     200001    1    1    2    0    0  0.23336053065E+03  0.18728024342E+03  0.10078198881E+04  0.12169638260E+04  0.61300000000E+03 0.  1.
         13    1    4    4    0    0  0.71492411190E+02  0.77231807253E+02  0.11370586369E+03  0.15493531396E+03  0.10566000000E+00 0.  1.
    -200003    1    4    4    0    0  0.63666471826E+02  0.30995884258E+02  0.11704461062E+02  0.77789195165E+02  0.30000000000E+02 0. -1.
    -200000    1    3    3    0    0 -0.36851941366E+03 -0.29550793493E+03  0.44502691414E+03  0.65679635517E+03  0.10100000000E+03 0. -1.
<mgrwt>
<rscale>  0 0.13951280E+04</rscale>
<asrwt>0</asrwt>
<pdfrwt beam="1">  1        2 0.26319585E+00 0.13951280E+04</pdfrwt>
<pdfrwt beam="2">  1       -2 0.37730540E-01 0.13951280E+04</pdfrwt>
<totfact> 0.62485446E+01</totfact>
</mgrwt>
</event>
<event>
 8    2  0.4480234E-052  0.1589372E+04  0.7818608E-02  0.8827104E-01
          2   -1    0    0  501    0  0.00000000000E+00  0.00000000000E+00  0.30542150312E+04  0.30542150312E+04  0.25500000000E-02 0.  1.
         -2   -1    0    0    0  501 -0.00000000000E+00 -0.00000000000E+00 -0.20677193300E+03  0.20677193302E+03  0.25500000000E-02 0. -1.
    -200001    2    1    2    0    0  0.22900839430E+03 -0.27787006172E+03  0.69412986838E+03  0.99334865937E+03  0.61259176377E+03 0.  0.
   -5000001    2    3    3    0    0 -0.15463196645E+02 -0.34397297238E+03  0.61445119122E+03  0.70929647197E+03  0.83634338469E+02 0.  0.
     200001    1    1    2    0    0 -0.22900839430E+03  0.27787006172E+03  0.21533132298E+04  0.22676383048E+04  0.61300000000E+03 0.  1.
         13    1    4    4    0    0 -0.71040740144E+01 -0.29962528717E+03  0.50721816328E+03  0.58914858644E+03  0.10566000000E+00 0.  1.
    -200003    1    4    4    0    0 -0.83591226302E+01 -0.44347685206E+02  0.10723302794E+03  0.12014788552E+03  0.30000000000E+02 0. -1.
    -200000    1    3    3    0    0  0.24447159094E+03  0.66102910660E+02  0.79678677155E+02  0.28405218741E+03  0.10100000000E+03 0. -1.
<mgrwt>
<rscale>  0 0.15893721E+04</rscale>
<asrwt>0</asrwt>
<pdfrwt beam="1">  1        2 0.43631645E+00 0.15893721E+04</pdfrwt>
<pdfrwt beam="2">  1       -2 0.29538846E-01 0.15893721E+04</pdfrwt>
<totfact> 0.22407885E+01</totfact>
</mgrwt>
</event>
<event>
 8    2  0.4480234E-052  0.2227372E+04  0.7818608E-02  0.8507121E-01
         -2   -1    0    0    0  501 -0.00000000000E+00  0.00000000000E+00  0.15526437112E+04  0.15526437112E+04  0.25500000000E-02 0. -1.
          2   -1    0    0  501    0  0.00000000000E+00 -0.00000000000E+00 -0.79882864294E+03  0.79882864294E+03  0.25500000000E-02 0.  1.
    -200001    2    1    2    0    0 -0.86267809677E+02  0.64232768132E+03 -0.32669780818E+03  0.95029282911E+03  0.61343134744E+03 0.  0.
   -5000001    2    3    3    0    0 -0.18705042819E+03  0.68772135007E+03 -0.33496145688E+03  0.80033613787E+03  0.14279439053E+03 0.  0.
     200001    1    1    2    0    0  0.86267809677E+02 -0.64232768132E+03  0.10805128764E+04  0.14011795250E+04  0.61300000000E+03 0. -1.
         13    1    4    4    0    0 -0.61800992306E+02  0.42799714056E+03 -0.24385601354E+03  0.49645410813E+03  0.10566000000E+00 0.  1.
    -200003    1    4    4    0    0 -0.12524943589E+03  0.25972420950E+03 -0.91105443339E+02  0.30388202974E+03  0.30000000000E+02 0.  1.
    -200000    1    3    3    0    0  0.10078261852E+03 -0.45393668751E+02  0.82636486943E+01  0.14995669124E+03  0.10100000000E+03 0. -1.
<mgrwt>
<rscale>  0 0.22273718E+04</rscale>
<asrwt>0</asrwt>
<pdfrwt beam="1">  1        2 0.11411838E+00 0.22273718E+04</pdfrwt>
<pdfrwt beam="2">  1       -2 0.22180625E+00 0.22273718E+04</pdfrwt>
<totfact> 0.33566093E+00</totfact>
</mgrwt>
</event>
<event>
 8    2  0.4480234E-052  0.1701767E+04  0.7818608E-02  0.8760357E-01
         -2   -1    0    0    0  501 -0.00000000000E+00  0.00000000000E+00  0.12732443665E+04  0.12732443665E+04  0.25500000000E-02 0. -1.
          2   -1    0    0  501    0  0.00000000000E+00 -0.00000000000E+00 -0.56862828964E+03  0.56862828965E+03  0.25500000000E-02 0.  1.
    -200001    2    1    2    0    0 -0.94547307620E+02 -0.58250148248E+03  0.34329468264E+03  0.91744346993E+03  0.61286549170E+03 0.  0.
   -5000001    2    3    3    0    0  0.11365005730E+03 -0.59667873223E+03  0.29846146622E+03  0.68131182346E+03  0.78515660520E+02 0.  0.
     200001    1    1    2    0    0  0.94547307620E+02  0.58250148248E+03  0.36132139427E+03  0.92442918627E+03  0.61300000000E+03 0. -1.
         13    1    4    4    0    0  0.66294706049E+02 -0.45640225211E+03  0.21718022141E+03  0.50976981424E+03  0.10566000000E+00 0.  1.
    -200003    1    4    4    0    0  0.47355351249E+02 -0.14027648013E+03  0.81281244814E+02  0.17154200922E+03  0.30000000000E+02 0. -1.
    -200000    1    3    3    0    0 -0.20819736492E+03  0.14177249753E+02  0.44833216416E+02  0.23613164647E+03  0.10100000000E+03 0.  1.
<mgrwt>
<rscale>  0 0.17017670E+04</rscale>
<asrwt>0</asrwt>
<pdfrwt beam="1">  1        2 0.81232612E-01 0.17017670E+04</pdfrwt>
<pdfrwt beam="2">  1       -2 0.18189205E+00 0.17017670E+04</pdfrwt>
<totfact> 0.96967880E+00</totfact>
</mgrwt>
</event>
<event>
 8    2  0.4480234E-052  0.1415763E+04  0.7818608E-02  0.8942487E-01
          2   -1    0    0  501    0  0.00000000000E+00  0.00000000000E+00  0.13528651156E+04  0.13528651156E+04  0.25500000000E-02 0.  1.
         -2   -1    0    0    0  501 -0.00000000000E+00 -0.00000000000E+00 -0.37039619937E+03  0.37039619937E+03  0.25500000000E-02 0. -1.
    -200001    2    1    2    0    0  0.14832167176E+03  0.30519419906E+03  0.36698094361E+03  0.79066426269E+03  0.61264357164E+03 0.  0.
   -5000001    2    3    3    0    0  0.26569886959E+03  0.25682439742E+03  0.38292771560E+03  0.62765400591E+03  0.33280813594E+03 0.  0.
     200001    1    1    2    0    0 -0.14832167176E+03 -0.30519419906E+03  0.61548797258E+03  0.93259705224E+03  0.61300000000E+03 0.  1.
         13    1    4    4    0    0  0.18894072594E+03  0.33351592919E+03  0.27555081869E+03  0.47208022389E+03  0.10566000000E+00 0.  1.
    -200003    1    4    4    0    0  0.76758143643E+02 -0.76691531770E+02  0.10737689691E+03  0.15557378201E+03  0.30000000000E+02 0.  1.
    -200000    1    3    3    0    0 -0.11737719783E+03  0.48369801637E+02 -0.15946771992E+02  0.16301025679E+03  0.10100000000E+03 0. -1.
<mgrwt>
<rscale>  0 0.14157628E+04</rscale>
<asrwt>0</asrwt>
<pdfrwt beam="1">  1        2 0.19326645E+00 0.14157628E+04</pdfrwt>
<pdfrwt beam="2">  1       -2 0.52913743E-01 0.14157628E+04</pdfrwt>
<totfact> 0.57544574E+01</totfact>
</mgrwt>
</event>
<event>
 8    2  0.4480234E-052  0.1283428E+04  0.7818608E-02  0.9042811E-01
          2   -1    0    0  501    0  0.00000000000E+00  0.00000000000E+00  0.96899180356E+03  0.96899180356E+03  0.25500000000E-02 0.  1.
         -2   -1    0    0    0  501 -0.00000000000E+00 -0.00000000000E+00 -0.42497486666E+03  0.42497486666E+03  0.25500000000E-02 0. -1.
    -200001    2    1    2    0    0  0.26408940931E+02 -0.98232599171E+02  0.90334313769E+02  0.62458770103E+03  0.60959202122E+03 0.  0.
   -5000001    2    3    3    0    0 -0.26650954085E+03  0.15036856690E+02  0.87431388789E+02  0.29467766242E+03  0.89091158716E+02 0.  0.
     200001    1    1    2    0    0 -0.26408940931E+02  0.98232599171E+02  0.45368262313E+03  0.76937896919E+03  0.61300000000E+03 0.  1.
         13    1    4    4    0    0 -0.51945442187E+02 -0.25774251884E+02  0.36139592002E+02  0.68328049133E+02  0.10566000000E+00 0.  1.
    -200003    1    4    4    0    0 -0.21456409867E+03  0.40811108574E+02  0.51291796787E+02  0.22634961329E+03  0.30000000000E+02 0.  1.
    -200000    1    3    3    0    0  0.29291848178E+03 -0.11326945586E+03  0.29029249805E+01  0.32991003861E+03  0.10100000000E+03 0. -1.
<mgrwt>
<rscale>  0 0.12834285E+04</rscale>
<asrwt>0</asrwt>
<pdfrwt beam="1">  1        2 0.13842740E+00 0.12834285E+04</pdfrwt>
<pdfrwt beam="2">  1       -2 0.60710696E-01 0.12834285E+04</pdfrwt>
<totfact> 0.72860678E+01</totfact>
</mgrwt>
</event>
<event>
 8    2  0.4480234E-052  0.1706098E+04  0.7818608E-02  0.8757894E-01
         -2   -1    0    0    0  501 -0.00000000000E+00  0.00000000000E+00  0.26672775072E+03  0.26672775073E+03  0.25500000000E-02 0. -1.
          2   -1    0    0  501    0  0.00000000000E+00 -0.00000000000E+00 -0.27282214517E+04  0.27282214517E+04  0.25500000000E-02 0.  1.
    -200001    2    1    2    0    0 -0.32426837946E+03 -0.48672134758E+03 -0.14011364610E+04  0.16376820480E+04  0.61381711927E+03 0.  0.
   -5000001    2    3    3    0    0  0.26835955098E+02 -0.17919036252E+03 -0.63774763819E+02  0.21761625038E+03  0.10227539989E+03 0.  0.
     200001    1    1    2    0    0  0.32426837946E+03  0.48672134758E+03 -0.10603572400E+04  0.13572671544E+04  0.61300000000E+03 0.  1.
         13    1    4    4    0    0  0.36167219178E+02 -0.37206780480E+02  0.12550536609E+02  0.53384823592E+02  0.10566000000E+00 0.  1.
    -200003    1    4    4    0    0 -0.93312640802E+01 -0.14198358204E+03 -0.76325300428E+02  0.16423142679E+03  0.30000000000E+02 0.  1.
    -200000    1    3    3    0    0 -0.35110433456E+03 -0.30753098506E+03 -0.13373616971E+04  0.14200657976E+04  0.10100000000E+03 0.  1.
<mgrwt>
<rscale>  0 0.17060977E+04</rscale>
<asrwt>0</asrwt>
<pdfrwt beam="1">  1        2 0.38974591E+00 0.17060977E+04</pdfrwt>
<pdfrwt beam="2">  1       -2 0.38103966E-01 0.17060977E+04</pdfrwt>
<totfact> 0.20666749E+01</totfact>
</mgrwt>
</event>
<event>
 8    2  0.4480234E-052  0.1833912E+04  0.7818608E-02  0.8688471E-01
         -2   -1    0    0    0  501 -0.00000000000E+00  0.00000000000E+00  0.37269195468E+03  0.37269195469E+03  0.25500000000E-02 0. -1.
          2   -1    0    0  501    0  0.00000000000E+00 -0.00000000000E+00 -0.22560400575E+04  0.22560400575E+04  0.25500000000E-02 0.  1.
    -200001    2    1    2    0    0  0.38757409848E+03  0.44392954994E+03 -0.45013918789E+03  0.96225551343E+03  0.61320735280E+03 0.  0.
   -5000001    2    3    3    0    0  0.81055285942E+02  0.28650611699E+03  0.83488401009E+02  0.31906399971E+03  0.78586311534E+02 0.  0.
     200001    1    1    2    0    0 -0.38757409848E+03 -0.44392954994E+03 -0.14332089149E+04  0.16664764988E+04  0.61300000000E+03 0.  1.
         13    1    4    4    0    0  0.25691797280E+02  0.18606160197E+03  0.66762219871E+02  0.19933939235E+03  0.10566000000E+00 0.  1.
    -200003    1    4    4    0    0  0.55363488662E+02  0.10044451502E+03  0.16726181138E+02  0.11972460737E+03  0.30000000000E+02 0.  1.
    -200000    1    3    3    0    0  0.30651881254E+03  0.15742343295E+03 -0.53362758890E+03  0.64319151372E+03  0.10100000000E+03 0. -1.
<mgrwt>
<rscale>  0 0.18339116E+04</rscale>
<asrwt>0</asrwt>
<pdfrwt beam="1">  1        2 0.32229143E+00 0.18339116E+04</pdfrwt>
<pdfrwt beam="2">  1       -2 0.53241709E-01 0.18339116E+04</pdfrwt>
<totfact> 0.18577027E+01</totfact>
</mgrwt>
</event>
<event>
 8    2  0.4480234E-052  0.1836684E+04  0.7818608E-02  0.8687031E-01
         -2   -1    0    0    0  501 -0.00000000000E+00  0.00000000000E+00  0.21556843748E+03  0.21556843750E+03  0.25500000000E-02 0. -1.
          2   -1    0    0  501    0  0.00000000000E+00 -0.00000000000E+00 -0.39122252122E+04  0.39122252122E+04  0.25500000000E-02 0.  1.
    -200001    2    1    2    0    0  0.14513930828E+03  0.29010691735E+03 -0.32043896598E+04  0.32773094613E+04  0.60614913258E+03 0.  0.
   -5000001    2    3    3    0    0 -0.40202131806E+02  0.28876251350E+03 -0.10433122299E+04  0.11059481568E+04  0.22275752682E+03 0.  0.
     200001    1    1    2    0    0 -0.14513930828E+03 -0.29010691735E+03 -0.49226711493E+03  0.85048418841E+03  0.61300000000E+03 0. -1.
         13    1    4    4    0    0  0.27906733046E+02  0.74215982102E+02 -0.67713261537E+02  0.10426837824E+03  0.10566000000E+00 0.  1.
    -200003    1    4    4    0    0 -0.68108864852E+02  0.21454653139E+03 -0.97559896837E+03  0.10016797785E+04  0.30000000000E+02 0.  1.
    -200000    1    3    3    0    0  0.18534144009E+03  0.13444038541E+01 -0.21610774299E+04  0.21713613045E+04  0.10100000000E+03 0.  1.
<mgrwt>
<rscale>  0 0.18366843E+04</rscale>
<asrwt>0</asrwt>
<pdfrwt beam="1">  1        2 0.55888927E+00 0.18366843E+04</pdfrwt>
<pdfrwt beam="2">  1       -2 0.30795493E-01 0.18366843E+04</pdfrwt>
<totfact> 0.60761349E+00</totfact>
</mgrwt>
</event>
<event>
 8    2  0.4480234E-052  0.1236538E+04  0.7818608E-02  0.9081463E-01
         -2   -1    0    0    0  501 -0.00000000000E+00  0.00000000000E+00  0.13880839847E+03  0.13880839850E+03  0.25500000000E-02 0. -1.
          2   -1    0    0  501    0  0.00000000000E+00 -0.00000000000E+00 -0.27538433882E+04  0.27538433882E+04  0.25500000000E-02 0.  1.
    -200001    2    1    2    0    0  0.67783339721E+02 -0.42393463737E+02 -0.13123107991E+04  0.14506909329E+04  0.61314986959E+03 0.  0.
   -5000001    2    3    3    0    0  0.32425553379E+03  0.31183767171E+02 -0.70610168293E+03  0.78070430042E+03  0.69321998860E+02 0.  0.
     200001    1    1    2    0    0 -0.67783339721E+02  0.42393463737E+02 -0.13027241906E+04  0.14419608538E+04  0.61300000000E+03 0.  1.
         13    1    4    4    0    0  0.17699491451E+03 -0.34103237645E+01 -0.41756562473E+03  0.45354149997E+03  0.10566000000E+00 0.  1.
    -200003    1    4    4    0    0  0.14726061928E+03  0.34594090936E+02 -0.28853605820E+03  0.32716280045E+03  0.30000000000E+02 0.  1.
    -200000    1    3    3    0    0 -0.25647219407E+03 -0.73577230908E+02 -0.60620911615E+03  0.66998663251E+03  0.10100000000E+03 0. -1.
<mgrwt>
<rscale>  0 0.12365381E+04</rscale>
<asrwt>0</asrwt>
<pdfrwt beam="1">  1        2 0.39340617E+00 0.12365381E+04</pdfrwt>
<pdfrwt beam="2">  1       -2 0.19829773E-01 0.12365381E+04</pdfrwt>
<totfact> 0.69366270E+01</totfact>
</mgrwt>
</event>
<event>
 8    2  0.4480234E-052  0.1416826E+04  0.7818608E-02  0.8941728E-01
          2   -1    0    0  501    0  0.00000000000E+00  0.00000000000E+00  0.33982297008E+04  0.33982297008E+04  0.25500000000E-02 0.  1.
         -2   -1    0    0    0  501 -0.00000000000E+00 -0.00000000000E+00 -0.14767963039E+03  0.14767963042E+03  0.25500000000E-02 0. -1.
    -200001    2    1    2    0    0  0.68460453136E+02  0.23349225184E+03  0.97718784455E+03  0.11788118944E+04  0.61277722999E+03 0.  0.
   -5000001    2    3    3    0    0 -0.81737147669E+02  0.34784995800E+03  0.41833289421E+03  0.58034981562E+03  0.18472396575E+03 0.  0.
     200001    1    1    2    0    0 -0.68460453136E+02 -0.23349225184E+03  0.22733622258E+04  0.23670974368E+04  0.61300000000E+03 0.  1.
         13    1    4    4    0    0 -0.85297156847E+02  0.47862715882E+02  0.73845959853E+02  0.12255481014E+03  0.10566000000E+00 0.  1.
    -200003    1    4    4    0    0  0.35600091780E+01  0.29998724212E+03  0.34448693436E+03  0.45779500548E+03  0.30000000000E+02 0.  1.
    -200000    1    3    3    0    0  0.15019760080E+03 -0.11435770617E+03  0.55885495034E+03  0.59846207881E+03  0.10100000000E+03 0.  1.
<mgrwt>
<rscale>  0 0.14168265E+04</rscale>
<asrwt>0</asrwt>
<pdfrwt beam="1">  1        2 0.48546126E+00 0.14168265E+04</pdfrwt>
<pdfrwt beam="2">  1       -2 0.21097096E-01 0.14168265E+04</pdfrwt>
<totfact> 0.26529776E+01</totfact>
</mgrwt>
</event>
<event>
 8    2  0.4480234E-052  0.1453147E+04  0.7818608E-02  0.8916222E-01
          2   -1    0    0  501    0  0.00000000000E+00  0.00000000000E+00  0.17868634492E+04  0.17868634492E+04  0.25500000000E-02 0.  1.
         -2   -1    0    0    0  501 -0.00000000000E+00 -0.00000000000E+00 -0.29543883791E+03  0.29543883792E+03  0.25500000000E-02 0. -1.
    -200001    2    1    2    0    0  0.34982724621E+03 -0.17082199155E+03  0.72134586054E+03  0.10238366347E+04  0.61346748004E+03 0.  0.
   -5000001    2    3    3    0    0  0.81146029647E+02 -0.34166625771E+03  0.42773132951E+03  0.57910317268E+03  0.17054584306E+03 0.  0.
     200001    1    1    2    0    0 -0.34982724621E+03  0.17082199155E+03  0.77007875072E+03  0.10584656524E+04  0.61300000000E+03 0.  1.
         13    1    4    4    0    0 -0.50201506241E+02 -0.67571880753E+02  0.10813736592E+03  0.13703959782E+03  0.10566000000E+00 0.  1.
    -200003    1    4    4    0    0  0.13134753589E+03 -0.27409437695E+03  0.31959396359E+03  0.44206357487E+03  0.30000000000E+02 0.  1.
    -200000    1    3    3    0    0  0.26868121656E+03  0.17084426616E+03  0.29361453103E+03  0.44473346203E+03  0.10100000000E+03 0. -1.
<mgrwt>
<rscale>  0 0.14531467E+04</rscale>
<asrwt>0</asrwt>
<pdfrwt beam="1">  1        2 0.25526621E+00 0.14531467E+04</pdfrwt>
<pdfrwt beam="2">  1       -2 0.42205548E-01 0.14531467E+04</pdfrwt>
<totfact> 0.53383553E+01</totfact>
</mgrwt>
</event>
<event>
 8    2  0.4480234E-052  0.1796129E+04  0.7818608E-02  0.8708361E-01
         -2   -1    0    0    0  501 -0.00000000000E+00  0.00000000000E+00  0.37158449278E+03  0.37158449279E+03  0.25500000000E-02 0. -1.
          2   -1    0    0  501    0  0.00000000000E+00 -0.00000000000E+00 -0.21704872822E+04  0.21704872822E+04  0.25500000000E-02 0.  1.
    -200001    2    1    2    0    0  0.45870736428E+02 -0.64434821473E+03 -0.10655295330E+04  0.13884279480E+04  0.61244610769E+03 0.  0.
   -5000001    2    3    3    0    0 -0.87197704759E+02 -0.50969020803E+03 -0.32095720032E+03  0.61355444387E+03  0.77768780885E+02 0.  0.
     200001    1    1    2    0    0 -0.45870736428E+02  0.64434821473E+03 -0.73337325641E+03  0.11536438270E+04  0.61300000000E+03 0.  1.
         13    1    4    4    0    0 -0.79542786519E+02 -0.41426244606E+03 -0.27200945997E+03  0.50192587758E+03  0.10566000000E+00 0.  1.
    -200003    1    4    4    0    0 -0.76549182400E+01 -0.95427761973E+02 -0.48947740348E+02  0.11162856630E+03  0.30000000000E+02 0.  1.
    -200000    1    3    3    0    0  0.13306844119E+03 -0.13465800670E+03 -0.74457233269E+03  0.77487350414E+03  0.10100000000E+03 0.  1.
<mgrwt>
<rscale>  0 0.17961285E+04</rscale>
<asrwt>0</asrwt>
<pdfrwt beam="1">  1        2 0.31006960E+00 0.17961285E+04</pdfrwt>
<pdfrwt beam="2">  1       -2 0.53083500E-01 0.17961285E+04</pdfrwt>
<totfact> 0.20759827E+01</totfact>
</mgrwt>
</event>
<event>
 8    2  0.4480234E-052  0.1486318E+04  0.7818608E-02  0.8893602E-01
          2   -1    0    0  501    0  0.00000000000E+00  0.00000000000E+00  0.13383141393E+04  0.13383141393E+04  0.25500000000E-02 0.  1.
         -2   -1    0    0    0  501 -0.00000000000E+00 -0.00000000000E+00 -0.41267260960E+03  0.41267260961E+03  0.25500000000E-02 0. -1.
    -200001    2    1    2    0    0  0.16083430107E+03 -0.34073328567E+03  0.22577994823E+03  0.74722279380E+03  0.60448198830E+03 0.  0.
   -5000001    2    3    3    0    0 -0.12897549827E+03 -0.26468441608E+03 -0.57612473379E+02  0.32262249353E+03  0.11863202339E+03 0.  0.
     200001    1    1    2    0    0 -0.16083430107E+03  0.34073328567E+03  0.69986158145E+03  0.10037639551E+04  0.61300000000E+03 0.  1.
         13    1    4    4    0    0 -0.86736219060E+02 -0.58918367020E+02 -0.26635898370E+02  0.10818515571E+03  0.10566000000E+00 0.  1.
    -200003    1    4    4    0    0 -0.42239279210E+02 -0.20576604906E+03 -0.30976575009E+02  0.21443733782E+03  0.30000000000E+02 0.  1.
    -200000    1    3    3    0    0  0.28980979934E+03 -0.76048869593E+02  0.28339242161E+03  0.42460030027E+03  0.10100000000E+03 0.  1.
<mgrwt>
<rscale>  0 0.14863184E+04</rscale>
<asrwt>0</asrwt>
<pdfrwt beam="1">  1        2 0.19118774E+00 0.14863184E+04</pdfrwt>
<pdfrwt beam="2">  1       -2 0.58953229E-01 0.14863184E+04</pdfrwt>
<totfact> 0.46554263E+01</totfact>
</mgrwt>
</event>
<event>
 8    2  0.4480234E-052  0.1281852E+04  0.7818608E-02  0.9044082E-01
         -2   -1    0    0    0  501 -0.00000000000E+00  0.00000000000E+00  0.31998749115E+03  0.31998749116E+03  0.25500000000E-02 0. -1.
          2   -1    0    0  501    0  0.00000000000E+00 -0.00000000000E+00 -0.12837558694E+04  0.12837558694E+04  0.25500000000E-02 0.  1.
    -200001    2    1    2    0    0  0.13310089440E+02 -0.12271302317E+03 -0.30374869414E+03  0.69455106628E+03  0.61229263424E+03 0.  0.
   -5000001    2    3    3    0    0 -0.25304752079E+03 -0.18160367855E+03 -0.82106874906E+02  0.32884547177E+03  0.66218287171E+02 0.  0.
     200001    1    1    2    0    0 -0.13310089440E+02  0.12271302317E+03 -0.66001968406E+03  0.90919229423E+03  0.61300000000E+03 0.  1.
         13    1    4    4    0    0 -0.18013089299E+03 -0.10635079595E+03 -0.47748196429E+02  0.21456358460E+03  0.10566000000E+00 0.  1.
    -200003    1    4    4    0    0 -0.72916627800E+02 -0.75252882597E+02 -0.34358678477E+02  0.11428188717E+03  0.30000000000E+02 0.  1.
    -200000    1    3    3    0    0  0.26635761023E+03  0.58890655385E+02 -0.22164181924E+03  0.36570559451E+03  0.10100000000E+03 0.  1.
<mgrwt>
<rscale>  0 0.12818515E+04</rscale>
<asrwt>0</asrwt>
<pdfrwt beam="1">  1        2 0.18339369E+00 0.12818515E+04</pdfrwt>
<pdfrwt beam="2">  1       -2 0.45712499E-01 0.12818515E+04</pdfrwt>
<totfact> 0.85367961E+01</totfact>
</mgrwt>
</event>
<event>
 8    2  0.4480234E-052  0.2429329E+04  0.7818608E-02  0.8428604E-01
          2   -1    0    0  501    0  0.00000000000E+00  0.00000000000E+00  0.13340438977E+04  0.13340438977E+04  0.25500000000E-02 0. -1.
         -2   -1    0    0    0  501 -0.00000000000E+00 -0.00000000000E+00 -0.11059680063E+04  0.11059680063E+04  0.25500000000E-02 0.  1.
    -200001    2    1    2    0    0  0.91848956058E+03  0.11217725776E+03  0.60990676213E+03  0.12662271606E+04  0.61248522738E+03 0.  0.
   -5000001    2    3    3    0    0  0.71825912229E+03 -0.15923773746E+03  0.30768718724E+03  0.80222716117E+03  0.87431053599E+02 0.  0.
     200001    1    1    2    0    0 -0.91848956058E+03 -0.11217725776E+03 -0.38183087068E+03  0.11737847434E+04  0.61300000000E+03 0.  1.
         13    1    4    4    0    0  0.40405174374E+03 -0.57791896670E+02  0.14728010425E+03  0.43392298304E+03  0.10566000000E+00 0.  1.
    -200003    1    4    4    0    0  0.31420737856E+03 -0.10144584079E+03  0.16040708299E+03  0.36830417813E+03  0.30000000000E+02 0. -1.
    -200000    1    3    3    0    0  0.20023043829E+03  0.27141499523E+03  0.30221957489E+03  0.46399999945E+03  0.10100000000E+03 0. -1.
<mgrwt>
<rscale>  0 0.24293290E+04</rscale>
<asrwt>0</asrwt>
<pdfrwt beam="1">  1        2 0.19057770E+00 0.24293290E+04</pdfrwt>
<pdfrwt beam="2">  1       -2 0.15799543E+00 0.24293290E+04</pdfrwt>
<totfact> 0.42280634E+00</totfact>
</mgrwt>
</event>
<event>
 8    2  0.4480234E-052  0.1561190E+04  0.7818608E-02  0.8844752E-01
         -2   -1    0    0    0  501 -0.00000000000E+00  0.00000000000E+00  0.58842863984E+03  0.58842863985E+03  0.25500000000E-02 0. -1.
          2   -1    0    0  501    0  0.00000000000E+00 -0.00000000000E+00 -0.10355180720E+04  0.10355180720E+04  0.25500000000E-02 0.  1.
    -200001    2    1    2    0    0  0.23217897574E+03  0.40212998800E+03 -0.36022897691E+03  0.85004145752E+03  0.61415792730E+03 0.  0.
   -5000001    2    3    3    0    0  0.26051311800E+03  0.30305743719E+03  0.53985233472E+02  0.41141564202E+03  0.81471038880E+02 0.  0.
     200001    1    1    2    0    0 -0.23217897574E+03 -0.40212998800E+03 -0.86860455270E+02  0.77390525435E+03  0.61300000000E+03 0. -1.
         13    1    4    4    0    0  0.16909470742E+02  0.52659259073E+02 -0.62101514719E+01  0.55655232568E+02  0.10566000000E+00 0.  1.
    -200003    1    4    4    0    0  0.24360364726E+03  0.25039817812E+03  0.60195384944E+02  0.35576040945E+03  0.30000000000E+02 0.  1.
    -200000    1    3    3    0    0 -0.28334142262E+02  0.99072550810E+02 -0.41421421038E+03  0.43862581550E+03  0.10100000000E+03 0.  1.
<mgrwt>
<rscale>  0 0.15611899E+04</rscale>
<asrwt>0</asrwt>
<pdfrwt beam="1">  1        2 0.14793115E+00 0.15611899E+04</pdfrwt>
<pdfrwt beam="2">  1       -2 0.84061234E-01 0.15611899E+04</pdfrwt>
<totfact> 0.31818299E+01</totfact>
</mgrwt>
</event>
<event>
 8    2  0.4480234E-052  0.1435544E+04  0.7818608E-02  0.8928484E-01
         -2   -1    0    0    0  501 -0.00000000000E+00  0.00000000000E+00  0.40285436020E+03  0.40285436021E+03  0.25500000000E-02 0. -1.
          2   -1    0    0  501    0  0.00000000000E+00 -0.00000000000E+00 -0.12788665645E+04  0.12788665645E+04  0.25500000000E-02 0.  1.
    -200001    2    1    2    0    0  0.85095077943E+02  0.39811699135E+02 -0.13541260023E+02  0.61943505292E+03  0.61211949436E+03 0.  0.
   -5000001    2    3    3    0    0  0.28091910942E+03  0.14125577808E+03  0.81352533949E+02  0.35896665831E+03  0.15287277756E+03 0.  0.
     200001    1    1    2    0    0 -0.85095077943E+02 -0.39811699135E+02 -0.86247094426E+03  0.10622858718E+04  0.61300000000E+03 0.  1.
         13    1    4    4    0    0  0.19125965551E+03  0.24999319176E+02  0.80777323883E+02  0.20911769175E+03  0.10566000000E+00 0.  1.
    -200003    1    4    4    0    0  0.89659453910E+02  0.11625645890E+03  0.57521006562E+00  0.14984896656E+03  0.30000000000E+02 0.  1.
    -200000    1    3    3    0    0 -0.19582403147E+03 -0.10144407894E+03 -0.94893793972E+02  0.26046839461E+03  0.10100000000E+03 0. -1.
<mgrwt>
<rscale>  0 0.14355445E+04</rscale>
<asrwt>0</asrwt>
<pdfrwt beam="1">  1        2 0.18269522E+00 0.14355445E+04</pdfrwt>
<pdfrwt beam="2">  1       -2 0.57550624E-01 0.14355445E+04</pdfrwt>
<totfact> 0.53018040E+01</totfact>
</mgrwt>
</event>
<event>
 8    2  0.4480234E-052  0.1238210E+04  0.7818608E-02  0.9080054E-01
          2   -1    0    0  501    0  0.00000000000E+00  0.00000000000E+00  0.29596677869E+04  0.29596677869E+04  0.25500000000E-02 0. -1.
         -2   -1    0    0    0  501 -0.00000000000E+00 -0.00000000000E+00 -0.12950464109E+03  0.12950464111E+03  0.25500000000E-02 0.  1.
    -200001    2    1    2    0    0  0.81101025951E+02  0.33474388517E+02  0.13954327923E+04  0.15265086451E+04  0.61261574799E+03 0.  0.
   -5000001    2    3    3    0    0  0.29320487468E+03 -0.12172812436E+03  0.64108906402E+03  0.72133082436E+03  0.92391208284E+02 0.  0.
     200001    1    1    2    0    0 -0.81101025951E+02 -0.33474388517E+02  0.14347303536E+04  0.15626637830E+04  0.61300000000E+03 0.  1.
         13    1    4    4    0    0  0.12585380769E+03 -0.77375168309E+02  0.36857866929E+03  0.39708480732E+03  0.10566000000E+00 0.  1.
    -200003    1    4    4    0    0  0.16735106699E+03 -0.44352956048E+02  0.27251039473E+03  0.32424601704E+03  0.30000000000E+02 0.  1.
    -200000    1    3    3    0    0 -0.21210384873E+03  0.15520251287E+03  0.75434372825E+03  0.80517782073E+03  0.10100000000E+03 0.  1.
<mgrwt>
<rscale>  0 0.12382095E+04</rscale>
<asrwt>0</asrwt>
<pdfrwt beam="1">  1        2 0.42280956E+00 0.12382095E+04</pdfrwt>
<pdfrwt beam="2">  1       -2 0.18500668E-01 0.12382095E+04</pdfrwt>
<totfact> 0.60508548E+01</totfact>
</mgrwt>
</event>
<event>
 8    2  0.4480234E-052  0.1418785E+04  0.7818608E-02  0.8940332E-01
         -2   -1    0    0    0  501 -0.00000000000E+00  0.00000000000E+00  0.60885778914E+03  0.60885778914E+03  0.25500000000E-02 0. -1.
          2   -1    0    0  501    0  0.00000000000E+00 -0.00000000000E+00 -0.82652698775E+03  0.82652698776E+03  0.25500000000E-02 0.  1.
    -200001    2    1    2    0    0 -0.99729178171E+02  0.24362321302E+03 -0.35337774332E+03  0.75458819347E+03  0.61255965698E+03 0.  0.
   -5000001    2    3    3    0    0 -0.21961723320E+03 -0.76129420850E+02 -0.53903708206E+02  0.28929195417E+03  0.16357508108E+03 0.  0.
     200001    1    1    2    0    0  0.99729178171E+02 -0.24362321302E+03  0.13570854470E+03  0.68079658343E+03  0.61300000000E+03 0. -1.
         13    1    4    4    0    0 -0.34003733609E+02 -0.30203477843E+02  0.51658465714E+02  0.68826682451E+02  0.10566000000E+00 0.  1.
    -200003    1    4    4    0    0 -0.18561349959E+03 -0.45925943008E+02 -0.10556217392E+03  0.22046527172E+03  0.30000000000E+02 0.  1.
    -200000    1    3    3    0    0  0.11988805503E+03  0.31975263387E+03 -0.29947403511E+03  0.46529623930E+03  0.10100000000E+03 0. -1.
<mgrwt>
<rscale>  0 0.14187845E+04</rscale>
<asrwt>0</asrwt>
<pdfrwt beam="1">  1        2 0.11807528E+00 0.14187845E+04</pdfrwt>
<pdfrwt beam="2">  1       -2 0.86979684E-01 0.14187845E+04</pdfrwt>
<totfact> 0.40555933E+01</totfact>
</mgrwt>
</event>
<event>
 8    2  0.4480234E-052  0.2070991E+04  0.7818608E-02  0.8574131E-01
          2   -1    0    0  501    0  0.00000000000E+00  0.00000000000E+00  0.16525053865E+04  0.16525053865E+04  0.25500000000E-02 0.  1.
         -2   -1    0    0    0  501 -0.00000000000E+00 -0.00000000000E+00 -0.64886393807E+03  0.64886393807E+03  0.25500000000E-02 0. -1.
    -200001    2    1    2    0    0  0.19962435380E+03 -0.40865882601E+03 -0.27510743735E+03  0.81213474547E+03  0.61402510047E+03 0.  0.
   -5000001    2    3    3    0    0  0.51115193211E+02 -0.38116690865E+02 -0.36746591708E+03  0.39013055891E+03  0.11447710550E+03 0.  0.
     200001    1    1    2    0    0 -0.19962435380E+03  0.40865882601E+03  0.12787488858E+04  0.14892345791E+04  0.61300000000E+03 0.  1.
         13    1    4    4    0    0  0.10576681378E+02 -0.37298151730E+02 -0.31490874563E+03  0.31728622338E+03  0.10566000000E+00 0.  1.
    -200003    1    4    4    0    0  0.40538511832E+02 -0.81853913451E+00 -0.52557171452E+02  0.72844335531E+02  0.30000000000E+02 0.  1.
    -200000    1    3    3    0    0  0.14850916059E+03 -0.37054213515E+03  0.92358479728E+02  0.42200418656E+03  0.10100000000E+03 0.  1.
<mgrwt>
<rscale>  0 0.20709912E+04</rscale>
<asrwt>0</asrwt>
<pdfrwt beam="1">  1        2 0.23607220E+00 0.20709912E+04</pdfrwt>
<pdfrwt beam="2">  1       -2 0.92694847E-01 0.20709912E+04</pdfrwt>
<totfact> 0.11120507E+01</totfact>
</mgrwt>
</event>
<event>
 8    2  0.4480234E-052  0.1343889E+04  0.7818608E-02  0.8995467E-01
         -2   -1    0    0    0  501 -0.00000000000E+00  0.00000000000E+00  0.16657182175E+03  0.16657182177E+03  0.25500000000E-02 0. -1.
          2   -1    0    0  501    0  0.00000000000E+00 -0.00000000000E+00 -0.27105987845E+04  0.27105987845E+04  0.25500000000E-02 0.  1.
    -200001    2    1    2    0    0 -0.26147999311E+03  0.12168197783E+02 -0.14506862521E+04  0.15966696256E+04  0.61346836885E+03 0.  0.
   -5000001    2    3    3    0    0 -0.13912692711E+03 -0.25140238737E+03 -0.40040291244E+03  0.50225845077E+03  0.96858643698E+02 0.  0.
     200001    1    1    2    0    0  0.26147999311E+03 -0.12168197783E+02 -0.10933407106E+04  0.12805009806E+04  0.61300000000E+03 0. -1.
         13    1    4    4    0    0 -0.66421769176E+02 -0.54101044743E+02 -0.76073526384E+02  0.11456861282E+03  0.10566000000E+00 0.  1.
    -200003    1    4    4    0    0 -0.72705157936E+02 -0.19730134263E+03 -0.32432938606E+03  0.38768983795E+03  0.30000000000E+02 0.  1.
    -200000    1    3    3    0    0 -0.12235306600E+03  0.26357058515E+03 -0.10502833397E+04  0.10944111749E+04  0.10100000000E+03 0.  1.
<mgrwt>
<rscale>  0 0.13438890E+04</rscale>
<asrwt>0</asrwt>
<pdfrwt beam="1">  1        2 0.38722837E+00 0.13438890E+04</pdfrwt>
<pdfrwt beam="2">  1       -2 0.23795976E-01 0.13438890E+04</pdfrwt>
<totfact> 0.52433833E+01</totfact>
</mgrwt>
</event>
<event>
 8    2  0.4480234E-052  0.1821103E+04  0.7818608E-02  0.8695157E-01
          2   -1    0    0  501    0  0.00000000000E+00  0.00000000000E+00  0.45066591578E+03  0.45066591579E+03  0.25500000000E-02 0.  1.
         -2   -1    0    0    0  501 -0.00000000000E+00 -0.00000000000E+00 -0.18397316833E+04  0.18397316833E+04  0.25500000000E-02 0. -1.
    -200001    2    1    2    0    0 -0.29997689504E+03  0.58922033614E+03 -0.54212984148E+03  0.10533704349E+04  0.61523797514E+03 0.  0.
   -5000001    2    3    3    0    0 -0.21047395975E+03  0.68536452564E+03 -0.36173895079E+03  0.80842890303E+03  0.93157941173E+02 0.  0.
     200001    1    1    2    0    0  0.29997689504E+03 -0.58922033614E+03 -0.84693592604E+03  0.12370271642E+04  0.61300000000E+03 0. -1.
         13    1    4    4    0    0 -0.32402078241E+02  0.48066071994E+02 -0.11326190476E+02  0.59063827391E+02  0.10566000000E+00 0.  1.
    -200003    1    4    4    0    0 -0.17807188151E+03  0.63729845364E+03 -0.35041276031E+03  0.74936507564E+03  0.30000000000E+02 0.  1.
    -200000    1    3    3    0    0 -0.89502935284E+02 -0.96144189495E+02 -0.18039089070E+03  0.24494153189E+03  0.10100000000E+03 0. -1.
<mgrwt>
<rscale>  0 0.18211034E+04</rscale>
<asrwt>0</asrwt>
<pdfrwt beam="1">  1        2 0.64380846E-01 0.18211034E+04</pdfrwt>
<pdfrwt beam="2">  1       -2 0.26281881E+00 0.18211034E+04</pdfrwt>
<totfact> 0.38323717E+00</totfact>
</mgrwt>
</event>
<event>
 8    2  0.4480234E-052  0.1608205E+04  0.7818608E-02  0.8815523E-01
          2   -1    0    0  501    0  0.00000000000E+00  0.00000000000E+00  0.25519728949E+04  0.25519728949E+04  0.25500000000E-02 0.  1.
         -2   -1    0    0    0  501 -0.00000000000E+00 -0.00000000000E+00 -0.25336510091E+03  0.25336510092E+03  0.25500000000E-02 0. -1.
    -200001    2    1    2    0    0 -0.51369280302E+03  0.82405328732E+02  0.11447984882E+04  0.13990251401E+04  0.61321841944E+03 0.  0.
   -5000001    2    3    3    0    0  0.27449803943E+01 -0.19273567739E+03  0.22923545218E+03  0.30775650666E+03  0.70785581853E+02 0.  0.
     200001    1    1    2    0    0  0.51369280302E+03 -0.82405328732E+02  0.11538093058E+04  0.14063128558E+04  0.61300000000E+03 0. -1.
         13    1    4    4    0    0  0.26043641739E+02 -0.43023860221E+02  0.66721483486E+02  0.83552925418E+02  0.10566000000E+00 0.  1.
    -200003    1    4    4    0    0 -0.23298661344E+02 -0.14971181717E+03  0.16251396870E+03  0.22420358124E+03  0.30000000000E+02 0.  1.
    -200000    1    3    3    0    0 -0.51643778341E+03  0.27514100612E+03  0.91556303600E+03  0.10912686334E+04  0.10100000000E+03 0. -1.
<mgrwt>
<rscale>  0 0.16082050E+04</rscale>
<asrwt>0</asrwt>
<pdfrwt beam="1">  1        2 0.36456756E+00 0.16082050E+04</pdfrwt>
<pdfrwt beam="2">  1       -2 0.36195014E-01 0.16082050E+04</pdfrwt>
<totfact> 0.28568620E+01</totfact>
</mgrwt>
</event>
<event>
 8    2  0.4480234E-052  0.1589538E+04  0.7818608E-02  0.8827001E-01
         -2   -1    0    0    0  501 -0.00000000000E+00  0.00000000000E+00  0.84899708377E+03  0.84899708377E+03  0.25500000000E-02 0. -1.
          2   -1    0    0  501    0  0.00000000000E+00 -0.00000000000E+00 -0.74400450477E+03  0.74400450478E+03  0.25500000000E-02 0.  1.
    -200001    2    1    2    0    0 -0.37976917939E+03 -0.13228087426E+03 -0.25625910415E+03  0.77569219922E+03  0.61180617860E+03 0.  0.
   -5000001    2    3    3    0    0 -0.49322442889E+03 -0.29021613362E+02 -0.64026359074E+02  0.50981817477E+03  0.10817858095E+03 0.  0.
     200001    1    1    2    0    0  0.37976917939E+03  0.13228087426E+03  0.36125168314E+03  0.81730938932E+03  0.61300000000E+03 0. -1.
         13    1    4    4    0    0 -0.75952328442E+02 -0.76549466489E+01  0.27321865797E+02  0.81079281686E+02  0.10566000000E+00 0.  1.
    -200003    1    4    4    0    0 -0.41727210044E+03 -0.21366666713E+02 -0.91348224870E+02  0.42873889308E+03  0.30000000000E+02 0.  1.
    -200000    1    3    3    0    0  0.11345524950E+03 -0.10325926090E+03 -0.19223274507E+03  0.26587402445E+03  0.10100000000E+03 0. -1.
<mgrwt>
<rscale>  0 0.15895379E+04</rscale>
<asrwt>0</asrwt>
<pdfrwt beam="1">  1        2 0.10628636E+00 0.15895379E+04</pdfrwt>
<pdfrwt beam="2">  1       -2 0.12128530E+00 0.15895379E+04</pdfrwt>
<totfact> 0.20742699E+01</totfact>
</mgrwt>
</event>
<event>
 8    2  0.4480234E-052  0.2082730E+04  0.7818608E-02  0.8568889E-01
         -2   -1    0    0    0  501 -0.00000000000E+00  0.00000000000E+00  0.45094134309E+03  0.45094134309E+03  0.25500000000E-02 0. -1.
          2   -1    0    0  501    0  0.00000000000E+00 -0.00000000000E+00 -0.24048391779E+04  0.24048391779E+04  0.25500000000E-02 0.  1.
    -200001    2    1    2    0    0  0.49261934779E+03 -0.50525511482E+02 -0.19101829631E+04  0.20665361741E+04  0.61363356929E+03 0.  0.
   -5000001    2    3    3    0    0  0.30211982378E+03 -0.57362762648E+02 -0.28709188748E+03  0.42917168923E+03  0.84851119770E+02 0.  0.
     200001    1    1    2    0    0 -0.49261934779E+03  0.50525511482E+02 -0.43714871768E+02  0.78924434691E+03  0.61300000000E+03 0. -1.
         13    1    4    4    0    0  0.16127918570E+03 -0.84588577166E+01 -0.10830729672E+03  0.19445567541E+03  0.10566000000E+00 0.  1.
    -200003    1    4    4    0    0  0.14084063808E+03 -0.48903904931E+02 -0.17878459075E+03  0.23471601382E+03  0.30000000000E+02 0.  1.
    -200000    1    3    3    0    0  0.19049952401E+03  0.68372511656E+01 -0.16230910756E+04  0.16373644849E+04  0.10100000000E+03 0.  1.
<mgrwt>
<rscale>  0 0.20827303E+04</rscale>
<asrwt>0</asrwt>
<pdfrwt beam="1">  1        2 0.34354845E+00 0.20827303E+04</pdfrwt>
<pdfrwt beam="2">  1       -2 0.64420193E-01 0.20827303E+04</pdfrwt>
<totfact> 0.10200439E+01</totfact>
</mgrwt>
</event>
<event>
 8    2  0.4480234E-052  0.1645548E+04  0.7818608E-02  0.8793044E-01
          2   -1    0    0  501    0  0.00000000000E+00  0.00000000000E+00  0.10094283658E+04  0.10094283658E+04  0.25500000000E-02 0.  1.
         -2   -1    0    0    0  501 -0.00000000000E+00 -0.00000000000E+00 -0.67063421107E+03  0.67063421107E+03  0.25500000000E-02 0. -1.
    -200001    2    1    2    0    0 -0.44734471126E+03  0.14853607415E+03  0.45557409880E+03  0.89802241725E+03  0.61377214532E+03 0.  0.
   -5000001    2    3    3    0    0 -0.49750276938E+03 -0.12173939718E+02  0.13552160736E+03  0.52255186363E+03  0.83887625919E+02 0.  0.
     200001    1    1    2    0    0  0.44734471126E+03 -0.14853607415E+03 -0.11677994402E+03  0.78204015967E+03  0.61300000000E+03 0. -1.
         13    1    4    4    0    0 -0.26304952253E+03 -0.10728919415E+02  0.34573759760E+02  0.26552874994E+03  0.10566000000E+00 0.  1.
    -200003    1    4    4    0    0 -0.23445324684E+03 -0.14450203031E+01  0.10094784760E+03  0.25702311369E+03  0.30000000000E+02 0.  1.
    -200000    1    3    3    0    0  0.50158058117E+02  0.16071001387E+03  0.32005249144E+03  0.37547055361E+03  0.10100000000E+03 0. -1.
<mgrwt>
<rscale>  0 0.16455482E+04</rscale>
<asrwt>0</asrwt>
<pdfrwt beam="1">  1        2 0.14420405E+00 0.16455482E+04</pdfrwt>
<pdfrwt beam="2">  1       -2 0.95804887E-01 0.16455482E+04</pdfrwt>
<totfact> 0.24262104E+01</totfact>
</mgrwt>
</event>
<event>
 8    2  0.4480234E-052  0.1743604E+04  0.7818608E-02  0.8736879E-01
         -2   -1    0    0    0  501 -0.00000000000E+00  0.00000000000E+00  0.11517309265E+04  0.11517309266E+04  0.25500000000E-02 0. -1.
          2   -1    0    0  501    0  0.00000000000E+00 -0.00000000000E+00 -0.65990968739E+03  0.65990968740E+03  0.25500000000E-02 0.  1.
    -200001    2    1    2    0    0 -0.31116315126E+03  0.31641090961E+03 -0.20442787972E+03  0.78330691035E+03  0.61224226200E+03 0.  0.
   -5000001    2    3    3    0    0 -0.17127972286E+01 -0.12180345212E+03  0.73036551839E+02  0.17095173628E+03  0.95137498442E+02 0.  0.
     200001    1    1    2    0    0  0.31116315126E+03 -0.31641090961E+03  0.69624911888E+03  0.10283337036E+04  0.61300000000E+03 0. -1.
         13    1    4    4    0    0  0.11270455342E+02 -0.77369830312E+02 -0.15269522521E+01  0.78201384600E+02  0.10566000000E+00 0.  1.
    -200003    1    4    4    0    0 -0.12983252571E+02 -0.44433621808E+02  0.74563504091E+02  0.92750351679E+02  0.30000000000E+02 0.  1.
    -200000    1    3    3    0    0 -0.30945035403E+03  0.43821436172E+03 -0.27746443156E+03  0.61235517407E+03  0.10100000000E+03 0.  1.
<mgrwt>
<rscale>  0 0.17436036E+04</rscale>
<asrwt>0</asrwt>
<pdfrwt beam="1">  1        2 0.94272813E-01 0.17436036E+04</pdfrwt>
<pdfrwt beam="2">  1       -2 0.16453299E+00 0.17436036E+04</pdfrwt>
<totfact> 0.10730245E+01</totfact>
</mgrwt>
</event>
<event>
 8    2  0.4480234E-052  0.2244473E+04  0.7818608E-02  0.8500142E-01
         -2   -1    0    0    0  501 -0.00000000000E+00  0.00000000000E+00  0.77453069888E+03  0.77453069889E+03  0.25500000000E-02 0. -1.
          2   -1    0    0  501    0  0.00000000000E+00 -0.00000000000E+00 -0.16260364321E+04  0.16260364321E+04  0.25500000000E-02 0.  1.
    -200001    2    1    2    0    0 -0.27327133883E+03  0.41951412741E+03 -0.12768689179E+04  0.15020282244E+04  0.61239303213E+03 0.  0.
   -5000001    2    3    3    0    0 -0.42608683953E+03  0.24660540212E+03 -0.10506173842E+04  0.11634418086E+04  0.86230706019E+02 0.  0.
     200001    1    1    2    0    0  0.27327133883E+03 -0.41951412741E+03  0.42536318467E+03  0.89853890656E+03  0.61300000000E+03 0. -1.
         13    1    4    4    0    0 -0.33750586061E+03  0.17941175943E+03 -0.85290597443E+03  0.93463757562E+03  0.10566000000E+00 0.  1.
    -200003    1    4    4    0    0 -0.88580978920E+02  0.67193642692E+02 -0.19771140981E+03  0.22880423295E+03  0.30000000000E+02 0.  1.
    -200000    1    3    3    0    0  0.15281550070E+03  0.17290872529E+03 -0.22625153365E+03  0.33858641587E+03  0.10100000000E+03 0. -1.
<mgrwt>
<rscale>  0 0.22444733E+04</rscale>
<asrwt>0</asrwt>
<pdfrwt beam="1">  1        2 0.23229092E+00 0.22444733E+04</pdfrwt>
<pdfrwt beam="2">  1       -2 0.11064724E+00 0.22444733E+04</pdfrwt>
<totfact> 0.74353255E+00</totfact>
</mgrwt>
</event>
<event>
 8    2  0.4480234E-052  0.1779732E+04  0.7818608E-02  0.8717153E-01
         -2   -1    0    0    0  501 -0.00000000000E+00  0.00000000000E+00  0.18660191981E+03  0.18660191983E+03  0.25500000000E-02 0. -1.
          2   -1    0    0  501    0  0.00000000000E+00 -0.00000000000E+00 -0.42435862389E+04  0.42435862389E+04  0.25500000000E-02 0.  1.
    -200001    2    1    2    0    0 -0.18220979481E+03 -0.61227398532E+03 -0.17997132391E+04  0.20054981639E+04  0.61235226791E+03 0.  0.
   -5000001    2    3    3    0    0  0.18072596611E+03 -0.51708236078E+02 -0.50528199240E+03  0.54546063760E+03  0.82956608118E+02 0.  0.
     200001    1    1    2    0    0  0.18220979481E+03  0.61227398532E+03 -0.22572710799E+04  0.24246899948E+04  0.61300000000E+03 0.  1.
         13    1    4    4    0    0  0.13580522268E+03 -0.32698402003E+02 -0.42096986133E+03  0.44354016652E+03  0.10566000000E+00 0.  1.
    -200003    1    4    4    0    0  0.44920743424E+02 -0.19009834075E+02 -0.84312131062E+02  0.10192047108E+03  0.30000000000E+02 0.  1.
    -200000    1    3    3    0    0 -0.36293576092E+03 -0.56056574924E+03 -0.12944312467E+04  0.14600375263E+04  0.10100000000E+03 0. -1.
<mgrwt>
<rscale>  0 0.17797318E+04</rscale>
<asrwt>0</asrwt>
<pdfrwt beam="1">  1        2 0.60622655E+00 0.17797318E+04</pdfrwt>
<pdfrwt beam="2">  1       -2 0.26657420E-01 0.17797318E+04</pdfrwt>
<totfact> 0.46831264E+00</totfact>
</mgrwt>
</event>
<event>
 8    2  0.4480234E-052  0.1342861E+04  0.7818608E-02  0.8996250E-01
          2   -1    0    0  501    0  0.00000000000E+00  0.00000000000E+00  0.12408806938E+04  0.12408806938E+04  0.25500000000E-02 0.  1.
         -2   -1    0    0    0  501 -0.00000000000E+00 -0.00000000000E+00 -0.36330558931E+03  0.36330558931E+03  0.25500000000E-02 0. -1.
    -200001    2    1    2    0    0  0.18829816393E+03 -0.56153243677E+02  0.20553046844E+03  0.67358304963E+03  0.61062424286E+03 0.  0.
   -5000001    2    3    3    0    0  0.39690179746E+02 -0.30860493817E+03  0.17073206810E+03  0.36176881056E+03  0.70106454661E+02 0.  0.
     200001    1    1    2    0    0 -0.18829816393E+03  0.56153243677E+02  0.67204463603E+03  0.93060323346E+03  0.61300000000E+03 0.  1.
         13    1    4    4    0    0  0.14031756597E+02 -0.21316960010E+03  0.95555959306E+02  0.23402803491E+03  0.10566000000E+00 0.  1.
    -200003    1    4    4    0    0  0.25658423148E+02 -0.95435338075E+02  0.75176108791E+02  0.12774077565E+03  0.30000000000E+02 0. -1.
    -200000    1    3    3    0    0  0.14860798418E+03  0.25245169450E+03  0.34798400341E+02  0.31181423906E+03  0.10100000000E+03 0.  1.
<mgrwt>
<rscale>  0 0.13428610E+04</rscale>
<asrwt>0</asrwt>
<pdfrwt beam="1">  1        2 0.17726867E+00 0.13428610E+04</pdfrwt>
<pdfrwt beam="2">  1       -2 0.51900798E-01 0.13428610E+04</pdfrwt>
<totfact> 0.69448600E+01</totfact>
</mgrwt>
</event>
<event>
 8    2  0.4480234E-052  0.1785325E+04  0.7818608E-02  0.8714143E-01
          2   -1    0    0  501    0  0.00000000000E+00  0.00000000000E+00  0.14478408582E+04  0.14478408582E+04  0.25500000000E-02 0.  1.
         -2   -1    0    0    0  501 -0.00000000000E+00 -0.00000000000E+00 -0.55036857808E+03  0.55036857808E+03  0.25500000000E-02 0. -1.
    -200001    2    1    2    0    0 -0.37425078271E+03  0.40622540574E+03  0.83036585590E+03  0.11703477324E+04  0.61247337199E+03 0.  0.
   -5000001    2    3    3    0    0 -0.16335511062E+03  0.51888918394E+03  0.44181840876E+03  0.70307882681E+03  0.56439817584E+02 0.  0.
     200001    1    1    2    0    0  0.37425078271E+03 -0.40622540574E+03  0.67106424221E+02  0.82786170391E+03  0.61300000000E+03 0. -1.
         13    1    4    4    0    0 -0.10244340676E+03  0.35229968446E+03  0.28927447705E+03  0.46721456901E+03  0.10566000000E+00 0.  1.
    -200003    1    4    4    0    0 -0.60911703864E+02  0.16658949949E+03  0.15254393171E+03  0.23586425780E+03  0.30000000000E+02 0. -1.
    -200000    1    3    3    0    0 -0.21089567209E+03 -0.11266377821E+03  0.38854744715E+03  0.46726890557E+03  0.10100000000E+03 0.  1.
<mgrwt>
<rscale>  0 0.17853247E+04</rscale>
<asrwt>0</asrwt>
<pdfrwt beam="1">  1        2 0.20683441E+00 0.17853247E+04</pdfrwt>
<pdfrwt beam="2">  1       -2 0.78624082E-01 0.17853247E+04</pdfrwt>
<totfact> 0.21242101E+01</totfact>
</mgrwt>
</event>
<event>
 8    2  0.4480234E-052  0.1674552E+04  0.7818608E-02  0.8776013E-01
          2   -1    0    0  501    0  0.00000000000E+00  0.00000000000E+00  0.25050460061E+04  0.25050460061E+04  0.25500000000E-02 0. -1.
         -2   -1    0    0    0  501 -0.00000000000E+00 -0.00000000000E+00 -0.27984747267E+03  0.27984747268E+03  0.25500000000E-02 0.  1.
    -200001    2    1    2    0    0  0.49916260105E+03 -0.17619186627E+03  0.75819605197E+03  0.11091631435E+04  0.61251510155E+03 0.  0.
   -5000001    2    3    3    0    0  0.40490163167E+01  0.57505936606E+02  0.47534513973E+03  0.48469716090E+03  0.75199791522E+02 0.  0.
     200001    1    1    2    0    0 -0.49916260105E+03  0.17619186627E+03  0.14670024815E+04  0.16757303353E+04  0.61300000000E+03 0.  1.
         13    1    4    4    0    0 -0.14300445387E+02 -0.20493146296E+01  0.20966557337E+03  0.21016271375E+03  0.10566000000E+00 0.  1.
    -200003    1    4    4    0    0  0.18349461704E+02  0.59555251235E+02  0.26567956636E+03  0.27453444716E+03  0.30000000000E+02 0.  1.
    -200000    1    3    3    0    0  0.49511358473E+03 -0.23369780287E+03  0.28285091225E+03  0.62446598259E+03  0.10100000000E+03 0. -1.
<mgrwt>
<rscale>  0 0.16745516E+04</rscale>
<asrwt>0</asrwt>
<pdfrwt beam="1">  1        2 0.35786371E+00 0.16745516E+04</pdfrwt>
<pdfrwt beam="2">  1       -2 0.39978211E-01 0.16745516E+04</pdfrwt>
<totfact> 0.24806920E+01</totfact>
</mgrwt>
</event>
<event>
 8    2  0.4480234E-052  0.1718708E+04  0.7818608E-02  0.8750766E-01
          2   -1    0    0  501    0  0.00000000000E+00  0.00000000000E+00  0.15252436224E+04  0.15252436224E+04  0.25500000000E-02 0. -1.
         -2   -1    0    0    0  501 -0.00000000000E+00 -0.00000000000E+00 -0.48417802455E+03  0.48417802456E+03  0.25500000000E-02 0.  1.
    -200001    2    1    2    0    0  0.58657666022E+02  0.35396359506E+03  0.10858767503E+04  0.12977279012E+04  0.61338278455E+03 0.  0.
   -5000001    2    3    3    0    0 -0.17997446182E+03  0.39462934231E+01  0.51365168448E+03  0.57863129448E+03  0.19639180697E+03 0.  0.
     200001    1    1    2    0    0 -0.58657666022E+02 -0.35396359506E+03 -0.44811152404E+02  0.71169374578E+03  0.61300000000E+03 0.  1.
         13    1    4    4    0    0  0.36104949990E+02  0.66500794644E+01  0.15112174055E+03  0.15551714569E+03  0.10566000000E+00 0.  1.
    -200003    1    4    4    0    0 -0.21607941181E+03 -0.27037860413E+01  0.36252994393E+03  0.42311414880E+03  0.30000000000E+02 0.  1.
    -200000    1    3    3    0    0  0.23863212784E+03  0.35001730163E+03  0.57222506581E+03  0.71909660673E+03  0.10100000000E+03 0. -1.
<mgrwt>
<rscale>  0 0.17187082E+04</rscale>
<asrwt>0</asrwt>
<pdfrwt beam="1">  1        2 0.21789195E+00 0.17187082E+04</pdfrwt>
<pdfrwt beam="2">  1       -2 0.69168289E-01 0.17187082E+04</pdfrwt>
<totfact> 0.25762706E+01</totfact>
</mgrwt>
</event>
<event>
 8    2  0.4480234E-052  0.1549421E+04  0.7818608E-02  0.8852238E-01
          2   -1    0    0  501    0  0.00000000000E+00  0.00000000000E+00  0.97371823927E+03  0.97371823927E+03  0.25500000000E-02 0.  1.
         -2   -1    0    0    0  501 -0.00000000000E+00 -0.00000000000E+00 -0.61637585878E+03  0.61637585878E+03  0.25500000000E-02 0. -1.
    -200001    2    1    2    0    0  0.31141553551E+03 -0.33579457075E+03  0.30388818967E+03  0.82304522085E+03  0.61263184234E+03 0.  0.
   -5000001    2    3    3    0    0  0.17016959638E+03 -0.39299523955E+03 -0.36160255757E+02  0.43696714964E+03  0.78928929625E+02 0.  0.
     200001    1    1    2    0    0 -0.31141553551E+03  0.33579457075E+03  0.53454190819E+02  0.76704887720E+03  0.61300000000E+03 0. -1.
         13    1    4    4    0    0  0.48775630779E+02 -0.87937138629E+02  0.19994052090E+02  0.10252695154E+03  0.10566000000E+00 0.  1.
    -200003    1    4    4    0    0  0.12139396560E+03 -0.30505810092E+03 -0.56154307847E+02  0.33444019811E+03  0.30000000000E+02 0.  1.
    -200000    1    3    3    0    0  0.14124593913E+03  0.57200668795E+02  0.34004844543E+03  0.38607807121E+03  0.10100000000E+03 0.  1.
<mgrwt>
<rscale>  0 0.15494211E+04</rscale>
<asrwt>0</asrwt>
<pdfrwt beam="1">  1        2 0.13910261E+00 0.15494211E+04</pdfrwt>
<pdfrwt beam="2">  1       -2 0.88053693E-01 0.15494211E+04</pdfrwt>
<totfact> 0.31275293E+01</totfact>
</mgrwt>
</event>
<event>
 8    2  0.4480234E-052  0.1276444E+04  0.7818608E-02  0.9048456E-01
          2   -1    0    0  501    0  0.00000000000E+00  0.00000000000E+00  0.26311499213E+04  0.26311499213E+04  0.25500000000E-02 0.  1.
         -2   -1    0    0    0  501 -0.00000000000E+00 -0.00000000000E+00 -0.15480968793E+03  0.15480968795E+03  0.25500000000E-02 0. -1.
    -200001    2    1    2    0    0 -0.24008556521E+02 -0.30257960895E+02  0.84686953378E+03  0.10445705902E+04  0.61028497901E+03 0.  0.
   -5000001    2    3    3    0    0  0.71355769754E+02 -0.20254412234E+03  0.83847096462E+02  0.25010151210E+03  0.96977643800E+02 0.  0.
     200001    1    1    2    0    0  0.24008556521E+02  0.30257960895E+02  0.16294706996E+04  0.17413890191E+04  0.61300000000E+03 0.  1.
         13    1    4    4    0    0  0.55200547443E+02 -0.38385507136E+02  0.33040827623E+02  0.74914985485E+02  0.10566000000E+00 0.  1.
    -200003    1    4    4    0    0  0.16155222311E+02 -0.16415861521E+03  0.50806268839E+02  0.17518652661E+03  0.30000000000E+02 0.  1.
    -200000    1    3    3    0    0 -0.95364326275E+02  0.17228616145E+03  0.76302243731E+03  0.79446907806E+03  0.10100000000E+03 0.  1.
<mgrwt>
<rscale>  0 0.12764443E+04</rscale>
<asrwt>0</asrwt>
<pdfrwt beam="1">  1        2 0.37587858E+00 0.12764443E+04</pdfrwt>
<pdfrwt beam="2">  1       -2 0.22115669E-01 0.12764443E+04</pdfrwt>
<totfact> 0.66271203E+01</totfact>
</mgrwt>
</event>
<event>
 8    2  0.4480234E-052  0.1493322E+04  0.7818608E-02  0.8888906E-01
         -2   -1    0    0    0  501 -0.00000000000E+00  0.00000000000E+00  0.33770603257E+03  0.33770603258E+03  0.25500000000E-02 0. -1.
          2   -1    0    0  501    0  0.00000000000E+00 -0.00000000000E+00 -0.16508525903E+04  0.16508525903E+04  0.25500000000E-02 0.  1.
    -200001    2    1    2    0    0  0.21250171983E+03  0.35523138713E+03 -0.78894064840E+03  0.10819676706E+04  0.61390583499E+03 0.  0.
   -5000001    2    3    3    0    0  0.20314750854E+03  0.26156182747E+02 -0.65859739833E+03  0.71377158937E+03  0.18375606815E+03 0.  0.
     200001    1    1    2    0    0 -0.21250171983E+03 -0.35523138713E+03 -0.52420590930E+03  0.90659095224E+03  0.61300000000E+03 0. -1.
         13    1    4    4    0    0  0.22079755263E+03 -0.14850768799E+02 -0.52255138931E+03  0.56747869583E+03  0.10566000000E+00 0.  1.
    -200003    1    4    4    0    0 -0.17650044089E+02  0.41006951546E+02 -0.13604600902E+03  0.14629289354E+03  0.30000000000E+02 0.  1.
    -200000    1    3    3    0    0  0.93542112854E+01  0.32907520439E+03 -0.13034325007E+03  0.36819608125E+03  0.10100000000E+03 0. -1.
<mgrwt>
<rscale>  0 0.14933223E+04</rscale>
<asrwt>0</asrwt>
<pdfrwt beam="1">  1        2 0.23583608E+00 0.14933223E+04</pdfrwt>
<pdfrwt beam="2">  1       -2 0.48243720E-01 0.14933223E+04</pdfrwt>
<totfact> 0.47935356E+01</totfact>
</mgrwt>
</event>
<event>
 8    2  0.4480234E-052  0.1828697E+04  0.7818608E-02  0.8691186E-01
         -2   -1    0    0    0  501 -0.00000000000E+00  0.00000000000E+00  0.45898176823E+03  0.45898176824E+03  0.25500000000E-02 0. -1.
          2   -1    0    0  501    0  0.00000000000E+00 -0.00000000000E+00 -0.18214949980E+04  0.18214949980E+04  0.25500000000E-02 0.  1.
    -200001    2    1    2    0    0 -0.32606002303E+02 -0.33644273567E+03  0.52234151076E+02  0.70201675174E+03  0.61305974212E+03 0.  0.
   -5000001    2    3    3    0    0 -0.22975339918E+03 -0.22945828503E+03  0.22896548735E+03  0.39911786763E+03  0.37843742635E+02 0.  0.
     200001    1    1    2    0    0  0.32606002303E+02  0.33644273567E+03 -0.14147473808E+04  0.15784600145E+04  0.61300000000E+03 0.  1.
         13    1    4    4    0    0 -0.69840036827E+02 -0.71290361053E+02  0.76381586806E+02  0.12567459684E+03  0.10566000000E+00 0.  1.
    -200003    1    4    4    0    0 -0.15991336235E+03 -0.15816792398E+03  0.15258390055E+03  0.27344327079E+03  0.30000000000E+02 0. -1.
    -200000    1    3    3    0    0  0.19714739688E+03 -0.10698445064E+03 -0.17673133627E+03  0.30289888411E+03  0.10100000000E+03 0. -1.
<mgrwt>
<rscale>  0 0.18286968E+04</rscale>
<asrwt>0</asrwt>
<pdfrwt beam="1">  1        2 0.26021357E+00 0.18286968E+04</pdfrwt>
<pdfrwt beam="2">  1       -2 0.65568825E-01 0.18286968E+04</pdfrwt>
<totfact> 0.20078144E+01</totfact>
</mgrwt>
</event>
<event>
 8    2  0.4480234E-052  0.1406379E+04  0.7818608E-02  0.8949214E-01
          2   -1    0    0  501    0  0.00000000000E+00  0.00000000000E+00  0.31453723166E+04  0.31453723166E+04  0.25500000000E-02 0.  1.
         -2   -1    0    0    0  501 -0.00000000000E+00 -0.00000000000E+00 -0.15720729713E+03  0.15720729716E+03  0.25500000000E-02 0. -1.
    -200001    2    1    2    0    0  0.80170757643E+02 -0.32683088933E+03  0.13214922810E+04  0.14951469600E+04  0.61308792415E+03 0.  0.
   -5000001    2    3    3    0    0 -0.16613374384E+03 -0.18800961176E+03  0.19612821510E+03  0.33042272856E+03  0.88118487482E+02 0.  0.
     200001    1    1    2    0    0 -0.80170757643E+02  0.32683088933E+03  0.16666727385E+04  0.18074326537E+04  0.61300000000E+03 0. -1.
         13    1    4    4    0    0 -0.53166232938E+02 -0.14521566460E+02  0.26764753007E+02  0.61268975712E+02  0.10566000000E+00 0.  1.
    -200003    1    4    4    0    0 -0.11296751090E+03 -0.17348804530E+03  0.16936346209E+03  0.26915375285E+03  0.30000000000E+02 0.  1.
    -200000    1    3    3    0    0  0.24630450148E+03 -0.13882127758E+03  0.11253640659E+04  0.11647242314E+04  0.10100000000E+03 0.  1.
<mgrwt>
<rscale>  0 0.14063790E+04</rscale>
<asrwt>0</asrwt>
<pdfrwt beam="1">  1        2 0.44933892E+00 0.14063790E+04</pdfrwt>
<pdfrwt beam="2">  1       -2 0.22458184E-01 0.14063790E+04</pdfrwt>
<totfact> 0.33328510E+01</totfact>
</mgrwt>
</event>
<event>
 8    2  0.4480234E-052  0.2911853E+04  0.7818608E-02  0.8269359E-01
         -2   -1    0    0    0  501 -0.00000000000E+00  0.00000000000E+00  0.84879928162E+03  0.84879928163E+03  0.25500000000E-02 0.  1.
          2   -1    0    0  501    0  0.00000000000E+00 -0.00000000000E+00 -0.24973188438E+04  0.24973188438E+04  0.25500000000E-02 0. -1.
    -200001    2    1    2    0    0 -0.10122081219E+04  0.64213229933E+03 -0.18749637397E+03  0.13593476484E+04  0.61300242012E+03 0.  0.
   -5000001    2    3    3    0    0 -0.75432349560E+03  0.64318596607E+03  0.47810425850E+02  0.99592519348E+03  0.83000188122E+02 0.  0.
     200001    1    1    2    0    0  0.10122081219E+04 -0.64213229933E+03 -0.14610231882E+04  0.19867704770E+04  0.61300000000E+03 0. -1.
         13    1    4    4    0    0 -0.44991075220E+03  0.35583102279E+03  0.85876508857E+00  0.57361672776E+03  0.10566000000E+00 0.  1.
    -200003    1    4    4    0    0 -0.30441274340E+03  0.28735494328E+03  0.46951660762E+02  0.42230846572E+03  0.30000000000E+02 0. -1.
    -200000    1    3    3    0    0 -0.25788462631E+03 -0.10536667425E+01 -0.23530679982E+03  0.36342245492E+03  0.10100000000E+03 0. -1.
<mgrwt>
<rscale>  0 0.29118533E+04</rscale>
<asrwt>0</asrwt>
<pdfrwt beam="1">  1        2 0.35675983E+00 0.29118533E+04</pdfrwt>
<pdfrwt beam="2">  1       -2 0.12125704E+00 0.29118533E+04</pdfrwt>
<totfact> 0.19871926E+00</totfact>
</mgrwt>
</event>
<event>
 8    2  0.4480234E-052  0.1831725E+04  0.7818608E-02  0.8689608E-01
         -2   -1    0    0    0  501 -0.00000000000E+00  0.00000000000E+00  0.61127293783E+03  0.61127293784E+03  0.25500000000E-02 0. -1.
          2   -1    0    0  501    0  0.00000000000E+00 -0.00000000000E+00 -0.13722251882E+04  0.13722251882E+04  0.25500000000E-02 0.  1.
    -200001    2    1    2    0    0 -0.98764231468E+02 -0.63542978487E+03 -0.14049658601E+03  0.89986552392E+03  0.61359048683E+03 0.  0.
   -5000001    2    3    3    0    0 -0.28144459189E+03 -0.33328785867E+03 -0.84434796207E+02  0.52837422937E+03  0.28593397211E+03 0.  0.
     200001    1    1    2    0    0  0.98764231468E+02  0.63542978487E+03 -0.62045566432E+03  0.10836326021E+04  0.61300000000E+03 0.  1.
         13    1    4    4    0    0 -0.14466491411E+03 -0.29455570679E+03  0.48157225703E+02  0.33167775223E+03  0.10566000000E+00 0.  1.
    -200003    1    4    4    0    0 -0.13677967777E+03 -0.38732151886E+02 -0.13259202191E+03  0.19669647713E+03  0.30000000000E+02 0.  1.
    -200000    1    3    3    0    0  0.18268036042E+03 -0.30214192620E+03 -0.56061789803E+02  0.37149129455E+03  0.10100000000E+03 0.  1.
<mgrwt>
<rscale>  0 0.18317250E+04</rscale>
<asrwt>0</asrwt>
<pdfrwt beam="1">  1        2 0.19603217E+00 0.18317250E+04</pdfrwt>
<pdfrwt beam="2">  1       -2 0.87324706E-01 0.18317250E+04</pdfrwt>
<totfact> 0.18336492E+01</totfact>
</mgrwt>
</event>
<event>
 8    2  0.4480234E-052  0.1923901E+04  0.7818608E-02  0.8643050E-01
         -2   -1    0    0    0  501 -0.00000000000E+00  0.00000000000E+00  0.32948198147E+03  0.32948198148E+03  0.25500000000E-02 0. -1.
          2   -1    0    0  501    0  0.00000000000E+00 -0.00000000000E+00 -0.28084950245E+04  0.28084950245E+04  0.25500000000E-02 0.  1.
    -200001    2    1    2    0    0  0.29524790602E+03  0.64641151603E+03 -0.15841698482E+04  0.18412378196E+04  0.61281598088E+03 0.  0.
   -5000001    2    3    3    0    0 -0.16937943635E+03  0.16164845636E+03 -0.55805528520E+03  0.61079648104E+03  0.82625801133E+02 0.  0.
     200001    1    1    2    0    0 -0.29524790602E+03 -0.64641151603E+03 -0.89484319483E+03  0.12967391863E+04  0.61300000000E+03 0. -1.
         13    1    4    4    0    0 -0.44791311368E+01 -0.83622258600E+01 -0.18822223591E+02  0.21077872332E+02  0.10566000000E+00 0.  1.
    -200003    1    4    4    0    0 -0.16490030521E+03  0.17001068222E+03 -0.53923306161E+03  0.58971860871E+03  0.30000000000E+02 0.  1.
    -200000    1    3    3    0    0  0.46462734237E+03  0.48476305967E+03 -0.10261145630E+04  0.12304413386E+04  0.10100000000E+03 0.  1.
<mgrwt>
<rscale>  0 0.19239007E+04</rscale>
<asrwt>0</asrwt>
<pdfrwt beam="1">  1        2 0.40121356E+00 0.19239007E+04</pdfrwt>
<pdfrwt beam="2">  1       -2 0.47068856E-01 0.19239007E+04</pdfrwt>
<totfact> 0.12090010E+01</totfact>
</mgrwt>
</event>
<event>
 8    2  0.4480234E-052  0.1507076E+04  0.7818608E-02  0.8879761E-01
          2   -1    0    0  501    0  0.00000000000E+00  0.00000000000E+00  0.31723754252E+03  0.31723754253E+03  0.25500000000E-02 0.  1.
         -2   -1    0    0    0  501 -0.00000000000E+00 -0.00000000000E+00 -0.17898875935E+04  0.17898875935E+04  0.25500000000E-02 0. -1.
    -200001    2    1    2    0    0 -0.57461694468E+02 -0.17409531043E+03 -0.17298263314E+03  0.65849978059E+03  0.60834854008E+03 0.  0.
   -5000001    2    3    3    0    0  0.10301842125E+03  0.17802556193E+03 -0.12808017683E+02  0.22768673096E+03  0.96805507690E+02 0.  0.
     200001    1    1    2    0    0  0.57461694468E+02  0.17409531043E+03 -0.12996674178E+04  0.14486253554E+04  0.61300000000E+03 0. -1.
         13    1    4    4    0    0  0.58873428204E+00  0.28048402426E+02  0.27457710655E+02  0.39255528593E+02  0.10566000000E+00 0.  1.
    -200003    1    4    4    0    0  0.10242968697E+03  0.14997715950E+03 -0.40265728338E+02  0.18843120236E+03  0.30000000000E+02 0.  1.
    -200000    1    3    3    0    0 -0.16048011572E+03 -0.35212087236E+03 -0.16017461546E+03  0.43081304963E+03  0.10100000000E+03 0.  1.
<mgrwt>
<rscale>  0 0.15070760E+04</rscale>
<asrwt>0</asrwt>
<pdfrwt beam="1">  1        2 0.45319650E-01 0.15070760E+04</pdfrwt>
<pdfrwt beam="2">  1       -2 0.25569822E+00 0.15070760E+04</pdfrwt>
<totfact> 0.64343071E+00</totfact>
</mgrwt>
</event>
<event>
 8    2  0.4480234E-052  0.1380190E+04  0.7818608E-02  0.8968284E-01
         -2   -1    0    0    0  501 -0.00000000000E+00  0.00000000000E+00  0.25039517520E+03  0.25039517521E+03  0.25500000000E-02 0. -1.
          2   -1    0    0  501    0  0.00000000000E+00 -0.00000000000E+00 -0.19019188504E+04  0.19019188504E+04  0.25500000000E-02 0.  1.
    -200001    2    1    2    0    0  0.17382866526E+03 -0.17816505296E+02 -0.41256256706E+03  0.75899874893E+03  0.61264785678E+03 0.  0.
   -5000001    2    3    3    0    0  0.31422382003E+03 -0.15931713685E+03 -0.25233385411E+03  0.48403062594E+03  0.21562632897E+03 0.  0.
     200001    1    1    2    0    0 -0.17382866526E+03  0.17816505296E+02 -0.12389611081E+04  0.13933152767E+04  0.61300000000E+03 0.  1.
         13    1    4    4    0    0  0.24785461504E+03 -0.37202656052E+02 -0.85469922285E+02  0.26480382662E+03  0.10566000000E+00 0.  1.
    -200003    1    4    4    0    0  0.66369204989E+02 -0.12211448080E+03 -0.16686393183E+03  0.21922679931E+03  0.30000000000E+02 0.  1.
    -200000    1    3    3    0    0 -0.14039515477E+03  0.14150063156E+03 -0.16022871295E+03  0.27496812300E+03  0.10100000000E+03 0.  1.
<mgrwt>
<rscale>  0 0.13801903E+04</rscale>
<asrwt>0</asrwt>
<pdfrwt beam="1">  1        2 0.27170268E+00 0.13801903E+04</pdfrwt>
<pdfrwt beam="2">  1       -2 0.35770740E-01 0.13801903E+04</pdfrwt>
<totfact> 0.64599918E+01</totfact>
</mgrwt>
</event>
<event>
 8    2  0.4480234E-052  0.1912071E+04  0.7818608E-02  0.8648871E-01
         -2   -1    0    0    0  501 -0.00000000000E+00  0.00000000000E+00  0.17009543746E+04  0.17009543747E+04  0.25500000000E-02 0. -1.
          2   -1    0    0  501    0  0.00000000000E+00 -0.00000000000E+00 -0.53734753262E+03  0.53734753263E+03  0.25500000000E-02 0.  1.
    -200001    2    1    2    0    0  0.35263090675E+02  0.27143480177E+03 -0.21123336718E+03  0.70831009749E+03  0.61819359559E+03 0.  0.
   -5000001    2    3    3    0    0  0.19446725540E+03  0.37348256841E+03 -0.27822864838E+02  0.42617515618E+03  0.59534944427E+02 0.  0.
     200001    1    1    2    0    0 -0.35263090675E+02 -0.27143480177E+03  0.13748402092E+04  0.15299918098E+04  0.61300000000E+03 0. -1.
         13    1    4    4    0    0  0.14162576603E+03  0.27959415827E+03 -0.21930154322E+02  0.31418417174E+03  0.10566000000E+00 0.  1.
    -200003    1    4    4    0    0  0.52841489371E+02  0.93888410140E+02 -0.58927105160E+01  0.11199098444E+03  0.30000000000E+02 0. -1.
    -200000    1    3    3    0    0 -0.15920416472E+03 -0.10204776664E+03 -0.18341050234E+03  0.28213494132E+03  0.10100000000E+03 0.  1.
<mgrwt>
<rscale>  0 0.19120707E+04</rscale>
<asrwt>0</asrwt>
<pdfrwt beam="1">  1        2 0.76763932E-01 0.19120707E+04</pdfrwt>
<pdfrwt beam="2">  1       -2 0.24299349E+00 0.19120707E+04</pdfrwt>
<totfact> 0.41146929E+00</totfact>
</mgrwt>
</event>
<event>
 8    2  0.4480234E-052  0.1463969E+04  0.7818608E-02  0.8908773E-01
         -2   -1    0    0    0  501 -0.00000000000E+00  0.00000000000E+00  0.54050980287E+03  0.54050980288E+03  0.25500000000E-02 0.  1.
          2   -1    0    0  501    0  0.00000000000E+00 -0.00000000000E+00 -0.99128884237E+03  0.99128884237E+03  0.25500000000E-02 0. -1.
    -200001    2    1    2    0    0  0.80513400132E+02  0.30348136873E+02 -0.63403019963E+03  0.88623423739E+03  0.61319932524E+03 0.  0.
   -5000001    2    3    3    0    0  0.29605225904E+02  0.21767018572E+03 -0.29254553169E+03  0.48065567456E+03  0.31175344461E+03 0.  0.
     200001    1    1    2    0    0 -0.80513400132E+02 -0.30348136873E+02  0.18325116013E+03  0.64556440786E+03  0.61300000000E+03 0.  1.
         13    1    4    4    0    0 -0.17447690222E+02  0.18813301734E+03 -0.79146317174E+01  0.18910607252E+03  0.10566000000E+00 0.  1.
    -200003    1    4    4    0    0  0.47052916126E+02  0.29537168382E+02 -0.28463089997E+03  0.29154960204E+03  0.30000000000E+02 0.  1.
    -200000    1    3    3    0    0  0.50908174228E+02 -0.18732204884E+03 -0.34148466794E+03  0.40557856283E+03  0.10100000000E+03 0. -1.
<mgrwt>
<rscale>  0 0.14639690E+04</rscale>
<asrwt>0</asrwt>
<pdfrwt beam="1">  1        2 0.14161269E+00 0.14639690E+04</pdfrwt>
<pdfrwt beam="2">  1       -2 0.77215686E-01 0.14639690E+04</pdfrwt>
<totfact> 0.41309011E+01</totfact>
</mgrwt>
</event>
<event>
 8    2  0.4480234E-052  0.1309866E+04  0.7818608E-02  0.9021778E-01
          2   -1    0    0  501    0  0.00000000000E+00  0.00000000000E+00  0.16783295900E+04  0.16783295900E+04  0.25500000000E-02 0.  1.
         -2   -1    0    0    0  501 -0.00000000000E+00 -0.00000000000E+00 -0.25557386943E+03  0.25557386944E+03  0.25500000000E-02 0. -1.
    -200001    2    1    2    0    0  0.64334167341E+02  0.22101255100E+03  0.68054812301E+03  0.94414260416E+03  0.61259617733E+03 0.  0.
   -5000001    2    3    3    0    0 -0.15640004821E+02 -0.17678554269E+03  0.38863360506E+03  0.43418743227E+03  0.77362196879E+02 0.  0.
     200001    1    1    2    0    0 -0.64334167341E+02 -0.22101255100E+03  0.74220759758E+03  0.98976085531E+03  0.61300000000E+03 0.  1.
         13    1    4    4    0    0 -0.17164147793E+02 -0.29983133396E+02  0.30948068220E+02  0.46383082565E+02  0.10566000000E+00 0.  1.
    -200003    1    4    4    0    0  0.15241429719E+01 -0.14680240929E+03  0.35768553684E+03  0.38780434971E+03  0.30000000000E+02 0.  1.
    -200000    1    3    3    0    0  0.79974172162E+02  0.39779809368E+03  0.29191451794E+03  0.50995517189E+03  0.10100000000E+03 0. -1.
<mgrwt>
<rscale>  0 0.13098659E+04</rscale>
<asrwt>0</asrwt>
<pdfrwt beam="1">  1        2 0.23976137E+00 0.13098659E+04</pdfrwt>
<pdfrwt beam="2">  1       -2 0.36510553E-01 0.13098659E+04</pdfrwt>
<totfact> 0.81450786E+01</totfact>
</mgrwt>
</event>
<event>
 8    2  0.4480234E-052  0.1608251E+04  0.7818608E-02  0.8815495E-01
          2   -1    0    0  501    0  0.00000000000E+00  0.00000000000E+00  0.12147917462E+04  0.12147917462E+04  0.25500000000E-02 0.  1.
         -2   -1    0    0    0  501 -0.00000000000E+00 -0.00000000000E+00 -0.53228694888E+03  0.53228694889E+03  0.25500000000E-02 0. -1.
    -200001    2    1    2    0    0  0.42342878637E+03 -0.22300694206E+03  0.11914424564E+03  0.78678283209E+03  0.61303167966E+03 0.  0.
   -5000001    2    3    3    0    0  0.47696917466E+03 -0.43115284249E+02  0.18810535410E+03  0.56276449309E+03  0.22795115513E+03 0.  0.
     200001    1    1    2    0    0 -0.42342878637E+03  0.22300694206E+03  0.56336055171E+03  0.96029586303E+03  0.61300000000E+03 0. -1.
         13    1    4    4    0    0  0.48653140550E+03 -0.47130892907E+02  0.20097565522E+03  0.52851239793E+03  0.10566000000E+00 0.  1.
    -200003    1    4    4    0    0 -0.95622308455E+01  0.40156086577E+01 -0.12870301122E+02  0.34252095157E+02  0.30000000000E+02 0.  1.
    -200000    1    3    3    0    0 -0.53540388286E+02 -0.17989165781E+03 -0.68961108464E+02  0.22401833900E+03  0.10100000000E+03 0. -1.
<mgrwt>
<rscale>  0 0.16082510E+04</rscale>
<asrwt>0</asrwt>
<pdfrwt beam="1">  1        2 0.17354168E+00 0.16082510E+04</pdfrwt>
<pdfrwt beam="2">  1       -2 0.76040993E-01 0.16082510E+04</pdfrwt>
<totfact> 0.31179889E+01</totfact>
</mgrwt>
</event>
<event>
 8    2  0.4480234E-052  0.1571339E+04  0.7818608E-02  0.8838351E-01
          2   -1    0    0  501    0  0.00000000000E+00  0.00000000000E+00  0.66248133015E+03  0.66248133015E+03  0.25500000000E-02 0.  1.
         -2   -1    0    0    0  501 -0.00000000000E+00 -0.00000000000E+00 -0.93176467851E+03  0.93176467852E+03  0.25500000000E-02 0. -1.
    -200001    2    1    2    0    0 -0.32734874318E+03  0.28514233153E+03  0.97898898487E+02  0.75815082791E+03  0.61379567825E+03 0.  0.
   -5000001    2    3    3    0    0 -0.32843281437E+03 -0.16230087479E+00 -0.14682062531E+03  0.36893552269E+03  0.81786209070E+02 0.  0.
     200001    1    1    2    0    0  0.32734874318E+03 -0.28514233153E+03 -0.36718224685E+03  0.83609518076E+03  0.61300000000E+03 0. -1.
         13    1    4    4    0    0 -0.72203997953E+02  0.29188205744E+02 -0.22513269658E+02  0.81069273771E+02  0.10566000000E+00 0.  1.
    -200003    1    4    4    0    0 -0.25622881641E+03 -0.29350506619E+02 -0.12430735565E+03  0.28786624892E+03  0.30000000000E+02 0.  1.
    -200000    1    3    3    0    0  0.10840711884E+01  0.28530463241E+03  0.24471952380E+03  0.38921530521E+03  0.10100000000E+03 0.  1.
<mgrwt>
<rscale>  0 0.15713392E+04</rscale>
<asrwt>0</asrwt>
<pdfrwt beam="1">  1        2 0.94640191E-01 0.15713392E+04</pdfrwt>
<pdfrwt beam="2">  1       -2 0.13310924E+00 0.15713392E+04</pdfrwt>
<totfact> 0.18965828E+01</totfact>
</mgrwt>
</event>
<event>
 8    2  0.4480234E-052  0.1770125E+04  0.7818608E-02  0.8722350E-01
         -2   -1    0    0    0  501 -0.00000000000E+00  0.00000000000E+00  0.53635343408E+03  0.53635343409E+03  0.25500000000E-02 0. -1.
          2   -1    0    0  501    0  0.00000000000E+00 -0.00000000000E+00 -0.14604843750E+04  0.14604843750E+04  0.25500000000E-02 0.  1.
    -200001    2    1    2    0    0 -0.11858446766E+03 -0.37973653638E+01  0.24666092813E+03  0.66996204378E+03  0.61149883948E+03 0.  0.
   -5000001    2    3    3    0    0 -0.14786383315E+03  0.21601370403E+03 -0.54723209287E+02  0.28239580975E+03  0.90703529413E+02 0.  0.
     200001    1    1    2    0    0  0.11858446766E+03  0.37973653638E+01 -0.11707918691E+04  0.13268757653E+04  0.61300000000E+03 0.  1.
         13    1    4    4    0    0 -0.76161930056E+02  0.10101729138E+03 -0.66813563320E+02  0.14307059850E+03  0.10566000000E+00 0.  1.
    -200003    1    4    4    0    0 -0.71701903092E+02  0.11499641265E+03  0.12090354032E+02  0.13932521125E+03  0.30000000000E+02 0.  1.
    -200000    1    3    3    0    0  0.29279365491E+02 -0.21981106939E+03  0.30138413742E+03  0.38756623403E+03  0.10100000000E+03 0. -1.
<mgrwt>
<rscale>  0 0.17701252E+04</rscale>
<asrwt>0</asrwt>
<pdfrwt beam="1">  1        2 0.20864062E+00 0.17701252E+04</pdfrwt>
<pdfrwt beam="2">  1       -2 0.76621920E-01 0.17701252E+04</pdfrwt>
<totfact> 0.22178829E+01</totfact>
</mgrwt>
</event>
<event>
 8    2  0.4480234E-052  0.1445501E+04  0.7818608E-02  0.8921525E-01
          2   -1    0    0  501    0  0.00000000000E+00  0.00000000000E+00  0.99126054833E+03  0.99126054833E+03  0.25500000000E-02 0.  1.
         -2   -1    0    0    0  501 -0.00000000000E+00 -0.00000000000E+00 -0.52697377316E+03  0.52697377316E+03  0.25500000000E-02 0. -1.
    -200001    2    1    2    0    0  0.18207833064E+03 -0.13535727816E+02 -0.12102450110E+03  0.65123142384E+03  0.61328598803E+03 0.  0.
   -5000001    2    3    3    0    0 -0.93243580132E+02  0.16388634745E+03 -0.22041072167E+03  0.29435698068E+03  0.50120312591E+02 0.  0.
     200001    1    1    2    0    0 -0.18207833064E+03  0.13535727816E+02  0.58531127627E+03  0.86700289766E+03  0.61300000000E+03 0.  1.
         13    1    4    4    0    0 -0.15623937909E+02  0.84775148872E+01 -0.12294943012E+02  0.21613710514E+02  0.10566000000E+00 0.  1.
    -200003    1    4    4    0    0 -0.77619642223E+02  0.15540883256E+03 -0.20811577865E+03  0.27274327017E+03  0.30000000000E+02 0.  1.
    -200000    1    3    3    0    0  0.27532191077E+03 -0.17742207526E+03  0.99386220565E+02  0.35687444316E+03  0.10100000000E+03 0. -1.
<mgrwt>
<rscale>  0 0.14455010E+04</rscale>
<asrwt>0</asrwt>
<pdfrwt beam="1">  1        2 0.14160865E+00 0.14455010E+04</pdfrwt>
<pdfrwt beam="2">  1       -2 0.75281968E-01 0.14455010E+04</pdfrwt>
<totfact> 0.43767050E+01</totfact>
</mgrwt>
</event>
<event>
 8    2  0.4480234E-052  0.1327401E+04  0.7818608E-02  0.9008114E-01
         -2   -1    0    0    0  501 -0.00000000000E+00  0.00000000000E+00  0.10693607542E+03  0.10693607545E+03  0.25500000000E-02 0. -1.
          2   -1    0    0  501    0  0.00000000000E+00 -0.00000000000E+00 -0.41192649221E+04  0.41192649221E+04  0.25500000000E-02 0.  1.
    -200001    2    1    2    0    0  0.17455642447E+03 -0.11451657121E+03 -0.15448751065E+04  0.16751853272E+04  0.61320697599E+03 0.  0.
   -5000001    2    3    3    0    0 -0.14728487674E+03 -0.17783892605E+03 -0.10016595269E+04  0.10326312753E+04  0.98417601196E+02 0.  0.
     200001    1    1    2    0    0 -0.17455642447E+03  0.11451657121E+03 -0.24674537402E+04  0.25510156703E+04  0.61300000000E+03 0.  1.
         13    1    4    4    0    0 -0.84309407970E+02 -0.59295938294E+02 -0.58053016389E+03  0.58960950376E+03  0.10566000000E+00 0.  1.
    -200003    1    4    4    0    0 -0.62975468766E+02 -0.11854298776E+03 -0.42112936304E+03  0.44302177151E+03  0.30000000000E+02 0.  1.
    -200000    1    3    3    0    0  0.32184130121E+03  0.63322354839E+02 -0.54321557958E+03  0.64255405196E+03  0.10100000000E+03 0.  1.
<mgrwt>
<rscale>  0 0.13274005E+04</rscale>
<asrwt>0</asrwt>
<pdfrwt beam="1">  1        2 0.58846632E+00 0.13274005E+04</pdfrwt>
<pdfrwt beam="2">  1       -2 0.15276585E-01 0.13274005E+04</pdfrwt>
<totfact> 0.16114146E+01</totfact>
</mgrwt>
</event>
<event>
 8    2  0.4480234E-052  0.1481031E+04  0.7818608E-02  0.8897166E-01
         -2   -1    0    0    0  501 -0.00000000000E+00  0.00000000000E+00  0.73713860207E+03  0.73713860208E+03  0.25500000000E-02 0. -1.
          2   -1    0    0  501    0  0.00000000000E+00 -0.00000000000E+00 -0.74390773677E+03  0.74390773678E+03  0.25500000000E-02 0.  1.
    -200001    2    1    2    0    0 -0.34590612608E+03 -0.21658302550E+03 -0.82489310432E+02  0.74073437758E+03  0.61263665969E+03 0.  0.
   -5000001    2    3    3    0    0 -0.44131898620E+03 -0.31967766592E+03 -0.12066232079E+03  0.56356130547E+03  0.78010843401E+02 0.  0.
     200001    1    1    2    0    0  0.34590612608E+03  0.21658302550E+03  0.75720175733E+02  0.74031196127E+03  0.61300000000E+03 0. -1.
         13    1    4    4    0    0 -0.14231268530E+03 -0.66624858037E+02 -0.45309038717E+02  0.16353804530E+03  0.10566000000E+00 0.  1.
    -200003    1    4    4    0    0 -0.29900630090E+03 -0.25305280788E+03 -0.75353282076E+02  0.40002326017E+03  0.30000000000E+02 0.  1.
    -200000    1    3    3    0    0  0.95412860128E+02  0.10309464042E+03  0.38173010361E+02  0.17717307211E+03  0.10100000000E+03 0. -1.
<mgrwt>
<rscale>  0 0.14810309E+04</rscale>
<asrwt>0</asrwt>
<pdfrwt beam="1">  1        2 0.10627253E+00 0.14810309E+04</pdfrwt>
<pdfrwt beam="2">  1       -2 0.10530551E+00 0.14810309E+04</pdfrwt>
<totfact> 0.29521770E+01</totfact>
</mgrwt>
</event>
<event>
 8    2  0.4480234E-052  0.1321494E+04  0.7818608E-02  0.9012691E-01
          2   -1    0    0  501    0  0.00000000000E+00  0.00000000000E+00  0.99678515871E+03  0.99678515871E+03  0.25500000000E-02 0.  1.
         -2   -1    0    0    0  501 -0.00000000000E+00 -0.00000000000E+00 -0.43799501207E+03  0.43799501207E+03  0.25500000000E-02 0. -1.
    -200001    2    1    2    0    0 -0.23393840946E+03 -0.74615031789E+02  0.30505033352E+03  0.72735704765E+03  0.61294207426E+03 0.  0.
   -5000001    2    3    3    0    0 -0.25113183452E+03  0.17441200229E+03  0.32936325481E+03  0.45698287043E+03  0.82864017464E+02 0.  0.
     200001    1    1    2    0    0  0.23393840946E+03  0.74615031789E+02  0.25373981312E+03  0.70742312314E+03  0.61300000000E+03 0. -1.
         13    1    4    4    0    0 -0.13773675673E+02  0.37931671967E+02  0.54975108496E+02  0.68196771169E+02  0.10566000000E+00 0.  1.
    -200003    1    4    4    0    0 -0.23735815885E+03  0.13648033032E+03  0.27438814632E+03  0.38878609926E+03  0.30000000000E+02 0.  1.
    -200000    1    3    3    0    0  0.17193425066E+02 -0.24902703408E+03 -0.24312921289E+02  0.27037417722E+03  0.10100000000E+03 0.  1.
<mgrwt>
<rscale>  0 0.13214945E+04</rscale>
<asrwt>0</asrwt>
<pdfrwt beam="1">  1        2 0.14239788E+00 0.13214945E+04</pdfrwt>
<pdfrwt beam="2">  1       -2 0.62570717E-01 0.13214945E+04</pdfrwt>
<totfact> 0.65488326E+01</totfact>
</mgrwt>
</event>
<event>
 8    2  0.4480234E-052  0.1381119E+04  0.7818608E-02  0.8967600E-01
         -2   -1    0    0    0  501 -0.00000000000E+00  0.00000000000E+00  0.53389962276E+03  0.53389962277E+03  0.25500000000E-02 0. -1.
          2   -1    0    0  501    0  0.00000000000E+00 -0.00000000000E+00 -0.89318791666E+03  0.89318791666E+03  0.25500000000E-02 0.  1.
    -200001    2    1    2    0    0  0.21442137836E+03 -0.21073913350E+03 -0.28302460455E+03  0.74008487553E+03  0.61419474625E+03 0.  0.
   -5000001    2    3    3    0    0 -0.77139665697E+02 -0.27224513950E+03 -0.23721638364E+03  0.42213798643E+03  0.20459942062E+03 0.  0.
     200001    1    1    2    0    0 -0.21442137836E+03  0.21073913350E+03 -0.76263689344E+02  0.68700266389E+03  0.61300000000E+03 0.  1.
         13    1    4    4    0    0 -0.45309957476E+02 -0.28637471462E+03 -0.23957695003E+03  0.37611247729E+03  0.10566000000E+00 0.  1.
    -200003    1    4    4    0    0 -0.31829708221E+02  0.14129575125E+02  0.23605663822E+01  0.46025509148E+02  0.30000000000E+02 0.  1.
    -200000    1    3    3    0    0  0.29156104406E+03  0.61506006002E+02 -0.45808220910E+02  0.31794688910E+03  0.10100000000E+03 0. -1.
<mgrwt>
<rscale>  0 0.13811194E+04</rscale>
<asrwt>0</asrwt>
<pdfrwt beam="1">  1        2 0.12759827E+00 0.13811194E+04</pdfrwt>
<pdfrwt beam="2">  1       -2 0.76271374E-01 0.13811194E+04</pdfrwt>
<totfact> 0.49338611E+01</totfact>
</mgrwt>
</event>
<event>
 8    2  0.4480234E-052  0.2188607E+04  0.7818608E-02  0.8523185E-01
         -2   -1    0    0    0  501 -0.00000000000E+00  0.00000000000E+00  0.82213945342E+03  0.82213945342E+03  0.25500000000E-02 0. -1.
          2   -1    0    0  501    0  0.00000000000E+00 -0.00000000000E+00 -0.14565654861E+04  0.14565654861E+04  0.25500000000E-02 0.  1.
    -200001    2    1    2    0    0  0.84711407767E+03  0.22541515348E+03 -0.76329144852E+02  0.10721994948E+04  0.61267557996E+03 0.  0.
   -5000001    2    3    3    0    0  0.81933909758E+03  0.24666084940E+01 -0.54848530101E+02  0.82493461650E+03  0.78651886587E+02 0.  0.
     200001    1    1    2    0    0 -0.84711407767E+03 -0.22541515348E+03 -0.55809688787E+03  0.12065054448E+04  0.61300000000E+03 0.  1.
         13    1    4    4    0    0  0.52655736897E+03  0.58206829582E+00 -0.60273536889E+01  0.52659219684E+03  0.10566000000E+00 0.  1.
    -200003    1    4    4    0    0  0.29278172861E+03  0.18845401982E+01 -0.48821176412E+02  0.29834241966E+03  0.30000000000E+02 0.  1.
    -200000    1    3    3    0    0  0.27774980095E+02  0.22294854499E+03 -0.21480614751E+02  0.24726487830E+03  0.10100000000E+03 0.  1.
<mgrwt>
<rscale>  0 0.21886068E+04</rscale>
<asrwt>0</asrwt>
<pdfrwt beam="1">  1        2 0.20808078E+00 0.21886068E+04</pdfrwt>
<pdfrwt beam="2">  1       -2 0.11744849E+00 0.21886068E+04</pdfrwt>
<totfact> 0.79408377E+00</totfact>
</mgrwt>
</event>
<event>
 8    2  0.4480234E-052  0.2426517E+04  0.7818608E-02  0.8429642E-01
          2   -1    0    0  501    0  0.00000000000E+00  0.00000000000E+00  0.10054481422E+04  0.10054481422E+04  0.25500000000E-02 0.  1.
         -2   -1    0    0    0  501 -0.00000000000E+00 -0.00000000000E+00 -0.14640200075E+04  0.14640200075E+04  0.25500000000E-02 0. -1.
    -200001    2    1    2    0    0  0.68145892491E+03 -0.27233904146E+03 -0.98930202217E+03  0.13758510689E+04  0.61293788669E+03 0.  0.
   -5000001    2    3    3    0    0  0.12456686701E+02  0.91744896283E+02  0.36098908384E+01  0.12038455187E+03  0.76857751586E+02 0.  0.
     200001    1    1    2    0    0 -0.68145892491E+03  0.27233904146E+03  0.53073015685E+03  0.10936170807E+04  0.61300000000E+03 0.  1.
         13    1    4    4    0    0  0.64897004882E+01  0.27515014673E+02 -0.30415806464E+02  0.41524988763E+02  0.10566000000E+00 0.  1.
    -200003    1    4    4    0    0  0.59669862129E+01  0.64229881610E+02  0.34025697302E+02  0.78859563105E+02  0.30000000000E+02 0.  1.
    -200000    1    3    3    0    0  0.66900223820E+03 -0.36408393774E+03 -0.99291191301E+03  0.12554665171E+04  0.10100000000E+03 0. -1.
<mgrwt>
<rscale>  0 0.24265170E+04</rscale>
<asrwt>0</asrwt>
<pdfrwt beam="1">  1        2 0.14363545E+00 0.24265170E+04</pdfrwt>
<pdfrwt beam="2">  1       -2 0.20914571E+00 0.24265170E+04</pdfrwt>
<totfact> 0.29142243E+00</totfact>
</mgrwt>
</event>
<event>
 8    2  0.4480234E-052  0.1463533E+04  0.7818608E-02  0.8909072E-01
         -2   -1    0    0    0  501 -0.00000000000E+00  0.00000000000E+00  0.34264951833E+03  0.34264951834E+03  0.25500000000E-02 0. -1.
          2   -1    0    0  501    0  0.00000000000E+00 -0.00000000000E+00 -0.15627704640E+04  0.15627704640E+04  0.25500000000E-02 0.  1.
    -200001    2    1    2    0    0  0.29802713246E+02 -0.27484627877E+03 -0.98899479955E+03  0.11943524932E+04  0.60986759698E+03 0.  0.
   -5000001    2    3    3    0    0  0.13854200938E+03 -0.42567806450E+03 -0.73470005354E+03  0.86353338863E+03  0.74229654810E+02 0.  0.
     200001    1    1    2    0    0 -0.29802713246E+02  0.27484627877E+03 -0.23112614611E+03  0.71106748912E+03  0.61300000000E+03 0. -1.
         13    1    4    4    0    0  0.91773425396E+02 -0.29392193419E+03 -0.54510613720E+03  0.62606163992E+03  0.10566000000E+00 0.  1.
    -200003    1    4    4    0    0  0.46768583985E+02 -0.13175613030E+03 -0.18959391634E+03  0.23747174871E+03  0.30000000000E+02 0. -1.
    -200000    1    3    3    0    0 -0.10873929613E+03  0.15083178573E+03 -0.25429474601E+03  0.33081910458E+03  0.10100000000E+03 0.  1.
<mgrwt>
<rscale>  0 0.14635335E+04</rscale>
<asrwt>0</asrwt>
<pdfrwt beam="1">  1        2 0.22325292E+00 0.14635335E+04</pdfrwt>
<pdfrwt beam="2">  1       -2 0.48949932E-01 0.14635335E+04</pdfrwt>
<totfact> 0.51886528E+01</totfact>
</mgrwt>
</event>
<event>
 8    2  0.4480234E-052  0.1340480E+04  0.7818608E-02  0.8998066E-01
          2   -1    0    0  501    0  0.00000000000E+00  0.00000000000E+00  0.64596141751E+03  0.64596141751E+03  0.25500000000E-02 0.  1.
         -2   -1    0    0    0  501 -0.00000000000E+00 -0.00000000000E+00 -0.69543094245E+03  0.69543094245E+03  0.25500000000E-02 0. -1.
    -200001    2    1    2    0    0 -0.99865277518E+02  0.20311521354E+03 -0.17426199288E+03  0.67613224266E+03  0.61282844563E+03 0.  0.
   -5000001    2    3    3    0    0  0.20931490664E+03  0.43303448877E+01 -0.15344950331E+03  0.29437057617E+03  0.13883732934E+03 0.  0.
     200001    1    1    2    0    0  0.99865277518E+02 -0.20311521354E+03  0.12479246793E+03  0.66526011731E+03  0.61300000000E+03 0.  1.
         13    1    4    4    0    0  0.19000501381E+03 -0.37933365702E+02 -0.10262088011E+03  0.21925305404E+03  0.10566000000E+00 0.  1.
    -200003    1    4    4    0    0  0.19309892826E+02  0.42263710590E+02 -0.50828623201E+02  0.75117522126E+02  0.30000000000E+02 0.  1.
    -200000    1    3    3    0    0 -0.30918018416E+03  0.19878486865E+03 -0.20812489566E+02  0.38176166649E+03  0.10100000000E+03 0.  1.
<mgrwt>
<rscale>  0 0.13404799E+04</rscale>
<asrwt>0</asrwt>
<pdfrwt beam="1">  1        2 0.92280202E-01 0.13404799E+04</pdfrwt>
<pdfrwt beam="2">  1       -2 0.99347278E-01 0.13404799E+04</pdfrwt>
<totfact> 0.40790143E+01</totfact>
</mgrwt>
</event>
<event>
 8    2  0.4480234E-052  0.1625681E+04  0.7818608E-02  0.8804925E-01
          2   -1    0    0  501    0  0.00000000000E+00  0.00000000000E+00  0.19167482553E+04  0.19167482553E+04  0.25500000000E-02 0.  1.
         -2   -1    0    0    0  501 -0.00000000000E+00 -0.00000000000E+00 -0.34470331855E+03  0.34470331856E+03  0.25500000000E-02 0. -1.
    -200001    2    1    2    0    0  0.23068094762E+03  0.35962063053E+03  0.34191223082E+03  0.82216835931E+03  0.61360911008E+03 0.  0.
   -5000001    2    3    3    0    0  0.49058160058E+02 -0.14887253042E+03  0.16645140220E+03  0.24550586350E+03  0.89427771624E+02 0.  0.
     200001    1    1    2    0    0 -0.23068094762E+03 -0.35962063053E+03  0.12301327059E+04  0.14392832146E+04  0.61300000000E+03 0. -1.
         13    1    4    4    0    0  0.16629803204E+02 -0.30611101752E+02 -0.21217436864E+01  0.34901330424E+02  0.10566000000E+00 0.  1.
    -200003    1    4    4    0    0  0.32428356853E+02 -0.11826142867E+03  0.16857314589E+03  0.21060453308E+03  0.30000000000E+02 0.  1.
    -200000    1    3    3    0    0  0.18162278756E+03  0.50849316095E+03  0.17546082862E+03  0.57666249581E+03  0.10100000000E+03 0. -1.
<mgrwt>
<rscale>  0 0.16256808E+04</rscale>
<asrwt>0</asrwt>
<pdfrwt beam="1">  1        2 0.27382118E+00 0.16256808E+04</pdfrwt>
<pdfrwt beam="2">  1       -2 0.49243331E-01 0.16256808E+04</pdfrwt>
<totfact> 0.33154606E+01</totfact>
</mgrwt>
</event>
<event>
 8    2  0.4480234E-052  0.1965176E+04  0.7818608E-02  0.8623077E-01
         -2   -1    0    0    0  501 -0.00000000000E+00  0.00000000000E+00  0.54924574799E+03  0.54924574799E+03  0.25500000000E-02 0. -1.
          2   -1    0    0  501    0  0.00000000000E+00 -0.00000000000E+00 -0.17578278872E+04  0.17578278872E+04  0.25500000000E-02 0.  1.
    -200001    2    1    2    0    0 -0.23144882512E+03  0.49775424389E+02 -0.14621458198E+04  0.16027230892E+04  0.61221299471E+03 0.  0.
   -5000001    2    3    3    0    0  0.18639962904E+03  0.64121924732E+02 -0.36979856653E+03  0.42874409690E+03  0.90631550142E+02 0.  0.
     200001    1    1    2    0    0  0.23144882512E+03 -0.49775424389E+02  0.25356368056E+03  0.70435054598E+03  0.61300000000E+03 0. -1.
         13    1    4    4    0    0  0.92218635075E+01 -0.16897669287E+02 -0.24697656437E+02  0.31313884962E+02  0.10566000000E+00 0.  1.
    -200003    1    4    4    0    0  0.17717776553E+03  0.81019594019E+02 -0.34510091009E+03  0.39743021194E+03  0.30000000000E+02 0.  1.
    -200000    1    3    3    0    0 -0.41784845416E+03 -0.14346500343E+02 -0.10923472533E+04  0.11739789923E+04  0.10100000000E+03 0. -1.
<mgrwt>
<rscale>  0 0.19651763E+04</rscale>
<asrwt>0</asrwt>
<pdfrwt beam="1">  1        2 0.25111827E+00 0.19651763E+04</pdfrwt>
<pdfrwt beam="2">  1       -2 0.78463679E-01 0.19651763E+04</pdfrwt>
<totfact> 0.14450948E+01</totfact>
</mgrwt>
</event>
<event>
 8    2  0.4480234E-052  0.1438497E+04  0.7818608E-02  0.8926414E-01
          2   -1    0    0  501    0  0.00000000000E+00  0.00000000000E+00  0.13010212413E+04  0.13010212413E+04  0.25500000000E-02 0. -1.
         -2   -1    0    0    0  501 -0.00000000000E+00 -0.00000000000E+00 -0.39762479649E+03  0.39762479650E+03  0.25500000000E-02 0.  1.
    -200001    2    1    2    0    0  0.37254455753E+03 -0.37353458571E+02  0.39946110184E+03  0.82120398383E+03  0.61206378994E+03 0.  0.
   -5000001    2    3    3    0    0  0.35622396678E+03  0.20554031792E+03  0.15116796262E+03  0.45910699222E+03  0.13705889459E+03 0.  0.
     200001    1    1    2    0    0 -0.37254455753E+03  0.37353458571E+02  0.50393534298E+03  0.87744205399E+03  0.61300000000E+03 0.  1.
         13    1    4    4    0    0  0.21557375164E+03  0.79605030450E+02  0.27523102938E+02  0.23144445473E+03  0.10566000000E+00 0.  1.
    -200003    1    4    4    0    0  0.14065021514E+03  0.12593528747E+03  0.12364485968E+03  0.22766253749E+03  0.30000000000E+02 0. -1.
    -200000    1    3    3    0    0  0.16320590754E+02 -0.24289377649E+03  0.24829313923E+03  0.36209699161E+03  0.10100000000E+03 0. -1.
<mgrwt>
<rscale>  0 0.14384969E+04</rscale>
<asrwt>0</asrwt>
<pdfrwt beam="1">  1        2 0.18586018E+00 0.14384969E+04</pdfrwt>
<pdfrwt beam="2">  1       -2 0.56803543E-01 0.14384969E+04</pdfrwt>
<totfact> 0.52953265E+01</totfact>
</mgrwt>
</event>
<event>
 8    2  0.4480234E-052  0.1241713E+04  0.7818608E-02  0.9077108E-01
          2   -1    0    0  501    0  0.00000000000E+00  0.00000000000E+00  0.95436882574E+03  0.95436882574E+03  0.25500000000E-02 0.  1.
         -2   -1    0    0    0  501 -0.00000000000E+00 -0.00000000000E+00 -0.40389322379E+03  0.40389322380E+03  0.25500000000E-02 0. -1.
    -200001    2    1    2    0    0  0.68058015059E+02 -0.58960843247E+02  0.32995751911E+03  0.70061054660E+03  0.61145310462E+03 0.  0.
   -5000001    2    3    3    0    0  0.16885578558E+03 -0.19468831482E+03 -0.42766961432E+02  0.27905785064E+03  0.98124689855E+02 0.  0.
     200001    1    1    2    0    0 -0.68058015059E+02  0.58960843247E+02  0.22051808284E+03  0.65765150293E+03  0.61300000000E+03 0. -1.
         13    1    4    4    0    0  0.71582150023E+02 -0.95818674835E+02  0.24385031231E+02  0.12206499728E+03  0.10566000000E+00 0.  1.
    -200003    1    4    4    0    0  0.97273635559E+02 -0.98869639985E+02 -0.67151992663E+02  0.15699285335E+03  0.30000000000E+02 0.  1.
    -200000    1    3    3    0    0 -0.10079777052E+03  0.13572747157E+03  0.37272448054E+03  0.42155269597E+03  0.10100000000E+03 0. -1.
<mgrwt>
<rscale>  0 0.12417135E+04</rscale>
<asrwt>0</asrwt>
<pdfrwt beam="1">  1        2 0.13633840E+00 0.12417135E+04</pdfrwt>
<pdfrwt beam="2">  1       -2 0.57699033E-01 0.12417135E+04</pdfrwt>
<totfact> 0.83080080E+01</totfact>
</mgrwt>
</event>
<event>
 8    2  0.4480234E-052  0.1703684E+04  0.7818608E-02  0.8759266E-01
          2   -1    0    0  501    0  0.00000000000E+00  0.00000000000E+00  0.98870399336E+03  0.98870399336E+03  0.25500000000E-02 0.  1.
         -2   -1    0    0    0  501 -0.00000000000E+00 -0.00000000000E+00 -0.73392519107E+03  0.73392519107E+03  0.25500000000E-02 0. -1.
    -200001    2    1    2    0    0  0.23894545066E+03 -0.17287805208E+03  0.64568569987E+03  0.93805353361E+03  0.61323132636E+03 0.  0.
   -5000001    2    3    3    0    0 -0.16054559482E+03 -0.31496417642E+02  0.59004448042E+02  0.20731571933E+03  0.11283337385E+03 0.  0.
     200001    1    1    2    0    0 -0.23894545066E+03  0.17287805208E+03 -0.39090689758E+03  0.78457565082E+03  0.61300000000E+03 0. -1.
         13    1    4    4    0    0  0.10800036045E+02  0.80857079815E+00  0.24870834011E+02  0.27126815400E+02  0.10566000000E+00 0.  1.
    -200003    1    4    4    0    0 -0.17134563086E+03 -0.32304988440E+02  0.34133614032E+02  0.18018890393E+03  0.30000000000E+02 0.  1.
    -200000    1    3    3    0    0  0.39949104548E+03 -0.14138163444E+03  0.58668125182E+03  0.73073781428E+03  0.10100000000E+03 0.  1.
<mgrwt>
<rscale>  0 0.17036840E+04</rscale>
<asrwt>0</asrwt>
<pdfrwt beam="1">  1        2 0.14124343E+00 0.17036840E+04</pdfrwt>
<pdfrwt beam="2">  1       -2 0.10484646E+00 0.17036840E+04</pdfrwt>
<totfact> 0.20087472E+01</totfact>
</mgrwt>
</event>
<event>
 8    2  0.4480234E-052  0.2410334E+04  0.7818608E-02  0.8435645E-01
         -2   -1    0    0    0  501 -0.00000000000E+00  0.00000000000E+00  0.73535524548E+03  0.73535524548E+03  0.25500000000E-02 0.  1.
          2   -1    0    0  501    0  0.00000000000E+00 -0.00000000000E+00 -0.19751377441E+04  0.19751377441E+04  0.25500000000E-02 0. -1.
    -200001    2    1    2    0    0  0.28708285680E+03  0.17507103291E+03 -0.17236341441E+04  0.18602295903E+04  0.61357398296E+03 0.  0.
   -5000001    2    3    3    0    0 -0.75746645896E+02 -0.11434114399E+03 -0.15223767806E+03  0.21861681325E+03  0.76194152284E+02 0.  0.
     200001    1    1    2    0    0 -0.28708285680E+03 -0.17507103291E+03  0.48385164554E+03  0.85026339926E+03  0.61300000000E+03 0.  1.
         13    1    4    4    0    0  0.13200596210E+01  0.86156946667E+01 -0.84455016944E+01  0.12137150197E+02  0.10566000000E+00 0.  1.
    -200003    1    4    4    0    0 -0.77066705517E+02 -0.12295683866E+03 -0.14379217636E+03  0.20647966306E+03  0.30000000000E+02 0.  1.
    -200000    1    3    3    0    0  0.36282950270E+03  0.28941217691E+03 -0.15713964661E+04  0.16416127771E+04  0.10100000000E+03 0. -1.
<mgrwt>
<rscale>  0 0.24103343E+04</rscale>
<asrwt>0</asrwt>
<pdfrwt beam="1">  1        2 0.28216253E+00 0.24103343E+04</pdfrwt>
<pdfrwt beam="2">  1       -2 0.10505075E+00 0.24103343E+04</pdfrwt>
<totfact> 0.54821473E+00</totfact>
</mgrwt>
</event>
<event>
 8    2  0.4480234E-052  0.1756896E+04  0.7818608E-02  0.8729564E-01
         -2   -1    0    0    0  501 -0.00000000000E+00  0.00000000000E+00  0.31805981976E+03  0.31805981977E+03  0.25500000000E-02 0. -1.
          2   -1    0    0  501    0  0.00000000000E+00 -0.00000000000E+00 -0.24261813461E+04  0.24261813461E+04  0.25500000000E-02 0.  1.
    -200001    2    1    2    0    0 -0.18459038512E+03  0.58055162829E+03 -0.12989212249E+04  0.15603121430E+04  0.61340348190E+03 0.  0.
   -5000001    2    3    3    0    0 -0.18468102811E+03  0.57007383963E+03 -0.13235813004E+04  0.14558185470E+04  0.91917998317E+02 0.  0.
     200001    1    1    2    0    0  0.18459038512E+03 -0.58055162829E+03 -0.80920030138E+03  0.11839290229E+04  0.61300000000E+03 0. -1.
         13    1    4    4    0    0 -0.17205618634E+03  0.44862267375E+03 -0.10548127812E+04  0.11590925973E+04  0.10566000000E+00 0.  1.
    -200003    1    4    4    0    0 -0.12624841771E+02  0.12145116588E+03 -0.26876851920E+03  0.29672594972E+03  0.30000000000E+02 0. -1.
    -200000    1    3    3    0    0  0.90642987672E-01  0.10477788669E+02  0.24660075465E+02  0.10449359594E+03  0.10100000000E+03 0. -1.
<mgrwt>
<rscale>  0 0.17568959E+04</rscale>
<asrwt>0</asrwt>
<pdfrwt beam="1">  1        2 0.34659732E+00 0.17568959E+04</pdfrwt>
<pdfrwt beam="2">  1       -2 0.45437119E-01 0.17568959E+04</pdfrwt>
<totfact> 0.21040189E+01</totfact>
</mgrwt>
</event>
<event>
 8    2  0.4480234E-052  0.1521119E+04  0.7818608E-02  0.8870530E-01
          2   -1    0    0  501    0  0.00000000000E+00  0.00000000000E+00  0.10984066816E+04  0.10984066816E+04  0.25500000000E-02 0.  1.
         -2   -1    0    0    0  501 -0.00000000000E+00 -0.00000000000E+00 -0.52662680439E+03  0.52662680439E+03  0.25500000000E-02 0. -1.
    -200001    2    1    2    0    0 -0.32971658168E+03 -0.17754924490E+03  0.18531937394E+02  0.71834222570E+03  0.61272780410E+03 0.  0.
   -5000001    2    3    3    0    0 -0.37116676534E+03 -0.33976976166E+03  0.74762727191E+02  0.51488088906E+03  0.79401548586E+02 0.  0.
     200001    1    1    2    0    0  0.32971658168E+03  0.17754924490E+03  0.55324793982E+03  0.90669126031E+03  0.61300000000E+03 0.  1.
         13    1    4    4    0    0 -0.97757485154E+02 -0.13266212932E+03  0.32868625279E+02  0.16803607991E+03  0.10566000000E+00 0.  1.
    -200003    1    4    4    0    0 -0.27340928019E+03 -0.20710763234E+03  0.41894101912E+02  0.34684480916E+03  0.30000000000E+02 0.  1.
    -200000    1    3    3    0    0  0.41450183661E+02  0.16222051676E+03 -0.56230789797E+02  0.20346133663E+03  0.10100000000E+03 0. -1.
<mgrwt>
<rscale>  0 0.15211185E+04</rscale>
<asrwt>0</asrwt>
<pdfrwt beam="1">  1        2 0.15691524E+00 0.15211185E+04</pdfrwt>
<pdfrwt beam="2">  1       -2 0.75232401E-01 0.15211185E+04</pdfrwt>
<totfact> 0.37534973E+01</totfact>
</mgrwt>
</event>
<event>
 8    2  0.4480234E-052  0.1271600E+04  0.7818608E-02  0.9052395E-01
         -2   -1    0    0    0  501 -0.00000000000E+00  0.00000000000E+00  0.21343643802E+03  0.21343643803E+03  0.25500000000E-02 0.  1.
          2   -1    0    0  501    0  0.00000000000E+00 -0.00000000000E+00 -0.18939676301E+04  0.18939676301E+04  0.25500000000E-02 0. -1.
    -200001    2    1    2    0    0  0.83005903168E+02 -0.44279183093E+02 -0.60893473571E+03  0.86928509512E+03  0.61319200763E+03 0.  0.
   -5000001    2    3    3    0    0 -0.22817182477E+03  0.56604729980E+02 -0.39457641764E+03  0.46535486499E+03  0.74820611732E+02 0.  0.
     200001    1    1    2    0    0 -0.83005903168E+02  0.44279183093E+02 -0.10715964563E+04  0.12381189730E+04  0.61300000000E+03 0. -1.
         13    1    4    4    0    0 -0.74471290827E+02 -0.68696969240E+01 -0.89742034017E+02  0.11681956055E+03  0.10566000000E+00 0.  1.
    -200003    1    4    4    0    0 -0.15370053394E+03  0.63474426904E+02 -0.30483438362E+03  0.34853530444E+03  0.30000000000E+02 0.  1.
    -200000    1    3    3    0    0  0.31117772794E+03 -0.10088391307E+03 -0.21435831807E+03  0.40393023012E+03  0.10100000000E+03 0.  1.
<mgrwt>
<rscale>  0 0.12716001E+04</rscale>
<asrwt>0</asrwt>
<pdfrwt beam="1">  1        2 0.27056679E+00 0.12716001E+04</pdfrwt>
<pdfrwt beam="2">  1       -2 0.30490921E-01 0.12716001E+04</pdfrwt>
<totfact> 0.88919847E+01</totfact>
</mgrwt>
</event>
<event>
 8    2  0.4480234E-052  0.1607369E+04  0.7818608E-02  0.8816034E-01
          2   -1    0    0  501    0  0.00000000000E+00  0.00000000000E+00  0.82190633582E+03  0.82190633583E+03  0.25500000000E-02 0.  1.
         -2   -1    0    0    0  501 -0.00000000000E+00 -0.00000000000E+00 -0.78586689381E+03  0.78586689382E+03  0.25500000000E-02 0. -1.
    -200001    2    1    2    0    0 -0.40621619387E+03 -0.66169459700E+02 -0.29908037289E+03  0.79693151642E+03  0.61340099353E+03 0.  0.
   -5000001    2    3    3    0    0 -0.53956058781E+03 -0.11866984957E+03 -0.25413296252E+03  0.61593900820E+03  0.97924144462E+02 0.  0.
     200001    1    1    2    0    0  0.40621619387E+03  0.66169459700E+02  0.33511981490E+03  0.81084171322E+03  0.61300000000E+03 0.  1.
         13    1    4    4    0    0 -0.17771629531E+02  0.32325963130E-01 -0.30276589607E+02  0.35107191620E+02  0.10566000000E+00 0.  1.
    -200003    1    4    4    0    0 -0.52178895828E+03 -0.11870217554E+03 -0.22385637291E+03  0.58083181658E+03  0.30000000000E+02 0.  1.
    -200000    1    3    3    0    0  0.13334439394E+03  0.52500389874E+02 -0.44947410372E+02  0.18099250822E+03  0.10100000000E+03 0.  1.
<mgrwt>
<rscale>  0 0.16073693E+04</rscale>
<asrwt>0</asrwt>
<pdfrwt beam="1">  1        2 0.11741519E+00 0.16073693E+04</pdfrwt>
<pdfrwt beam="2">  1       -2 0.11226670E+00 0.16073693E+04</pdfrwt>
<totfact> 0.22045410E+01</totfact>
</mgrwt>
</event>
<event>
 8    2  0.4480234E-052  0.1340562E+04  0.7818608E-02  0.8998004E-01
         -2   -1    0    0    0  501 -0.00000000000E+00  0.00000000000E+00  0.28274521073E+03  0.28274521074E+03  0.25500000000E-02 0. -1.
          2   -1    0    0  501    0  0.00000000000E+00 -0.00000000000E+00 -0.15889802085E+04  0.15889802085E+04  0.25500000000E-02 0.  1.
    -200001    2    1    2    0    0 -0.12675519339E+03  0.11010910018E+03 -0.35485815405E+03  0.72757604449E+03  0.61257791180E+03 0.  0.
   -5000001    2    3    3    0    0 -0.57311544404E+02 -0.17442997207E+03 -0.35115000768E+03  0.41773793455E+03  0.13224305575E+03 0.  0.
     200001    1    1    2    0    0  0.12675519339E+03 -0.11010910018E+03 -0.95137684374E+03  0.11441493748E+04  0.61300000000E+03 0.  1.
         13    1    4    4    0    0 -0.18292485749E+02 -0.10481859524E+03 -0.78935265061E+02  0.13248524513E+03  0.10566000000E+00 0.  1.
    -200003    1    4    4    0    0 -0.39019058655E+02 -0.69611376822E+02 -0.27221474262E+03  0.28525268942E+03  0.30000000000E+02 0.  1.
    -200000    1    3    3    0    0 -0.69443648987E+02  0.28453907225E+03 -0.37081463763E+01  0.30983810994E+03  0.10100000000E+03 0. -1.
<mgrwt>
<rscale>  0 0.13405619E+04</rscale>
<asrwt>0</asrwt>
<pdfrwt beam="1">  1        2 0.22699717E+00 0.13405619E+04</pdfrwt>
<pdfrwt beam="2">  1       -2 0.40392174E-01 0.13405619E+04</pdfrwt>
<totfact> 0.74387538E+01</totfact>
</mgrwt>
</event>
<event>
 8    2  0.4480234E-052  0.1541599E+04  0.7818608E-02  0.8857251E-01
         -2   -1    0    0    0  501 -0.00000000000E+00  0.00000000000E+00  0.42611102249E+03  0.42611102250E+03  0.25500000000E-02 0. -1.
          2   -1    0    0  501    0  0.00000000000E+00 -0.00000000000E+00 -0.13943132690E+04  0.13943132690E+04  0.25500000000E-02 0.  1.
    -200001    2    1    2    0    0 -0.38399616240E+03  0.26585172085E+02 -0.79756864322E+03  0.10767545727E+04  0.61247436281E+03 0.  0.
   -5000001    2    3    3    0    0 -0.40473554746E+03 -0.18663598770E+03 -0.35280193683E+03  0.57285794821E+03  0.71085630852E+02 0.  0.
     200001    1    1    2    0    0  0.38399616240E+03 -0.26585172085E+02 -0.17063360332E+03  0.74366971883E+03  0.61300000000E+03 0. -1.
         13    1    4    4    0    0 -0.45200527678E+01 -0.13402086957E+02 -0.95503676890E+01  0.17066560838E+02  0.10566000000E+00 0.  1.
    -200003    1    4    4    0    0 -0.40021549469E+03 -0.17323390074E+03 -0.34325156914E+03  0.55579138737E+03  0.30000000000E+02 0.  1.
    -200000    1    3    3    0    0  0.20739385057E+02  0.21322115978E+03 -0.44476670639E+03  0.50389662451E+03  0.10100000000E+03 0. -1.
<mgrwt>
<rscale>  0 0.15415995E+04</rscale>
<asrwt>0</asrwt>
<pdfrwt beam="1">  1        2 0.19918761E+00 0.15415995E+04</pdfrwt>
<pdfrwt beam="2">  1       -2 0.60873004E-01 0.15415995E+04</pdfrwt>
<totfact> 0.40384528E+01</totfact>
</mgrwt>
</event>
<event>
 8    2  0.4480234E-052  0.1393080E+04  0.7818608E-02  0.8958843E-01
          2   -1    0    0  501    0  0.00000000000E+00  0.00000000000E+00  0.27801656376E+04  0.27801656376E+04  0.25500000000E-02 0.  1.
         -2   -1    0    0    0  501 -0.00000000000E+00 -0.00000000000E+00 -0.17451045429E+03  0.17451045430E+03  0.25500000000E-02 0. -1.
    -200001    2    1    2    0    0  0.26599850706E+03 -0.40442501949E+02  0.17161971890E+04  0.18414396725E+04  0.61088171882E+03 0.  0.
   -5000001    2    3    3    0    0  0.17248742102E+02  0.14772938859E+03  0.15364196779E+03  0.24486054038E+03  0.11928679144E+03 0.  0.
     200001    1    1    2    0    0 -0.26599850706E+03  0.40442501949E+02  0.88945799430E+03  0.11132364193E+04  0.61300000000E+03 0. -1.
         13    1    4    4    0    0  0.64022090790E+02  0.67994616041E+02  0.71760889997E+02  0.11777831896E+03  0.10566000000E+00 0.  1.
    -200003    1    4    4    0    0 -0.46773348688E+02  0.79734772546E+02  0.81881077793E+02  0.12708222142E+03  0.30000000000E+02 0.  1.
    -200000    1    3    3    0    0  0.24874976495E+03 -0.18817189054E+03  0.15625552212E+04  0.15965791322E+04  0.10100000000E+03 0.  1.
<mgrwt>
<rscale>  0 0.13930800E+04</rscale>
<asrwt>0</asrwt>
<pdfrwt beam="1">  1        2 0.39716651E+00 0.13930800E+04</pdfrwt>
<pdfrwt beam="2">  1       -2 0.24930065E-01 0.13930800E+04</pdfrwt>
<totfact> 0.44044067E+01</totfact>
</mgrwt>
</event>
<event>
 8    2  0.4480234E-052  0.1703641E+04  0.7818608E-02  0.8759291E-01
          2   -1    0    0  501    0  0.00000000000E+00  0.00000000000E+00  0.32332349565E+03  0.32332349566E+03  0.25500000000E-02 0.  1.
         -2   -1    0    0    0  501 -0.00000000000E+00 -0.00000000000E+00 -0.22441854890E+04  0.22441854890E+04  0.25500000000E-02 0. -1.
    -200001    2    1    2    0    0  0.25952646434E+03 -0.51281844652E+03 -0.11721120007E+04  0.14420169605E+04  0.61255989716E+03 0.  0.
   -5000001    2    3    3    0    0 -0.17265923449E+03 -0.27589617930E+03 -0.50776115013E+03  0.60866247920E+03  0.81967768015E+02 0.  0.
     200001    1    1    2    0    0 -0.25952646434E+03  0.51281844652E+03 -0.74874999266E+03  0.11254920241E+04  0.61300000000E+03 0.  1.
         13    1    4    4    0    0 -0.13514308173E+03 -0.15637486489E+03 -0.32125384865E+03  0.38199580802E+03  0.10566000000E+00 0.  1.
    -200003    1    4    4    0    0 -0.37516152753E+02 -0.11952131441E+03 -0.18650730149E+03  0.22666667118E+03  0.30000000000E+02 0.  1.
    -200000    1    3    3    0    0  0.43218569882E+03 -0.23692226722E+03 -0.66435085053E+03  0.83335448134E+03  0.10100000000E+03 0. -1.
<mgrwt>
<rscale>  0 0.17036407E+04</rscale>
<asrwt>0</asrwt>
<pdfrwt beam="1">  1        2 0.46189072E-01 0.17036407E+04</pdfrwt>
<pdfrwt beam="2">  1       -2 0.32059792E+00 0.17036407E+04</pdfrwt>
<totfact> 0.24920952E+00</totfact>
</mgrwt>
</event>
<event>
 8    2  0.4480234E-052  0.1579417E+04  0.7818608E-02  0.8833293E-01
         -2   -1    0    0    0  501 -0.00000000000E+00  0.00000000000E+00  0.34138432778E+03  0.34138432779E+03  0.25500000000E-02 0. -1.
          2   -1    0    0  501    0  0.00000000000E+00 -0.00000000000E+00 -0.18267968456E+04  0.18267968456E+04  0.25500000000E-02 0.  1.
    -200001    2    1    2    0    0 -0.33458627704E+03 -0.35520970582E+03 -0.60936558269E+03  0.99287306722E+03  0.61347257668E+03 0.  0.
   -5000001    2    3    3    0    0 -0.68041887510E+02  0.16207369048E+03 -0.18827470403E+03  0.26751346552E+03  0.72239258403E+02 0.  0.
     200001    1    1    2    0    0  0.33458627704E+03  0.35520970582E+03 -0.87604693513E+03  0.11753081062E+04  0.61300000000E+03 0.  1.
         13    1    4    4    0    0 -0.25335581860E+02  0.15508104837E+02 -0.55625388460E+02  0.63060193698E+02  0.10566000000E+00 0.  1.
    -200003    1    4    4    0    0 -0.42706305650E+02  0.14656558565E+03 -0.13264931557E+03  0.20445327182E+03  0.30000000000E+02 0.  1.
    -200000    1    3    3    0    0 -0.26654438953E+03 -0.51728339630E+03 -0.42109087866E+03  0.72535960170E+03  0.10100000000E+03 0. -1.
<mgrwt>
<rscale>  0 0.15794174E+04</rscale>
<asrwt>0</asrwt>
<pdfrwt beam="1">  1        2 0.26097097E+00 0.15794174E+04</pdfrwt>
<pdfrwt beam="2">  1       -2 0.48769190E-01 0.15794174E+04</pdfrwt>
<totfact> 0.37756556E+01</totfact>
</mgrwt>
</event>
<event>
 8    2  0.4480234E-052  0.1266763E+04  0.7818608E-02  0.9056346E-01
          2   -1    0    0  501    0  0.00000000000E+00  0.00000000000E+00  0.21906280427E+04  0.21906280427E+04  0.25500000000E-02 0.  1.
         -2   -1    0    0    0  501 -0.00000000000E+00 -0.00000000000E+00 -0.18313099605E+03  0.18313099607E+03  0.25500000000E-02 0. -1.
    -200001    2    1    2    0    0  0.66886438984E+02 -0.13379426492E+03  0.11059898339E+04  0.12733686736E+04  0.61309017710E+03 0.  0.
   -5000001    2    3    3    0    0  0.15429268376E+03 -0.34099596307E+03  0.63043044030E+03  0.73771007697E+03  0.81787153721E+02 0.  0.
     200001    1    1    2    0    0 -0.66886438984E+02  0.13379426492E+03  0.90150721276E+03  0.11003903651E+04  0.61300000000E+03 0. -1.
         13    1    4    4    0    0 -0.43495186289E+01 -0.25182883963E+01  0.11438020597E+01  0.51555344958E+01  0.10566000000E+00 0.  1.
    -200003    1    4    4    0    0  0.15864220239E+03 -0.33847767467E+03  0.62928663824E+03  0.73255454247E+03  0.30000000000E+02 0.  1.
    -200000    1    3    3    0    0 -0.87406244780E+02  0.20720169814E+03  0.47555939357E+03  0.53565859664E+03  0.10100000000E+03 0.  1.
<mgrwt>
<rscale>  0 0.12667626E+04</rscale>
<asrwt>0</asrwt>
<pdfrwt beam="1">  1        2 0.31294686E+00 0.12667626E+04</pdfrwt>
<pdfrwt beam="2">  1       -2 0.26161571E-01 0.12667626E+04</pdfrwt>
<totfact> 0.83108979E+01</totfact>
</mgrwt>
</event>
<event>
 8    2  0.4480234E-052  0.1698422E+04  0.7818608E-02  0.8762265E-01
         -2   -1    0    0    0  501 -0.00000000000E+00  0.00000000000E+00  0.31297407348E+03  0.31297407349E+03  0.25500000000E-02 0. -1.
          2   -1    0    0  501    0  0.00000000000E+00 -0.00000000000E+00 -0.23042144614E+04  0.23042144614E+04  0.25500000000E-02 0.  1.
    -200001    2    1    2    0    0 -0.25426350391E+03  0.32159238966E+03 -0.34671484685E+03  0.81488310856E+03  0.61298588980E+03 0.  0.
   -5000001    2    3    3    0    0 -0.52961975322E+01  0.22833500269E+03 -0.43752858315E+03  0.51633697382E+03  0.15168284773E+03 0.  0.
     200001    1    1    2    0    0  0.25426350391E+03 -0.32159238966E+03 -0.16445255410E+04  0.18023054263E+04  0.61300000000E+03 0.  1.
         13    1    4    4    0    0  0.64739311815E+02  0.13012456753E+03 -0.18863782717E+03  0.23813404329E+03  0.10566000000E+00 0.  1.
    -200003    1    4    4    0    0 -0.70035509347E+02  0.98210435167E+02 -0.24889075598E+03  0.27820293053E+03  0.30000000000E+02 0.  1.
    -200000    1    3    3    0    0 -0.24896730637E+03  0.93257386969E+02  0.90813736304E+02  0.29854613474E+03  0.10100000000E+03 0. -1.
<mgrwt>
<rscale>  0 0.16984221E+04</rscale>
<asrwt>0</asrwt>
<pdfrwt beam="1">  1        2 0.32917348E+00 0.16984221E+04</pdfrwt>
<pdfrwt beam="2">  1       -2 0.44710583E-01 0.16984221E+04</pdfrwt>
<totfact> 0.25274304E+01</totfact>
</mgrwt>
</event>
<event>
 8    2  0.4480234E-052  0.1453574E+04  0.7818608E-02  0.8915927E-01
         -2   -1    0    0    0  501 -0.00000000000E+00  0.00000000000E+00  0.46028395865E+03  0.46028395865E+03  0.25500000000E-02 0. -1.
          2   -1    0    0  501    0  0.00000000000E+00 -0.00000000000E+00 -0.11475940885E+04  0.11475940885E+04  0.25500000000E-02 0.  1.
    -200001    2    1    2    0    0  0.35700895036E+03 -0.57330647442E+02 -0.50689510951E+03  0.87367046526E+03  0.61287456796E+03 0.  0.
   -5000001    2    3    3    0    0  0.48853471115E+03 -0.11716116542E+02 -0.49581034393E+03  0.70132319024E+03  0.84987579286E+02 0.  0.
     200001    1    1    2    0    0 -0.35700895036E+03  0.57330647442E+02 -0.18041502037E+03  0.73420758192E+03  0.61300000000E+03 0.  1.
         13    1    4    4    0    0  0.18257069523E+03 -0.20757340975E+02 -0.23323849000E+03  0.29692276832E+03  0.10566000000E+00 0.  1.
    -200003    1    4    4    0    0  0.30596401592E+03  0.90412244328E+01 -0.26257185393E+03  0.40440042192E+03  0.30000000000E+02 0.  1.
    -200000    1    3    3    0    0 -0.13152576079E+03 -0.45614530900E+02 -0.11084765578E+02  0.17234727503E+03  0.10100000000E+03 0.  1.
<mgrwt>
<rscale>  0 0.14535737E+04</rscale>
<asrwt>0</asrwt>
<pdfrwt beam="1">  1        2 0.16394201E+00 0.14535737E+04</pdfrwt>
<pdfrwt beam="2">  1       -2 0.65754852E-01 0.14535737E+04</pdfrwt>
<totfact> 0.47375514E+01</totfact>
</mgrwt>
</event>
<event>
 8    2  0.4480234E-052  0.1361348E+04  0.7818608E-02  0.8982282E-01
          2   -1    0    0  501    0  0.00000000000E+00  0.00000000000E+00  0.27040568821E+04  0.27040568821E+04  0.25500000000E-02 0.  1.
         -2   -1    0    0    0  501 -0.00000000000E+00 -0.00000000000E+00 -0.17134139927E+03  0.17134139929E+03  0.25500000000E-02 0. -1.
    -200001    2    1    2    0    0 -0.18179301020E+03  0.22043298439E+03  0.10919555800E+04  0.12837961022E+04  0.61165843751E+03 0.  0.
   -5000001    2    3    3    0    0 -0.32202402141E+03 -0.44897407463E+02  0.41942642463E+03  0.54045135165E+03  0.10224426763E+03 0.  0.
     200001    1    1    2    0    0  0.18179301020E+03 -0.22043298439E+03  0.14407599028E+04  0.15916021791E+04  0.61300000000E+03 0. -1.
         13    1    4    4    0    0 -0.11602788535E+03  0.24646234817E+02  0.18082267180E+03  0.21625622966E+03  0.10566000000E+00 0.  1.
    -200003    1    4    4    0    0 -0.20599613606E+03 -0.69543642280E+02  0.23860375283E+03  0.32419512198E+03  0.30000000000E+02 0.  1.
    -200000    1    3    3    0    0  0.14023101121E+03  0.26533039185E+03  0.67252915538E+03  0.74334475056E+03  0.10100000000E+03 0.  1.
<mgrwt>
<rscale>  0 0.13613477E+04</rscale>
<asrwt>0</asrwt>
<pdfrwt beam="1">  1        2 0.38629384E+00 0.13613477E+04</pdfrwt>
<pdfrwt beam="2">  1       -2 0.24477342E-01 0.13613477E+04</pdfrwt>
<totfact> 0.50160722E+01</totfact>
</mgrwt>
</event>
<event>
 8    2  0.4480234E-052  0.1232771E+04  0.7818608E-02  0.9084646E-01
          2   -1    0    0  501    0  0.00000000000E+00  0.00000000000E+00  0.52500269154E+03  0.52500269155E+03  0.25500000000E-02 0.  1.
         -2   -1    0    0    0  501 -0.00000000000E+00 -0.00000000000E+00 -0.72367409244E+03  0.72367409244E+03  0.25500000000E-02 0. -1.
    -200001    2    1    2    0    0 -0.33586002287E+02  0.58846020077E+02 -0.11227464626E+03  0.62592139635E+03  0.61203032979E+03 0.  0.
   -5000001    2    3    3    0    0  0.66615709331E+02 -0.12562411032E+03 -0.29068735209E+03  0.33249047496E+03  0.76365630052E+02 0.  0.
     200001    1    1    2    0    0  0.33586002287E+02 -0.58846020077E+02 -0.86396754639E+02  0.62275538764E+03  0.61300000000E+03 0. -1.
         13    1    4    4    0    0 -0.83257853250E+01 -0.21626016585E+02 -0.86427801165E+02  0.89480608362E+02  0.10566000000E+00 0.  1.
    -200003    1    4    4    0    0  0.74941494656E+02 -0.10399809373E+03 -0.20425955093E+03  0.24300986660E+03  0.30000000000E+02 0.  1.
    -200000    1    3    3    0    0 -0.10020171162E+03  0.18447013039E+03  0.17841270583E+03  0.29343092138E+03  0.10100000000E+03 0.  1.
<mgrwt>
<rscale>  0 0.12327706E+04</rscale>
<asrwt>0</asrwt>
<pdfrwt beam="1">  1        2 0.75000385E-01 0.12327706E+04</pdfrwt>
<pdfrwt beam="2">  1       -2 0.10338201E+00 0.12327706E+04</pdfrwt>
<totfact> 0.47740248E+01</totfact>
</mgrwt>
</event>
<event>
 8    2  0.4480234E-052  0.1335770E+04  0.7818608E-02  0.9001671E-01
         -2   -1    0    0    0  501 -0.00000000000E+00  0.00000000000E+00  0.91165497724E+03  0.91165497724E+03  0.25500000000E-02 0. -1.
          2   -1    0    0  501    0  0.00000000000E+00 -0.00000000000E+00 -0.48929732189E+03  0.48929732189E+03  0.25500000000E-02 0.  1.
    -200001    2    1    2    0    0  0.36464032680E+02  0.25952297317E+03  0.20499750268E+03  0.69974174926E+03  0.61557512967E+03 0.  0.
   -5000001    2    3    3    0    0 -0.10486382073E+03  0.40009588565E+03  0.20442766488E+03  0.47627893225E+03  0.11822779930E+03 0.  0.
     200001    1    1    2    0    0 -0.36464032680E+02 -0.25952297317E+03  0.21736015267E+03  0.70121054987E+03  0.61300000000E+03 0.  1.
         13    1    4    4    0    0  0.17603903893E+02  0.12440841874E+03  0.42845331696E+02  0.13275197060E+03  0.10566000000E+00 0.  1.
    -200003    1    4    4    0    0 -0.12246772462E+03  0.27568746691E+03  0.16158233318E+03  0.34352696165E+03  0.30000000000E+02 0.  1.
    -200000    1    3    3    0    0  0.14132785341E+03 -0.14057291248E+03  0.56983780063E+00  0.22346281701E+03  0.10100000000E+03 0.  1.
<mgrwt>
<rscale>  0 0.13357699E+04</rscale>
<asrwt>0</asrwt>
<pdfrwt beam="1">  1        2 0.69899617E-01 0.13357699E+04</pdfrwt>
<pdfrwt beam="2">  1       -2 0.13023643E+00 0.13357699E+04</pdfrwt>
<totfact> 0.29123374E+01</totfact>
</mgrwt>
</event>
<event>
 8    2  0.4480234E-052  0.1650280E+04  0.7818608E-02  0.8790241E-01
          2   -1    0    0  501    0  0.00000000000E+00  0.00000000000E+00  0.18653311829E+04  0.18653311829E+04  0.25500000000E-02 0.  1.
         -2   -1    0    0    0  501 -0.00000000000E+00 -0.00000000000E+00 -0.36500529795E+03  0.36500529796E+03  0.25500000000E-02 0. -1.
    -200001    2    1    2    0    0  0.36972572768E+03 -0.22548105800E+03  0.28603291939E+03  0.80281582342E+03  0.61250272990E+03 0.  0.
   -5000001    2    3    3    0    0  0.33346817241E+03 -0.39518999970E+03  0.26189072758E+03  0.60057937608E+03  0.15726625801E+03 0.  0.
     200001    1    1    2    0    0 -0.36972572768E+03  0.22548105800E+03  0.12142929655E+04  0.14275206574E+04  0.61300000000E+03 0.  1.
         13    1    4    4    0    0  0.11623970036E+03 -0.16106954498E+03  0.18335944955E+03  0.27032529509E+03  0.10566000000E+00 0.  1.
    -200003    1    4    4    0    0  0.21722847204E+03 -0.23412045472E+03  0.78531278035E+02  0.33025408100E+03  0.30000000000E+02 0.  1.
    -200000    1    3    3    0    0  0.36257555270E+02  0.16970894170E+03  0.24142191813E+02  0.20223644734E+03  0.10100000000E+03 0.  1.
<mgrwt>
<rscale>  0 0.16502797E+04</rscale>
<asrwt>0</asrwt>
<pdfrwt beam="1">  1        2 0.26647589E+00 0.16502797E+04</pdfrwt>
<pdfrwt beam="2">  1       -2 0.52143613E-01 0.16502797E+04</pdfrwt>
<totfact> 0.31290135E+01</totfact>
</mgrwt>
</event>
<event>
 8    2  0.4480234E-052  0.1511607E+04  0.7818608E-02  0.8876771E-01
          2   -1    0    0  501    0  0.00000000000E+00  0.00000000000E+00  0.16262816407E+04  0.16262816407E+04  0.25500000000E-02 0.  1.
         -2   -1    0    0    0  501 -0.00000000000E+00 -0.00000000000E+00 -0.35125440708E+03  0.35125440709E+03  0.25500000000E-02 0. -1.
    -200001    2    1    2    0    0  0.15573699611E+03  0.81116892317E+02  0.11684344949E+04  0.13310339410E+04  0.61284436934E+03 0.  0.
   -5000001    2    3    3    0    0 -0.11416095542E+03 -0.14186587792E+03  0.14939502112E+03  0.24880999505E+03  0.80180360682E+02 0.  0.
     200001    1    1    2    0    0 -0.15573699611E+03 -0.81116892317E+02  0.10659273875E+03  0.64650210682E+03  0.61300000000E+03 0. -1.
         13    1    4    4    0    0 -0.82237516047E+02 -0.52564708668E+02  0.56866455766E+02  0.11295956178E+03  0.10566000000E+00 0.  1.
    -200003    1    4    4    0    0 -0.31923439375E+02 -0.89301169256E+02  0.92528565356E+02  0.13585043327E+03  0.30000000000E+02 0.  1.
    -200000    1    3    3    0    0  0.26989795153E+03  0.22298277024E+03  0.10190394738E+04  0.10822239459E+04  0.10100000000E+03 0.  1.
<mgrwt>
<rscale>  0 0.15116066E+04</rscale>
<asrwt>0</asrwt>
<pdfrwt beam="1">  1        2 0.23232595E+00 0.15116066E+04</pdfrwt>
<pdfrwt beam="2">  1       -2 0.50179201E-01 0.15116066E+04</pdfrwt>
<totfact> 0.45519489E+01</totfact>
</mgrwt>
</event>
<event>
 8    2  0.4480234E-052  0.2164157E+04  0.7818608E-02  0.8533497E-01
         -2   -1    0    0    0  501 -0.00000000000E+00  0.00000000000E+00  0.92250883523E+03  0.92250883524E+03  0.25500000000E-02 0.  1.
          2   -1    0    0  501    0  0.00000000000E+00 -0.00000000000E+00 -0.12692496493E+04  0.12692496493E+04  0.25500000000E-02 0. -1.
    -200001    2    1    2    0    0 -0.47135425599E+03  0.74508452852E+03 -0.31179750957E+03  0.11173675762E+04  0.61152826928E+03 0.  0.
   -5000001    2    3    3    0    0  0.15256245609E+02 -0.39823763321E+02 -0.14070655788E+03  0.17272800441E+03  0.90652870459E+02 0.  0.
     200001    1    1    2    0    0  0.47135425599E+03 -0.74508452852E+03 -0.34943304464E+02  0.10743909083E+04  0.61300000000E+03 0.  1.
         13    1    4    4    0    0 -0.11643173527E+02 -0.46427665824E+02 -0.34672520970E+02  0.59104031318E+02  0.10566000000E+00 0.  1.
    -200003    1    4    4    0    0  0.26899419135E+02  0.66039025030E+01 -0.10603403691E+03  0.11362397309E+03  0.30000000000E+02 0.  1.
    -200000    1    3    3    0    0 -0.48661050160E+03  0.78490829184E+03 -0.17109095169E+03  0.94463957181E+03  0.10100000000E+03 0. -1.
<mgrwt>
<rscale>  0 0.21641571E+04</rscale>
<asrwt>0</asrwt>
<pdfrwt beam="1">  1        2 0.18132138E+00 0.21641571E+04</pdfrwt>
<pdfrwt beam="2">  1       -2 0.13178698E+00 0.21641571E+04</pdfrwt>
<totfact> 0.75463757E+00</totfact>
</mgrwt>
</event>
<event>
 8    2  0.4480234E-052  0.1405086E+04  0.7818608E-02  0.8950145E-01
         -2   -1    0    0    0  501 -0.00000000000E+00  0.00000000000E+00  0.33495523328E+03  0.33495523329E+03  0.25500000000E-02 0. -1.
          2   -1    0    0  501    0  0.00000000000E+00 -0.00000000000E+00 -0.14735296948E+04  0.14735296948E+04  0.25500000000E-02 0.  1.
    -200001    2    1    2    0    0  0.15624136756E+03 -0.48478813172E+02 -0.17999280811E+03  0.65895922307E+03  0.61242818880E+03 0.  0.
   -5000001    2    3    3    0    0 -0.18125004594E+03  0.13095389453E+03 -0.48855763092E+02  0.24243254283E+03  0.79913394296E+02 0.  0.
     200001    1    1    2    0    0 -0.15624136756E+03  0.48478813172E+02 -0.95858165346E+03  0.11495257051E+04  0.61300000000E+03 0.  1.
         13    1    4    4    0    0 -0.15943883633E+03  0.95058247679E+02 -0.42479179382E+02  0.19042401326E+03  0.10566000000E+00 0.  1.
    -200003    1    4    4    0    0 -0.21811209610E+02  0.35895646855E+02 -0.63765837099E+01  0.52008529566E+02  0.30000000000E+02 0.  1.
    -200000    1    3    3    0    0  0.33749141350E+03 -0.17943270771E+03 -0.13113704502E+03  0.41652668024E+03  0.10100000000E+03 0. -1.
<mgrwt>
<rscale>  0 0.14050857E+04</rscale>
<asrwt>0</asrwt>
<pdfrwt beam="1">  1        2 0.21050424E+00 0.14050857E+04</pdfrwt>
<pdfrwt beam="2">  1       -2 0.47850748E-01 0.14050857E+04</pdfrwt>
<totfact> 0.60849934E+01</totfact>
</mgrwt>
</event>
<event>
 8    2  0.4480234E-052  0.1433963E+04  0.7818608E-02  0.8929595E-01
         -2   -1    0    0    0  501 -0.00000000000E+00  0.00000000000E+00  0.87179804406E+03  0.87179804407E+03  0.25500000000E-02 0. -1.
          2   -1    0    0  501    0  0.00000000000E+00 -0.00000000000E+00 -0.58965773699E+03  0.58965773700E+03  0.25500000000E-02 0.  1.
    -200001    2    1    2    0    0 -0.13443550003E+02  0.35225437119E+03  0.26217702420E+03  0.75404401715E+03  0.61284722135E+03 0.  0.
   -5000001    2    3    3    0    0 -0.19431372515E+03  0.30179845503E+03 -0.55599118398E+02  0.37136595854E+03  0.77338748084E+02 0.  0.
     200001    1    1    2    0    0  0.13443550003E+02 -0.35225437119E+03  0.19963282870E+02  0.70741176392E+03  0.61300000000E+03 0.  1.
         13    1    4    4    0    0 -0.46076243647E+02  0.86855695231E+02  0.14433981876E+02  0.99374458587E+02  0.10566000000E+00 0.  1.
    -200003    1    4    4    0    0 -0.14823748151E+03  0.21494275980E+03 -0.70033100274E+02  0.27199149995E+03  0.30000000000E+02 0.  1.
    -200000    1    3    3    0    0  0.18087017515E+03  0.50455916167E+02  0.31777614260E+03  0.38267805861E+03  0.10100000000E+03 0. -1.
<mgrwt>
<rscale>  0 0.14339630E+04</rscale>
<asrwt>0</asrwt>
<pdfrwt beam="1">  1        2 0.84236820E-01 0.14339630E+04</pdfrwt>
<pdfrwt beam="2">  1       -2 0.12454258E+00 0.14339630E+04</pdfrwt>
<totfact> 0.26066276E+01</totfact>
</mgrwt>
</event>
<event>
 8    2  0.4480234E-052  0.1347061E+04  0.7818608E-02  0.8993056E-01
         -2   -1    0    0    0  501 -0.00000000000E+00  0.00000000000E+00  0.10124855375E+04  0.10124855375E+04  0.25500000000E-02 0. -1.
          2   -1    0    0  501    0  0.00000000000E+00 -0.00000000000E+00 -0.44804937046E+03  0.44804937046E+03  0.25500000000E-02 0.  1.
    -200001    2    1    2    0    0 -0.11877878129E+03  0.55692326862E+02  0.15409262922E+02  0.62722249619E+03  0.61315624451E+03 0.  0.
   -5000001    2    3    3    0    0 -0.28917232399E+03  0.17289670352E+03 -0.10998209571E+03  0.36512553298E+03  0.87787757752E+02 0.  0.
     200001    1    1    2    0    0  0.11877878129E+03 -0.55692326862E+02  0.54902690408E+03  0.83331241174E+03  0.61300000000E+03 0. -1.
         13    1    4    4    0    0 -0.10135641443E+03  0.54162745747E+02  0.10474820034E+01  0.11492534166E+03  0.10566000000E+00 0.  1.
    -200003    1    4    4    0    0 -0.18781590956E+03  0.11873395778E+03 -0.11102957771E+03  0.25020019133E+03  0.30000000000E+02 0. -1.
    -200000    1    3    3    0    0  0.17039354269E+03 -0.11720437666E+03  0.12539135863E+03  0.26209696320E+03  0.10100000000E+03 0. -1.
<mgrwt>
<rscale>  0 0.13470613E+04</rscale>
<asrwt>0</asrwt>
<pdfrwt beam="1">  1        2 0.64007053E-01 0.13470613E+04</pdfrwt>
<pdfrwt beam="2">  1       -2 0.14464079E+00 0.13470613E+04</pdfrwt>
<totfact> 0.24538179E+01</totfact>
</mgrwt>
</event>
<event>
 8    2  0.4480234E-052  0.1586813E+04  0.7818608E-02  0.8828690E-01
          2   -1    0    0  501    0  0.00000000000E+00  0.00000000000E+00  0.74057963079E+03  0.74057963080E+03  0.25500000000E-02 0.  1.
         -2   -1    0    0    0  501 -0.00000000000E+00 -0.00000000000E+00 -0.85000176226E+03  0.85000176226E+03  0.25500000000E-02 0. -1.
    -200001    2    1    2    0    0  0.26184082612E+03 -0.33260037642E+03 -0.32763084749E+03  0.81432906787E+03  0.61368251559E+03 0.  0.
   -5000001    2    3    3    0    0 -0.16628717503E+03 -0.22771413174E+03 -0.11897372415E+03  0.31629944546E+03  0.79908959356E+02 0.  0.
     200001    1    1    2    0    0 -0.26184082612E+03  0.33260037642E+03  0.21820871602E+03  0.77625232519E+03  0.61300000000E+03 0. -1.
         13    1    4    4    0    0 -0.73347823700E+02 -0.15277108093E+03 -0.59744955710E+02  0.17968966945E+03  0.10566000000E+00 0.  1.
    -200003    1    4    4    0    0 -0.92939351325E+02 -0.74943050811E+02 -0.59228768440E+02  0.13660977601E+03  0.30000000000E+02 0.  1.
    -200000    1    3    3    0    0  0.42812800114E+03 -0.10488624467E+03 -0.20865712334E+03  0.49802962241E+03  0.10100000000E+03 0. -1.
<mgrwt>
<rscale>  0 0.15868131E+04</rscale>
<asrwt>0</asrwt>
<pdfrwt beam="1">  1        2 0.10579709E+00 0.15868131E+04</pdfrwt>
<pdfrwt beam="2">  1       -2 0.12142882E+00 0.15868131E+04</pdfrwt>
<totfact> 0.20806354E+01</totfact>
</mgrwt>
</event>
<event>
 8    2  0.4480234E-052  0.1668498E+04  0.7818608E-02  0.8779538E-01
         -2   -1    0    0    0  501 -0.00000000000E+00  0.00000000000E+00  0.41880292931E+03  0.41880292932E+03  0.25500000000E-02 0. -1.
          2   -1    0    0  501    0  0.00000000000E+00 -0.00000000000E+00 -0.16618112447E+04  0.16618112447E+04  0.25500000000E-02 0.  1.
    -200001    2    1    2    0    0  0.13646763190E+03 -0.50803207411E+03 -0.88207706117E+03  0.11958767140E+04  0.61265093677E+03 0.  0.
   -5000001    2    3    3    0    0 -0.25622625876E+02 -0.17981226182E+03 -0.75102283751E+03  0.79415827230E+03  0.18347504068E+03 0.  0.
     200001    1    1    2    0    0 -0.13646763190E+03  0.50803207411E+03 -0.36093125419E+03  0.88473746001E+03  0.61300000000E+03 0.  1.
         13    1    4    4    0    0 -0.33185553115E+02 -0.18607309466E+03 -0.73469827698E+03  0.75862114844E+03  0.10566000000E+00 0.  1.
    -200003    1    4    4    0    0  0.75629272393E+01  0.62608328388E+01 -0.16324560523E+02  0.35537123864E+02  0.30000000000E+02 0.  1.
    -200000    1    3    3    0    0  0.16209025778E+03 -0.32821981229E+03 -0.13105422366E+03  0.40171844168E+03  0.10100000000E+03 0. -1.
<mgrwt>
<rscale>  0 0.16684980E+04</rscale>
<asrwt>0</asrwt>
<pdfrwt beam="1">  1        2 0.23740160E+00 0.16684980E+04</pdfrwt>
<pdfrwt beam="2">  1       -2 0.59828991E-01 0.16684980E+04</pdfrwt>
<totfact> 0.29915376E+01</totfact>
</mgrwt>
</event>
<event>
 8    2  0.4480234E-052  0.1889022E+04  0.7818608E-02  0.8660340E-01
          2   -1    0    0  501    0  0.00000000000E+00  0.00000000000E+00  0.54670139664E+03  0.54670139664E+03  0.25500000000E-02 0.  1.
         -2   -1    0    0    0  501 -0.00000000000E+00 -0.00000000000E+00 -0.16317887718E+04  0.16317887718E+04  0.25500000000E-02 0. -1.
    -200001    2    1    2    0    0 -0.45684410151E+03 -0.49666677303E+03 -0.25801577017E+03  0.94755521634E+03  0.61311037656E+03 0.  0.
   -5000001    2    3    3    0    0 -0.31794701486E+03 -0.43742119554E+03 -0.41881138303E+03  0.70494716155E+03  0.17064559608E+03 0.  0.
     200001    1    1    2    0    0  0.45684410151E+03  0.49666677303E+03 -0.82707160498E+03  0.12309349521E+04  0.61300000000E+03 0.  1.
         13    1    4    4    0    0 -0.17158390428E+03 -0.35408381984E+03 -0.26070971854E+03  0.47200207223E+03  0.10566000000E+00 0.  1.
    -200003    1    4    4    0    0 -0.14636311058E+03 -0.83337375698E+02 -0.15810166450E+03  0.23294508933E+03  0.30000000000E+02 0.  1.
    -200000    1    3    3    0    0 -0.13889708665E+03 -0.59245577493E+02  0.16079561286E+03  0.24260805479E+03  0.10100000000E+03 0.  1.
<mgrwt>
<rscale>  0 0.18890222E+04</rscale>
<asrwt>0</asrwt>
<pdfrwt beam="1">  1        2 0.78100201E-01 0.18890222E+04</pdfrwt>
<pdfrwt beam="2">  1       -2 0.23311268E+00 0.18890222E+04</pdfrwt>
<totfact> 0.46521821E+00</totfact>
</mgrwt>
</event>
<event>
 8    2  0.4480234E-052  0.1756171E+04  0.7818608E-02  0.8729961E-01
         -2   -1    0    0    0  501 -0.00000000000E+00  0.00000000000E+00  0.55896371838E+03  0.55896371839E+03  0.25500000000E-02 0. -1.
          2   -1    0    0  501    0  0.00000000000E+00 -0.00000000000E+00 -0.13793994728E+04  0.13793994728E+04  0.25500000000E-02 0.  1.
    -200001    2    1    2    0    0  0.10891111873E+03  0.35505861662E+03 -0.96904256790E+03  0.12063924008E+04  0.61515109797E+03 0.  0.
   -5000001    2    3    3    0    0  0.17553813539E+03  0.31278518762E+03 -0.21163791257E+03  0.43821988499E+03  0.13637393810E+03 0.  0.
     200001    1    1    2    0    0 -0.10891111873E+03 -0.35505861662E+03  0.14860681344E+03  0.73197079042E+03  0.61300000000E+03 0. -1.
         13    1    4    4    0    0  0.16786650343E+03  0.17813204502E+03 -0.14868115851E+03  0.28638485731E+03  0.10566000000E+00 0.  1.
    -200003    1    4    4    0    0  0.76716319669E+01  0.13465314261E+03 -0.62956754053E+02  0.15183502768E+03  0.30000000000E+02 0.  1.
    -200000    1    3    3    0    0 -0.66627016661E+02  0.42273429000E+02 -0.75740465534E+03  0.76817251583E+03  0.10100000000E+03 0.  1.
<mgrwt>
<rscale>  0 0.17561711E+04</rscale>
<asrwt>0</asrwt>
<pdfrwt beam="1">  1        2 0.19705707E+00 0.17561711E+04</pdfrwt>
<pdfrwt beam="2">  1       -2 0.79851960E-01 0.17561711E+04</pdfrwt>
<totfact> 0.22391906E+01</totfact>
</mgrwt>
</event>
<event>
 8    2  0.4480234E-052  0.2046992E+04  0.7818608E-02  0.8584960E-01
          2   -1    0    0  501    0  0.00000000000E+00  0.00000000000E+00  0.19884209906E+04  0.19884209906E+04  0.25500000000E-02 0.  1.
         -2   -1    0    0    0  501 -0.00000000000E+00 -0.00000000000E+00 -0.52682221257E+03  0.52682221258E+03  0.25500000000E-02 0. -1.
    -200001    2    1    2    0    0  0.48413808789E+03 -0.56492678876E+03  0.11532606066E+04  0.15031298732E+04  0.61307211981E+03 0.  0.
   -5000001    2    3    3    0    0  0.49157352406E+03 -0.31951976309E+03  0.10740923057E+04  0.12260946519E+04  0.76788057227E+02 0.  0.
     200001    1    1    2    0    0 -0.48413808789E+03  0.56492678876E+03  0.30833817141E+03  0.10121133300E+04  0.61300000000E+03 0. -1.
         13    1    4    4    0    0  0.15547050666E+03 -0.13506654014E+03  0.40522087684E+03  0.45455254801E+03  0.10566000000E+00 0.  1.
    -200003    1    4    4    0    0  0.33610301741E+03 -0.18445322295E+03  0.66887142883E+03  0.77154210389E+03  0.30000000000E+02 0.  1.
    -200000    1    3    3    0    0 -0.74354361784E+01 -0.24540702566E+03  0.79168300927E+02  0.27703522128E+03  0.10100000000E+03 0. -1.
<mgrwt>
<rscale>  0 0.20469923E+04</rscale>
<asrwt>0</asrwt>
<pdfrwt beam="1">  1        2 0.28406013E+00 0.20469923E+04</pdfrwt>
<pdfrwt beam="2">  1       -2 0.75260318E-01 0.20469923E+04</pdfrwt>
<totfact> 0.11976101E+01</totfact>
</mgrwt>
</event>
<event>
 8    2  0.4480234E-052  0.1779627E+04  0.7818608E-02  0.8717209E-01
         -2   -1    0    0    0  501 -0.00000000000E+00  0.00000000000E+00  0.25320336690E+03  0.25320336691E+03  0.25500000000E-02 0. -1.
          2   -1    0    0  501    0  0.00000000000E+00 -0.00000000000E+00 -0.31270058510E+04  0.31270058510E+04  0.25500000000E-02 0.  1.
    -200001    2    1    2    0    0 -0.93396323402E+00 -0.48964762298E+03 -0.64111607864E+03  0.10136899908E+04  0.61382563017E+03 0.  0.
   -5000001    2    3    3    0    0  0.11892749936E+02  0.11347570688E+03 -0.25889301835E+03  0.29242877366E+03  0.73964986039E+02 0.  0.
     200001    1    1    2    0    0  0.93396323402E+00  0.48964762298E+03 -0.22326864054E+04  0.23665192270E+04  0.61300000000E+03 0.  1.
         13    1    4    4    0    0 -0.88003650436E+01  0.57319155463E+02 -0.17919295560E+03  0.18834292795E+03  0.10566000000E+00 0.  1.
    -200003    1    4    4    0    0  0.20693114979E+02  0.56156551413E+02 -0.79700062749E+02  0.10408584571E+03  0.30000000000E+02 0.  1.
    -200000    1    3    3    0    0 -0.12826713170E+02 -0.60312332986E+03 -0.38222306030E+03  0.72126121718E+03  0.10100000000E+03 0. -1.
<mgrwt>
<rscale>  0 0.17796274E+04</rscale>
<asrwt>0</asrwt>
<pdfrwt beam="1">  1        2 0.44671510E+00 0.17796274E+04</pdfrwt>
<pdfrwt beam="2">  1       -2 0.36171911E-01 0.17796274E+04</pdfrwt>
<totfact> 0.13666048E+01</totfact>
</mgrwt>
</event>
<event>
 8    2  0.4480234E-052  0.2215359E+04  0.7818608E-02  0.8512062E-01
         -2   -1    0    0    0  501 -0.00000000000E+00  0.00000000000E+00  0.58701437672E+03  0.58701437673E+03  0.25500000000E-02 0. -1.
          2   -1    0    0  501    0  0.00000000000E+00 -0.00000000000E+00 -0.20901600230E+04  0.20901600230E+04  0.25500000000E-02 0.  1.
    -200001    2    1    2    0    0  0.37696578452E+01 -0.29771825492E+03 -0.18061463762E+04  0.19313669098E+04  0.61592453952E+03 0.  0.
   -5000001    2    3    3    0    0  0.20793308095E+03 -0.35164117897E+03 -0.91429255433E+03  0.10093069201E+04  0.12602340698E+03 0.  0.
     200001    1    1    2    0    0 -0.37696578452E+01  0.29771825492E+03  0.30300072996E+03  0.74580748990E+03  0.61300000000E+03 0. -1.
         13    1    4    4    0    0 -0.22027083312E+01  0.25919118191E+01  0.22137095650E+01  0.40597542960E+01  0.10566000000E+00 0.  1.
    -200003    1    4    4    0    0  0.21013578928E+03 -0.35423309079E+03 -0.91650626389E+03  0.10052471658E+04  0.30000000000E+02 0.  1.
    -200000    1    3    3    0    0 -0.20416342310E+03  0.53922924050E+02 -0.89185382189E+03  0.92205998974E+03  0.10100000000E+03 0.  1.
<mgrwt>
<rscale>  0 0.22153591E+04</rscale>
<asrwt>0</asrwt>
<pdfrwt beam="1">  1        2 0.29859428E+00 0.22153591E+04</pdfrwt>
<pdfrwt beam="2">  1       -2 0.83859198E-01 0.22153591E+04</pdfrwt>
<totfact> 0.82140115E+00</totfact>
</mgrwt>
</event>
<event>
 8    2  0.4480234E-052  0.1468199E+04  0.7818608E-02  0.8905880E-01
         -2   -1    0    0    0  501 -0.00000000000E+00  0.00000000000E+00  0.28709638289E+03  0.28709638290E+03  0.25500000000E-02 0. -1.
          2   -1    0    0  501    0  0.00000000000E+00 -0.00000000000E+00 -0.18770763108E+04  0.18770763108E+04  0.25500000000E-02 0.  1.
    -200001    2    1    2    0    0  0.19863351295E+03  0.25819576299E+03 -0.11492631257E+04  0.13419071501E+04  0.61138264841E+03 0.  0.
   -5000001    2    3    3    0    0 -0.99328830350E+02  0.24866779721E+03 -0.27426413649E+03  0.41201652676E+03  0.15111224919E+03 0.  0.
     200001    1    1    2    0    0 -0.19863351295E+03 -0.25819576299E+03 -0.44071680218E+03  0.82226554361E+03  0.61300000000E+03 0. -1.
         13    1    4    4    0    0 -0.12704071942E+03  0.16710482645E+03 -0.22736947260E+03  0.30945154006E+03  0.10566000000E+00 0.  1.
    -200003    1    4    4    0    0  0.27711889075E+02  0.81562970760E+02 -0.46894663888E+02  0.10256498670E+03  0.30000000000E+02 0.  1.
    -200000    1    3    3    0    0  0.29796234330E+03  0.95279657835E+01 -0.87499898922E+03  0.92989062329E+03  0.10100000000E+03 0.  1.
<mgrwt>
<rscale>  0 0.14681987E+04</rscale>
<asrwt>0</asrwt>
<pdfrwt beam="1">  1        2 0.26815375E+00 0.14681987E+04</pdfrwt>
<pdfrwt beam="2">  1       -2 0.41013770E-01 0.14681987E+04</pdfrwt>
<totfact> 0.50684844E+01</totfact>
</mgrwt>
</event>
<event>
 8    2  0.4480234E-052  0.1930130E+04  0.7818608E-02  0.8640002E-01
         -2   -1    0    0    0  501 -0.00000000000E+00  0.00000000000E+00  0.20280820290E+04  0.20280820290E+04  0.25500000000E-02 0.  1.
          2   -1    0    0  501    0  0.00000000000E+00 -0.00000000000E+00 -0.45922729828E+03  0.45922729829E+03  0.25500000000E-02 0. -1.
    -200001    2    1    2    0    0 -0.61302993365E+03  0.30676124636E+03  0.11618213688E+04  0.14816486890E+04  0.61281790335E+03 0.  0.
   -5000001    2    3    3    0    0 -0.11882351304E+03  0.22774492208E+03  0.82944522911E+03  0.87242092866E+03  0.84570159621E+02 0.  0.
     200001    1    1    2    0    0  0.61302993365E+03 -0.30676124636E+03  0.40703336197E+03  0.10056606384E+04  0.61300000000E+03 0. -1.
         13    1    4    4    0    0 -0.60046180349E+02  0.12731040432E+03  0.55949302539E+03  0.57692801930E+03  0.10566000000E+00 0.  1.
    -200003    1    4    4    0    0 -0.58777332695E+02  0.10043451776E+03  0.26995220371E+03  0.29549290937E+03  0.30000000000E+02 0.  1.
    -200000    1    3    3    0    0 -0.49420642061E+03  0.79016324282E+02  0.33237613968E+03  0.60922776029E+03  0.10100000000E+03 0.  1.
<mgrwt>
<rscale>  0 0.19301302E+04</rscale>
<asrwt>0</asrwt>
<pdfrwt beam="1">  1        2 0.65603899E-01 0.19301302E+04</pdfrwt>
<pdfrwt beam="2">  1       -2 0.28972601E+00 0.19301302E+04</pdfrwt>
<totfact> 0.25496968E+00</totfact>
</mgrwt>
</event>
<event>
 8    2  0.4480234E-052  0.1367040E+04  0.7818608E-02  0.8978028E-01
         -2   -1    0    0    0  501 -0.00000000000E+00  0.00000000000E+00  0.13273082713E+04  0.13273082713E+04  0.25500000000E-02 0. -1.
          2   -1    0    0  501    0  0.00000000000E+00 -0.00000000000E+00 -0.35199047054E+03  0.35199047055E+03  0.25500000000E-02 0.  1.
    -200001    2    1    2    0    0 -0.49156628204E+02 -0.10640856233E+03  0.83065712297E+03  0.10386468333E+04  0.61241883725E+03 0.  0.
   -5000001    2    3    3    0    0 -0.11682658860E+03  0.19097847928E+03  0.12881373370E+03  0.26676379872E+03  0.66698687905E+02 0.  0.
     200001    1    1    2    0    0  0.49156628204E+02  0.10640856233E+03  0.14466067782E+03  0.64065190856E+03  0.61300000000E+03 0.  1.
         13    1    4    4    0    0 -0.79071241930E+02  0.12024461633E+03  0.56165096983E+02  0.15448481589E+03  0.10566000000E+00 0.  1.
    -200003    1    4    4    0    0 -0.37755346670E+02  0.70733862946E+02  0.72648636715E+02  0.11227898283E+03  0.30000000000E+02 0. -1.
    -200000    1    3    3    0    0  0.67669960396E+02 -0.29738704160E+03  0.70184338927E+03  0.77188303461E+03  0.10100000000E+03 0. -1.
<mgrwt>
<rscale>  0 0.13670404E+04</rscale>
<asrwt>0</asrwt>
<pdfrwt beam="1">  1        2 0.50284353E-01 0.13670404E+04</pdfrwt>
<pdfrwt beam="2">  1       -2 0.18961547E+00 0.13670404E+04</pdfrwt>
<totfact> 0.15188813E+01</totfact>
</mgrwt>
</event>
<event>
 8    2  0.4480234E-052  0.1326210E+04  0.7818608E-02  0.9009035E-01
         -2   -1    0    0    0  501 -0.00000000000E+00  0.00000000000E+00  0.40216940392E+03  0.40216940393E+03  0.25500000000E-02 0. -1.
          2   -1    0    0  501    0  0.00000000000E+00 -0.00000000000E+00 -0.10933408084E+04  0.10933408084E+04  0.25500000000E-02 0.  1.
    -200001    2    1    2    0    0 -0.11564919356E+03  0.18294403210E+03 -0.19961763772E+03  0.68050262928E+03  0.61350906458E+03 0.  0.
   -5000001    2    3    3    0    0 -0.25889636657E+03  0.31376261941E+03 -0.20414505842E+03  0.46174533705E+03  0.77841129527E+02 0.  0.
     200001    1    1    2    0    0  0.11564919356E+03 -0.18294403210E+03 -0.49155376680E+03  0.81500758310E+03  0.61300000000E+03 0.  1.
         13    1    4    4    0    0 -0.13092140137E+03  0.20550553392E+03 -0.12746550012E+03  0.27499164113E+03  0.10566000000E+00 0.  1.
    -200003    1    4    4    0    0 -0.12797496520E+03  0.10825708549E+03 -0.76679558302E+02  0.18675369592E+03  0.30000000000E+02 0. -1.
    -200000    1    3    3    0    0  0.14324717302E+03 -0.13081858731E+03  0.45274207053E+01  0.21875729223E+03  0.10100000000E+03 0. -1.
<mgrwt>
<rscale>  0 0.13262100E+04</rscale>
<asrwt>0</asrwt>
<pdfrwt beam="1">  1        2 0.15619154E+00 0.13262100E+04</pdfrwt>
<pdfrwt beam="2">  1       -2 0.57452772E-01 0.13262100E+04</pdfrwt>
<totfact> 0.68518529E+01</totfact>
</mgrwt>
</event>
<event>
 8    2  0.4480234E-052  0.1620934E+04  0.7818608E-02  0.8807790E-01
         -2   -1    0    0    0  501 -0.00000000000E+00  0.00000000000E+00  0.74525432009E+03  0.74525432010E+03  0.25500000000E-02 0. -1.
          2   -1    0    0  501    0  0.00000000000E+00 -0.00000000000E+00 -0.88138583356E+03  0.88138583357E+03  0.25500000000E-02 0.  1.
    -200001    2    1    2    0    0  0.30299041350E+03  0.43198055458E+03 -0.25471108713E+02  0.81029150548E+03  0.61442099270E+03 0.  0.
   -5000001    2    3    3    0    0  0.41285537718E+03  0.14746596079E+03 -0.14073096334E+03  0.46896365955E+03  0.89027736544E+02 0.  0.
     200001    1    1    2    0    0 -0.30299041350E+03 -0.43198055458E+03 -0.11066040476E+03  0.81634864818E+03  0.61300000000E+03 0.  1.
         13    1    4    4    0    0  0.33982291411E+03  0.97038209410E+02 -0.10469550112E+03  0.36858809824E+03  0.10566000000E+00 0.  1.
    -200003    1    4    4    0    0  0.73032463067E+02  0.50427751383E+02 -0.36035462225E+02  0.10037556131E+03  0.30000000000E+02 0. -1.
    -200000    1    3    3    0    0 -0.10986496368E+03  0.28451459378E+03  0.11525985463E+03  0.34132784594E+03  0.10100000000E+03 0. -1.
<mgrwt>
<rscale>  0 0.16209338E+04</rscale>
<asrwt>0</asrwt>
<pdfrwt beam="1">  1        2 0.12591226E+00 0.16209338E+04</pdfrwt>
<pdfrwt beam="2">  1       -2 0.10646490E+00 0.16209338E+04</pdfrwt>
<totfact> 0.22827490E+01</totfact>
</mgrwt>
</event>
<event>
 8    2  0.4480234E-052  0.1513412E+04  0.7818608E-02  0.8875583E-01
          2   -1    0    0  501    0  0.00000000000E+00  0.00000000000E+00  0.21358853526E+04  0.21358853526E+04  0.25500000000E-02 0.  1.
         -2   -1    0    0    0  501 -0.00000000000E+00 -0.00000000000E+00 -0.26808736237E+03  0.26808736239E+03  0.25500000000E-02 0. -1.
    -200001    2    1    2    0    0  0.84261090388E+02  0.32926865880E+03  0.48049307077E+03  0.84965559144E+03  0.61279952022E+03 0.  0.
   -5000001    2    3    3    0    0  0.59986201157E+02  0.40559693889E+03  0.11062234347E+03  0.45796613345E+03  0.17143061380E+03 0.  0.
     200001    1    1    2    0    0 -0.84261090388E+02 -0.32926865880E+03  0.13873049195E+04  0.15543171236E+04  0.61300000000E+03 0.  1.
         13    1    4    4    0    0 -0.76634086731E+01  0.20796910557E+03 -0.21138031390E+02  0.20918103222E+03  0.10566000000E+00 0.  1.
    -200003    1    4    4    0    0  0.67649609830E+02  0.19762783332E+03  0.13176037486E+03  0.24878510123E+03  0.30000000000E+02 0.  1.
    -200000    1    3    3    0    0  0.24274889231E+02 -0.76328280089E+02  0.36987072730E+03  0.39168945799E+03  0.10100000000E+03 0.  1.
<mgrwt>
<rscale>  0 0.15134119E+04</rscale>
<asrwt>0</asrwt>
<pdfrwt beam="1">  1        2 0.30512649E+00 0.15134119E+04</pdfrwt>
<pdfrwt beam="2">  1       -2 0.38298193E-01 0.15134119E+04</pdfrwt>
<totfact> 0.42495637E+01</totfact>
</mgrwt>
</event>
<event>
 8    2  0.4480234E-052  0.1883893E+04  0.7818608E-02  0.8662916E-01
          2   -1    0    0  501    0  0.00000000000E+00  0.00000000000E+00  0.13883403189E+04  0.13883403189E+04  0.25500000000E-02 0.  1.
         -2   -1    0    0    0  501 -0.00000000000E+00 -0.00000000000E+00 -0.63908185219E+03  0.63908185220E+03  0.25500000000E-02 0. -1.
    -200001    2    1    2    0    0 -0.20113292678E+03  0.26180442090E+03  0.10572359843E+04  0.12660975620E+04  0.61339962588E+03 0.  0.
   -5000001    2    3    3    0    0 -0.60729588122E+02  0.32889880202E+03  0.21901921112E+03  0.40759705979E+03  0.79394228200E+02 0.  0.
     200001    1    1    2    0    0  0.20113292678E+03 -0.26180442090E+03 -0.30797751759E+03  0.76132460907E+03  0.61300000000E+03 0. -1.
         13    1    4    4    0    0 -0.40745300857E+02  0.98721995749E+02  0.41046020449E+02  0.11441590338E+03  0.10566000000E+00 0.  1.
    -200003    1    4    4    0    0 -0.19984287265E+02  0.23017680627E+03  0.17797319067E+03  0.29318115641E+03  0.30000000000E+02 0.  1.
    -200000    1    3    3    0    0 -0.14040333866E+03 -0.67094381118E+02  0.83821677319E+03  0.85850050224E+03  0.10100000000E+03 0.  1.
<mgrwt>
<rscale>  0 0.18838929E+04</rscale>
<asrwt>0</asrwt>
<pdfrwt beam="1">  1        2 0.19833433E+00 0.18838929E+04</pdfrwt>
<pdfrwt beam="2">  1       -2 0.91297409E-01 0.18838929E+04</pdfrwt>
<totfact> 0.16154540E+01</totfact>
</mgrwt>
</event>
<event>
 8    2  0.4480234E-052  0.1318623E+04  0.7818608E-02  0.9014926E-01
         -2   -1    0    0    0  501 -0.00000000000E+00  0.00000000000E+00  0.21018451980E+03  0.21018451981E+03  0.25500000000E-02 0. -1.
          2   -1    0    0  501    0  0.00000000000E+00 -0.00000000000E+00 -0.20681415755E+04  0.20681415755E+04  0.25500000000E-02 0.  1.
    -200001    2    1    2    0    0  0.24153639591E+03  0.37958314151E+02 -0.91900119504E+03  0.11306380835E+04  0.61155426188E+03 0.  0.
   -5000001    2    3    3    0    0  0.37689955614E+03 -0.90742588168E+02 -0.41418005310E+03  0.58297715487E+03  0.13427491942E+03 0.  0.
     200001    1    1    2    0    0 -0.24153639591E+03 -0.37958314151E+02 -0.93895586065E+03  0.11476880118E+04  0.61300000000E+03 0. -1.
         13    1    4    4    0    0  0.90283068937E+02  0.29627215561E+02 -0.68674746958E+02  0.11723922753E+03  0.10566000000E+00 0.  1.
    -200003    1    4    4    0    0  0.28661648721E+03 -0.12036980373E+03 -0.34550530615E+03  0.46573792734E+03  0.30000000000E+02 0.  1.
    -200000    1    3    3    0    0 -0.13536316023E+03  0.12870090232E+03 -0.50482114193E+03  0.54766092863E+03  0.10100000000E+03 0.  1.
<mgrwt>
<rscale>  0 0.13186225E+04</rscale>
<asrwt>0</asrwt>
<pdfrwt beam="1">  1        2 0.29544878E+00 0.13186225E+04</pdfrwt>
<pdfrwt beam="2">  1       -2 0.30026361E-01 0.13186225E+04</pdfrwt>
<totfact> 0.74226557E+01</totfact>
</mgrwt>
</event>
<event>
 8    2  0.4480234E-052  0.1597617E+04  0.7818608E-02  0.8822013E-01
         -2   -1    0    0    0  501 -0.00000000000E+00  0.00000000000E+00  0.23587357583E+03  0.23587357584E+03  0.25500000000E-02 0. -1.
          2   -1    0    0  501    0  0.00000000000E+00 -0.00000000000E+00 -0.27052422106E+04  0.27052422106E+04  0.25500000000E-02 0.  1.
    -200001    2    1    2    0    0  0.77454269592E+02 -0.50114825260E+03 -0.11016529368E+04  0.13588503329E+04  0.61293254043E+03 0.  0.
   -5000001    2    3    3    0    0  0.25475145806E+03 -0.51427986088E+03 -0.75350942031E+03  0.95510333261E+03  0.12273487190E+03 0.  0.
     200001    1    1    2    0    0 -0.77454269592E+02  0.50114825260E+03 -0.13677156980E+04  0.15822654535E+04  0.61300000000E+03 0.  1.
         13    1    4    4    0    0  0.19721731186E+02 -0.12088880413E+03 -0.11066458192E+03  0.16507486332E+03  0.10566000000E+00 0.  1.
    -200003    1    4    4    0    0  0.23502972687E+03 -0.39339105676E+03 -0.64284483839E+03  0.79002846930E+03  0.30000000000E+02 0.  1.
    -200000    1    3    3    0    0 -0.17729718846E+03  0.13131608283E+02 -0.34814351646E+03  0.40374700027E+03  0.10100000000E+03 0.  1.
<mgrwt>
<rscale>  0 0.15976172E+04</rscale>
<asrwt>0</asrwt>
<pdfrwt beam="1">  1        2 0.38646316E+00 0.15976172E+04</pdfrwt>
<pdfrwt beam="2">  1       -2 0.33696227E-01 0.15976172E+04</pdfrwt>
<totfact> 0.27166426E+01</totfact>
</mgrwt>
</event>
<event>
 8    2  0.4480234E-052  0.1514236E+04  0.7818608E-02  0.8875041E-01
          2   -1    0    0  501    0  0.00000000000E+00  0.00000000000E+00  0.29121418274E+04  0.29121418274E+04  0.25500000000E-02 0.  1.
         -2   -1    0    0    0  501 -0.00000000000E+00 -0.00000000000E+00 -0.19684054197E+03  0.19684054199E+03  0.25500000000E-02 0. -1.
    -200001    2    1    2    0    0 -0.54246345410E+02  0.13042780969E+03  0.49197853505E+03  0.79837917284E+03  0.61270902159E+03 0.  0.
   -5000001    2    3    3    0    0  0.14351139167E+03  0.10491886819E+03  0.53328500644E+03  0.57107749390E+03  0.10066338712E+03 0.  0.
     200001    1    1    2    0    0  0.54246345410E+02 -0.13042780969E+03  0.22233227504E+04  0.23106031966E+04  0.61300000000E+03 0.  1.
         13    1    4    4    0    0 -0.11066925925E+02  0.20110962426E+02  0.94388975432E+02  0.97140195111E+02  0.10566000000E+00 0.  1.
    -200003    1    4    4    0    0  0.15457831759E+03  0.84807905764E+02  0.43889603100E+03  0.47393729879E+03  0.30000000000E+02 0.  1.
    -200000    1    3    3    0    0 -0.19775773708E+03  0.25508941505E+02 -0.41306471389E+02  0.22730167894E+03  0.10100000000E+03 0. -1.
<mgrwt>
<rscale>  0 0.15142359E+04</rscale>
<asrwt>0</asrwt>
<pdfrwt beam="1">  1        2 0.41602024E+00 0.15142359E+04</pdfrwt>
<pdfrwt beam="2">  1       -2 0.28120079E-01 0.15142359E+04</pdfrwt>
<totfact> 0.29635329E+01</totfact>
</mgrwt>
</event>
<event>
 8    2  0.4480234E-052  0.1601328E+04  0.7818608E-02  0.8819732E-01
         -2   -1    0    0    0  501 -0.00000000000E+00  0.00000000000E+00  0.11576816171E+04  0.11576816171E+04  0.25500000000E-02 0. -1.
          2   -1    0    0  501    0  0.00000000000E+00 -0.00000000000E+00 -0.55374727876E+03  0.55374727876E+03  0.25500000000E-02 0.  1.
    -200001    2    1    2    0    0 -0.35692546766E+03 -0.35652416189E+03  0.19142166651E+03  0.81675522806E+03  0.61314075111E+03 0.  0.
   -5000001    2    3    3    0    0 -0.25269221261E+03 -0.51278226342E+03  0.10904668719E+03  0.58813370027E+03  0.84917992264E+02 0.  0.
     200001    1    1    2    0    0  0.35692546766E+03  0.35652416189E+03  0.41251267187E+03  0.89467366784E+03  0.61300000000E+03 0. -1.
         13    1    4    4    0    0 -0.12925135488E+02 -0.32723806940E+01 -0.17486369254E+01  0.13447546168E+02  0.10566000000E+00 0.  1.
    -200003    1    4    4    0    0 -0.23976707712E+03 -0.50950988273E+03  0.11079532412E+03  0.57468615410E+03  0.30000000000E+02 0.  1.
    -200000    1    3    3    0    0 -0.10423325505E+03  0.15625810153E+03  0.82374979316E+02  0.22862152779E+03  0.10100000000E+03 0. -1.
<mgrwt>
<rscale>  0 0.16013283E+04</rscale>
<asrwt>0</asrwt>
<pdfrwt beam="1">  1        2 0.79106753E-01 0.16013283E+04</pdfrwt>
<pdfrwt beam="2">  1       -2 0.16538309E+00 0.16013283E+04</pdfrwt>
<totfact> 0.13175846E+01</totfact>
</mgrwt>
</event>
<event>
 8    2  0.4480234E-052  0.1511607E+04  0.7818608E-02  0.8876771E-01
          2   -1    0    0  501    0  0.00000000000E+00  0.00000000000E+00  0.26816112761E+04  0.26816112761E+04  0.25500000000E-02 0.  1.
         -2   -1    0    0    0  501 -0.00000000000E+00 -0.00000000000E+00 -0.21302064315E+03  0.21302064316E+03  0.25500000000E-02 0. -1.
    -200001    2    1    2    0    0  0.42635838372E+03  0.90483564871E+02  0.13852551496E+04  0.15757863952E+04  0.61172067719E+03 0.  0.
   -5000001    2    3    3    0    0 -0.23232109919E+02  0.14979752993E+03  0.90476553150E+02  0.20017657688E+03  0.94369615640E+02 0.  0.
     200001    1    1    2    0    0 -0.42635838372E+03 -0.90483564871E+02  0.10833354834E+04  0.13188455241E+04  0.61300000000E+03 0. -1.
         13    1    4    4    0    0 -0.36514560662E+01  0.13963697749E+03  0.59868239273E+02  0.15197379989E+03  0.10566000000E+00 0.  1.
    -200003    1    4    4    0    0 -0.19580653853E+02  0.10160552438E+02  0.30608313877E+02  0.48202776990E+02  0.30000000000E+02 0.  1.
    -200000    1    3    3    0    0  0.44959049364E+03 -0.59313965059E+02  0.12947785964E+04  0.13756098183E+04  0.10100000000E+03 0.  1.
<mgrwt>
<rscale>  0 0.15116065E+04</rscale>
<asrwt>0</asrwt>
<pdfrwt beam="1">  1        2 0.38308725E+00 0.15116065E+04</pdfrwt>
<pdfrwt beam="2">  1       -2 0.30431526E-01 0.15116065E+04</pdfrwt>
<totfact> 0.34132755E+01</totfact>
</mgrwt>
</event>
<event>
 8    2  0.4480234E-052  0.1993447E+04  0.7818608E-02  0.8609691E-01
          2   -1    0    0  501    0  0.00000000000E+00  0.00000000000E+00  0.43275470299E+04  0.43275470299E+04  0.25500000000E-02 0.  1.
         -2   -1    0    0    0  501 -0.00000000000E+00 -0.00000000000E+00 -0.22956591675E+03  0.22956591676E+03  0.25500000000E-02 0. -1.
    -200001    2    1    2    0    0 -0.53950276103E+03  0.17377632850E+03  0.32930810789E+04  0.33974170785E+04  0.61383904373E+03 0.  0.
   -5000001    2    3    3    0    0 -0.82432472324E+02 -0.18845023374E+03  0.11624584159E+04  0.11861108438E+04  0.11506851082E+03 0.  0.
     200001    1    1    2    0    0  0.53950276103E+03 -0.17377632850E+03  0.80490003430E+03  0.11596958682E+04  0.61300000000E+03 0. -1.
         13    1    4    4    0    0 -0.16817025504E+02  0.73188882007E+01  0.22349910491E+03  0.22425039472E+03  0.10566000000E+00 0.  1.
    -200003    1    4    4    0    0 -0.65615446820E+02 -0.19576912194E+03  0.93895931095E+03  0.96186044912E+03  0.30000000000E+02 0.  1.
    -200000    1    3    3    0    0 -0.45707028870E+03  0.36222656225E+03  0.21306226630E+04  0.22113062346E+04  0.10100000000E+03 0. -1.
<mgrwt>
<rscale>  0 0.19934466E+04</rscale>
<asrwt>0</asrwt>
<pdfrwt beam="1">  1        2 0.61822096E+00 0.19934466E+04</pdfrwt>
<pdfrwt beam="2">  1       -2 0.32795133E-01 0.19934466E+04</pdfrwt>
<totfact> 0.27000923E+00</totfact>
</mgrwt>
</event>
<event>
 8    2  0.4480234E-052  0.1734963E+04  0.7818608E-02  0.8741671E-01
         -2   -1    0    0    0  501 -0.00000000000E+00  0.00000000000E+00  0.40852669135E+03  0.40852669136E+03  0.25500000000E-02 0. -1.
          2   -1    0    0  501    0  0.00000000000E+00 -0.00000000000E+00 -0.18420438605E+04  0.18420438605E+04  0.25500000000E-02 0.  1.
    -200001    2    1    2    0    0  0.43905430541E+03  0.26042228787E+02 -0.16144874928E+03  0.77159322086E+03  0.61306077925E+03 0.  0.
   -5000001    2    3    3    0    0  0.30887924353E+03  0.17064370709E+02  0.19683259531E+03  0.37714085295E+03  0.88286876467E+02 0.  0.
     200001    1    1    2    0    0 -0.43905430541E+03 -0.26042228787E+02 -0.12720684199E+04  0.14789773310E+04  0.61300000000E+03 0.  1.
         13    1    4    4    0    0  0.25044835622E+03 -0.34673563111E+01  0.13454637370E+03  0.28432224594E+03  0.10566000000E+00 0.  1.
    -200003    1    4    4    0    0  0.58430887314E+02  0.20531727020E+02  0.62286221606E+02  0.92818607018E+02  0.30000000000E+02 0. -1.
    -200000    1    3    3    0    0  0.13017506187E+03  0.89778580773E+01 -0.35828134458E+03  0.39445236791E+03  0.10100000000E+03 0.  1.
<mgrwt>
<rscale>  0 0.17349629E+04</rscale>
<asrwt>0</asrwt>
<pdfrwt beam="1">  1        2 0.26314912E+00 0.17349629E+04</pdfrwt>
<pdfrwt beam="2">  1       -2 0.58360957E-01 0.17349629E+04</pdfrwt>
<totfact> 0.25285458E+01</totfact>
</mgrwt>
</event>
<event>
 8    2  0.4480234E-052  0.1414332E+04  0.7818608E-02  0.8943509E-01
         -2   -1    0    0    0  501 -0.00000000000E+00  0.00000000000E+00  0.42701610337E+03  0.42701610338E+03  0.25500000000E-02 0. -1.
          2   -1    0    0  501    0  0.00000000000E+00 -0.00000000000E+00 -0.11711116568E+04  0.11711116568E+04  0.25500000000E-02 0.  1.
    -200001    2    1    2    0    0 -0.81186628523E+02 -0.27426149272E+03 -0.13383851079E+03  0.68708808315E+03  0.61021852807E+03 0.  0.
   -5000001    2    3    3    0    0  0.73718804222E+02  0.16298668015E+03 -0.10239720804E+02  0.19651768182E+03  0.80716958451E+02 0.  0.
     200001    1    1    2    0    0  0.81186628523E+02  0.27426149272E+03 -0.61025704267E+03  0.91103967706E+03  0.61300000000E+03 0.  1.
         13    1    4    4    0    0  0.36013797119E+02  0.75500618417E+02  0.29960480728E+02  0.88853691728E+02  0.10566000000E+00 0.  1.
    -200003    1    4    4    0    0  0.37705007103E+02  0.87486061737E+02 -0.40200201532E+02  0.10766399009E+03  0.30000000000E+02 0.  1.
    -200000    1    3    3    0    0 -0.15490543274E+03 -0.43724817288E+03 -0.12359878999E+03  0.49057040133E+03  0.10100000000E+03 0. -1.
<mgrwt>
<rscale>  0 0.14143317E+04</rscale>
<asrwt>0</asrwt>
<pdfrwt beam="1">  1        2 0.16730166E+00 0.14143317E+04</pdfrwt>
<pdfrwt beam="2">  1       -2 0.61002301E-01 0.14143317E+04</pdfrwt>
<totfact> 0.54051110E+01</totfact>
</mgrwt>
</event>
<event>
 8    2  0.4480234E-052  0.2422864E+04  0.7818608E-02  0.8430993E-01
          2   -1    0    0  501    0  0.00000000000E+00  0.00000000000E+00  0.24709201791E+04  0.24709201791E+04  0.25500000000E-02 0.  1.
         -2   -1    0    0    0  501 -0.00000000000E+00 -0.00000000000E+00 -0.59393582996E+03  0.59393582996E+03  0.25500000000E-02 0. -1.
    -200001    2    1    2    0    0 -0.82872903305E+03 -0.55603336631E+03  0.13298301749E+04  0.17721411894E+04  0.61324643194E+03 0.  0.
   -5000001    2    3    3    0    0 -0.55526932771E+03 -0.59206948625E+03  0.70303865518E+03  0.10799364353E+04  0.11458206976E+03 0.  0.
     200001    1    1    2    0    0  0.82872903305E+03  0.55603336631E+03  0.54715417422E+03  0.12927148197E+04  0.61300000000E+03 0.  1.
         13    1    4    4    0    0 -0.92666015969E+02 -0.50182443447E+02  0.11133040369E+03  0.15329624293E+03  0.10566000000E+00 0.  1.
    -200003    1    4    4    0    0 -0.46260331175E+03 -0.54188704280E+03  0.59170825149E+03  0.92664019235E+03  0.30000000000E+02 0.  1.
    -200000    1    3    3    0    0 -0.27345970534E+03  0.36036119938E+02  0.62679151975E+03  0.69220475411E+03  0.10100000000E+03 0.  1.
<mgrwt>
<rscale>  0 0.24228644E+04</rscale>
<asrwt>0</asrwt>
<pdfrwt beam="1">  1        2 0.35298860E+00 0.24228644E+04</pdfrwt>
<pdfrwt beam="2">  1       -2 0.84847975E-01 0.24228644E+04</pdfrwt>
<totfact> 0.49845374E+00</totfact>
</mgrwt>
</event>
<event>
 8    2  0.4480234E-052  0.2044746E+04  0.7818608E-02  0.8585982E-01
          2   -1    0    0  501    0  0.00000000000E+00  0.00000000000E+00  0.41377573561E+04  0.41377573561E+04  0.25500000000E-02 0.  1.
         -2   -1    0    0    0  501 -0.00000000000E+00 -0.00000000000E+00 -0.25261173319E+03  0.25261173321E+03  0.25500000000E-02 0. -1.
    -200001    2    1    2    0    0  0.53669181692E+03 -0.60119721808E+03  0.16345254144E+04  0.19224678506E+04  0.61215447780E+03 0.  0.
   -5000001    2    3    3    0    0  0.14524885389E+03 -0.57761237153E+03  0.10628336405E+04  0.12218850056E+04  0.93028695698E+02 0.  0.
     200001    1    1    2    0    0 -0.53669181692E+03  0.60119721808E+03  0.22506202085E+04  0.24679012388E+04  0.61300000000E+03 0. -1.
         13    1    4    4    0    0  0.23539683277E+01 -0.15957160187E+03  0.30208529168E+03  0.34164919421E+03  0.10566000000E+00 0.  1.
    -200003    1    4    4    0    0  0.14289488556E+03 -0.41804076965E+03  0.76074834884E+03  0.88023581141E+03  0.30000000000E+02 0.  1.
    -200000    1    3    3    0    0  0.39144296303E+03 -0.23584846552E+02  0.57169177389E+03  0.70058284494E+03  0.10100000000E+03 0. -1.
<mgrwt>
<rscale>  0 0.20447455E+04</rscale>
<asrwt>0</asrwt>
<pdfrwt beam="1">  1        2 0.59110819E+00 0.20447455E+04</pdfrwt>
<pdfrwt beam="2">  1       -2 0.36087391E-01 0.20447455E+04</pdfrwt>
<totfact> 0.30816023E+00</totfact>
</mgrwt>
</event>
<event>
 8    2  0.4480234E-052  0.1325011E+04  0.7818608E-02  0.9009963E-01
         -2   -1    0    0    0  501 -0.00000000000E+00  0.00000000000E+00  0.30820826076E+03  0.30820826077E+03  0.25500000000E-02 0. -1.
          2   -1    0    0  501    0  0.00000000000E+00 -0.00000000000E+00 -0.14240803261E+04  0.14240803261E+04  0.25500000000E-02 0.  1.
    -200001    2    1    2    0    0  0.97099340414E+02  0.81035305038E+02 -0.27304387202E+03  0.68246795172E+03  0.61254758713E+03 0.  0.
   -5000001    2    3    3    0    0  0.32827516796E+03  0.11341483123E+03 -0.94083662462E+02  0.37147204570E+03  0.92261776219E+02 0.  0.
     200001    1    1    2    0    0 -0.97099340414E+02 -0.81035305038E+02 -0.84282819335E+03  0.10498206352E+04  0.61300000000E+03 0.  1.
         13    1    4    4    0    0  0.26967079963E+03  0.68820346819E+02 -0.87208617628E+02  0.29165722083E+03  0.10566000000E+00 0.  1.
    -200003    1    4    4    0    0  0.58604368327E+02  0.44594484413E+02 -0.68750448334E+01  0.79814824867E+02  0.30000000000E+02 0. -1.
    -200000    1    3    3    0    0 -0.23117582754E+03 -0.32379526194E+02 -0.17896020956E+03  0.31099590602E+03  0.10100000000E+03 0. -1.
<mgrwt>
<rscale>  0 0.13250107E+04</rscale>
<asrwt>0</asrwt>
<pdfrwt beam="1">  1        2 0.20344004E+00 0.13250107E+04</pdfrwt>
<pdfrwt beam="2">  1       -2 0.44029752E-01 0.13250107E+04</pdfrwt>
<totfact> 0.76866249E+01</totfact>
</mgrwt>
</event>
<event>
 8    2  0.4480234E-052  0.1839017E+04  0.7818608E-02  0.8685822E-01
          2   -1    0    0  501    0  0.00000000000E+00  0.00000000000E+00  0.10899542666E+04  0.10899542666E+04  0.25500000000E-02 0. -1.
         -2   -1    0    0    0  501 -0.00000000000E+00 -0.00000000000E+00 -0.77571653469E+03  0.77571653469E+03  0.25500000000E-02 0.  1.
    -200001    2    1    2    0    0 -0.19728075983E+03 -0.36315838563E+03 -0.39762736704E+03  0.83935475332E+03  0.61286635382E+03 0.  0.
   -5000001    2    3    3    0    0  0.15859339143E+03 -0.12414104047E+02 -0.13379734140E+03  0.26535541097E+03  0.16494178300E+03 0.  0.
     200001    1    1    2    0    0  0.19728075983E+03  0.36315838563E+03  0.71186509899E+03  0.10263160480E+04  0.61300000000E+03 0. -1.
         13    1    4    4    0    0  0.69359218301E+02 -0.30383007387E+02 -0.15011750280E+03  0.16813418485E+03  0.10566000000E+00 0.  1.
    -200003    1    4    4    0    0  0.89234173124E+02  0.17968903340E+02  0.16320161402E+02  0.97221226121E+02  0.30000000000E+02 0.  1.
    -200000    1    3    3    0    0 -0.35587415126E+03 -0.35074428158E+03 -0.26383002564E+03  0.57399934235E+03  0.10100000000E+03 0.  1.
<mgrwt>
<rscale>  0 0.18390166E+04</rscale>
<asrwt>0</asrwt>
<pdfrwt beam="1">  1        2 0.15570775E+00 0.18390166E+04</pdfrwt>
<pdfrwt beam="2">  1       -2 0.11081665E+00 0.18390166E+04</pdfrwt>
<totfact> 0.15095710E+01</totfact>
</mgrwt>
</event>
<event>
 8    2  0.4480234E-052  0.1260794E+04  0.7818608E-02  0.9061247E-01
         -2   -1    0    0    0  501 -0.00000000000E+00  0.00000000000E+00  0.19157182622E+03  0.19157182624E+03  0.25500000000E-02 0. -1.
          2   -1    0    0  501    0  0.00000000000E+00 -0.00000000000E+00 -0.20744198040E+04  0.20744198040E+04  0.25500000000E-02 0.  1.
    -200001    2    1    2    0    0  0.57260485057E+01 -0.13179849109E+03 -0.83414626867E+03  0.10441291566E+04  0.61400494150E+03 0.  0.
   -5000001    2    3    3    0    0 -0.23576810098E+03 -0.54605901628E+02 -0.68776564447E+03  0.73444156037E+03  0.88399219160E+02 0.  0.
     200001    1    1    2    0    0 -0.57260485057E+01  0.13179849109E+03 -0.10487017092E+04  0.12218624737E+04  0.61300000000E+03 0. -1.
         13    1    4    4    0    0 -0.96481539803E+01 -0.32938438061E+01 -0.26547501290E+01  0.10535423320E+02  0.10566000000E+00 0.  1.
    -200003    1    4    4    0    0 -0.22611994700E+03 -0.51312057822E+02 -0.68511089434E+03  0.72390613705E+03  0.30000000000E+02 0.  1.
    -200000    1    3    3    0    0  0.24149414948E+03 -0.77192589461E+02 -0.14638062419E+03  0.30968759620E+03  0.10100000000E+03 0. -1.
<mgrwt>
<rscale>  0 0.12607940E+04</rscale>
<asrwt>0</asrwt>
<pdfrwt beam="1">  1        2 0.29634567E+00 0.12607940E+04</pdfrwt>
<pdfrwt beam="2">  1       -2 0.27367405E-01 0.12607940E+04</pdfrwt>
<totfact> 0.87842077E+01</totfact>
</mgrwt>
</event>
<event>
 8    2  0.4480234E-052  0.1490273E+04  0.7818608E-02  0.8890947E-01
         -2   -1    0    0    0  501 -0.00000000000E+00  0.00000000000E+00  0.41032283261E+03  0.41032283262E+03  0.25500000000E-02 0. -1.
          2   -1    0    0  501    0  0.00000000000E+00 -0.00000000000E+00 -0.13531501581E+04  0.13531501581E+04  0.25500000000E-02 0.  1.
    -200001    2    1    2    0    0 -0.31363575618E+03  0.24991744652E+03 -0.66093643852E+03  0.97857962865E+03  0.59996249566E+03 0.  0.
   -5000001    2    3    3    0    0 -0.42349151553E+03  0.30846317956E+03 -0.61179455413E+03  0.81091384347E+03  0.93776799839E+02 0.  0.
     200001    1    1    2    0    0  0.31363575618E+03 -0.24991744652E+03 -0.28189088692E+03  0.78489336203E+03  0.61300000000E+03 0. -1.
         13    1    4    4    0    0 -0.24938191296E+03  0.13866466521E+03 -0.36280017935E+03  0.46156603991E+03  0.10566000000E+00 0.  1.
    -200003    1    4    4    0    0 -0.17410960257E+03  0.16979851434E+03 -0.24899437478E+03  0.34934780356E+03  0.30000000000E+02 0.  1.
    -200000    1    3    3    0    0  0.10985575935E+03 -0.58545733032E+02 -0.49141884391E+02  0.16766578518E+03  0.10100000000E+03 0.  1.
<mgrwt>
<rscale>  0 0.14902730E+04</rscale>
<asrwt>0</asrwt>
<pdfrwt beam="1">  1        2 0.19330716E+00 0.14902730E+04</pdfrwt>
<pdfrwt beam="2">  1       -2 0.58617548E-01 0.14902730E+04</pdfrwt>
<totfact> 0.46229211E+01</totfact>
</mgrwt>
</event>
<event>
 8    2  0.4480234E-052  0.1403779E+04  0.7818608E-02  0.8951088E-01
          2   -1    0    0  501    0  0.00000000000E+00  0.00000000000E+00  0.97406189290E+03  0.97406189290E+03  0.25500000000E-02 0.  1.
         -2   -1    0    0    0  501 -0.00000000000E+00 -0.00000000000E+00 -0.50576755340E+03  0.50576755341E+03  0.25500000000E-02 0. -1.
    -200001    2    1    2    0    0 -0.13362399014E+03  0.99366093107E+02  0.55001437307E+03  0.83937948332E+03  0.61181133958E+03 0.  0.
   -5000001    2    3    3    0    0 -0.11206474775E+03 -0.19433473162E+02 -0.34179708701E+02  0.23434901875E+03  0.20202733116E+03 0.  0.
     200001    1    1    2    0    0  0.13362399014E+03 -0.99366093107E+02 -0.81720033576E+02  0.64044996299E+03  0.61300000000E+03 0. -1.
         13    1    4    4    0    0 -0.13309185395E+03 -0.27243189968E+01  0.49067609828E+02  0.14187496255E+03  0.10566000000E+00 0.  1.
    -200003    1    4    4    0    0  0.21027106199E+02 -0.16709154165E+02 -0.83247318528E+02  0.92474056200E+02  0.30000000000E+02 0.  1.
    -200000    1    3    3    0    0 -0.21559242392E+02  0.11879956627E+03  0.58419408177E+03  0.60503046457E+03  0.10100000000E+03 0.  1.
<mgrwt>
<rscale>  0 0.14037790E+04</rscale>
<asrwt>0</asrwt>
<pdfrwt beam="1">  1        2 0.13915170E+00 0.14037790E+04</pdfrwt>
<pdfrwt beam="2">  1       -2 0.72252509E-01 0.14037790E+04</pdfrwt>
<totfact> 0.49269766E+01</totfact>
</mgrwt>
</event>
<event>
 8    2  0.4480234E-052  0.1525133E+04  0.7818608E-02  0.8867910E-01
         -2   -1    0    0    0  501 -0.00000000000E+00  0.00000000000E+00  0.47220837968E+03  0.47220837969E+03  0.25500000000E-02 0.  1.
          2   -1    0    0  501    0  0.00000000000E+00 -0.00000000000E+00 -0.12314636908E+04  0.12314636908E+04  0.25500000000E-02 0. -1.
    -200001    2    1    2    0    0 -0.36566101931E+03 -0.15036048135E+03 -0.13074377316E+03  0.74080551236E+03  0.61268476195E+03 0.  0.
   -5000001    2    3    3    0    0 -0.25031663463E+03 -0.31886489109E+02  0.21708045988E+03  0.34265590353E+03  0.81326357380E+02 0.  0.
     200001    1    1    2    0    0  0.36566101931E+03  0.15036048135E+03 -0.62851153791E+03  0.96286655809E+03  0.61300000000E+03 0. -1.
         13    1    4    4    0    0 -0.19669869031E+03 -0.13634183311E+02  0.18741132215E+03  0.27202808781E+03  0.10566000000E+00 0.  1.
    -200003    1    4    4    0    0 -0.53617944323E+02 -0.18252305798E+02  0.29669137730E+02  0.70627815724E+02  0.30000000000E+02 0. -1.
    -200000    1    3    3    0    0 -0.11534438468E+03 -0.11847399224E+03 -0.34782423304E+03  0.39814960882E+03  0.10100000000E+03 0. -1.
<mgrwt>
<rscale>  0 0.15251327E+04</rscale>
<asrwt>0</asrwt>
<pdfrwt beam="1">  1        2 0.17592338E+00 0.15251327E+04</pdfrwt>
<pdfrwt beam="2">  1       -2 0.67458341E-01 0.15251327E+04</pdfrwt>
<totfact> 0.39924605E+01</totfact>
</mgrwt>
</event>
<event>
 8    2  0.4480234E-052  0.1437990E+04  0.7818608E-02  0.8926770E-01
          2   -1    0    0  501    0  0.00000000000E+00  0.00000000000E+00  0.28236238103E+04  0.28236238103E+04  0.25500000000E-02 0.  1.
         -2   -1    0    0    0  501 -0.00000000000E+00 -0.00000000000E+00 -0.18308158022E+03  0.18308158024E+03  0.25500000000E-02 0. -1.
    -200001    2    1    2    0    0  0.27780376618E+03 -0.70524426427E+02  0.81412329795E+03  0.10589570128E+04  0.61355079947E+03 0.  0.
   -5000001    2    3    3    0    0  0.32738008408E+03  0.11578888502E+03  0.25343306725E+03  0.45750460729E+03  0.15651632749E+03 0.  0.
     200001    1    1    2    0    0 -0.27780376618E+03  0.70524426427E+02  0.18264189321E+04  0.19477483777E+04  0.61300000000E+03 0.  1.
         13    1    4    4    0    0  0.18742752698E+03  0.14229779174E+03  0.15535072623E+03  0.28197801104E+03  0.10566000000E+00 0.  1.
    -200003    1    4    4    0    0  0.13995255710E+03 -0.26508906713E+02  0.98082341017E+02  0.17552659626E+03  0.30000000000E+02 0.  1.
    -200000    1    3    3    0    0 -0.49576317901E+02 -0.18631331145E+03  0.56069023071E+03  0.60145240554E+03  0.10100000000E+03 0.  1.
<mgrwt>
<rscale>  0 0.14379896E+04</rscale>
<asrwt>0</asrwt>
<pdfrwt beam="1">  1        2 0.40337483E+00 0.14379896E+04</pdfrwt>
<pdfrwt beam="2">  1       -2 0.26154511E-01 0.14379896E+04</pdfrwt>
<totfact> 0.38090583E+01</totfact>
</mgrwt>
</event>
<event>
 8    2  0.4480234E-052  0.1428756E+04  0.7818608E-02  0.8933262E-01
         -2   -1    0    0    0  501 -0.00000000000E+00  0.00000000000E+00  0.23512425614E+03  0.23512425615E+03  0.25500000000E-02 0. -1.
          2   -1    0    0  501    0  0.00000000000E+00 -0.00000000000E+00 -0.21704948060E+04  0.21704948060E+04  0.25500000000E-02 0.  1.
    -200001    2    1    2    0    0  0.34629937189E+03  0.11968405930E+03 -0.99358329844E+03  0.12236800807E+04  0.61313753747E+03 0.  0.
   -5000001    2    3    3    0    0  0.42744979097E+03  0.11237357275E+02 -0.35690336852E+03  0.56496283415E+03  0.94675168376E+02 0.  0.
     200001    1    1    2    0    0 -0.34629937189E+03 -0.11968405930E+03 -0.94178725144E+03  0.11819389815E+04  0.61300000000E+03 0. -1.
         13    1    4    4    0    0  0.11001562922E+02  0.17159154619E+02 -0.16447755383E+02  0.26191807786E+02  0.10566000000E+00 0.  1.
    -200003    1    4    4    0    0  0.41644822805E+03 -0.59217973441E+01 -0.34045561314E+03  0.53877102636E+03  0.30000000000E+02 0.  1.
    -200000    1    3    3    0    0 -0.81150419079E+02  0.10844670202E+03 -0.63667992992E+03  0.65871724652E+03  0.10100000000E+03 0.  1.
<mgrwt>
<rscale>  0 0.14287561E+04</rscale>
<asrwt>0</asrwt>
<pdfrwt beam="1">  1        2 0.31007067E+00 0.14287561E+04</pdfrwt>
<pdfrwt beam="2">  1       -2 0.33589181E-01 0.14287561E+04</pdfrwt>
<totfact> 0.52811730E+01</totfact>
</mgrwt>
</event>
<event>
 8    2  0.4480234E-052  0.1321647E+04  0.7818608E-02  0.9012573E-01
         -2   -1    0    0    0  501 -0.00000000000E+00  0.00000000000E+00  0.95300369047E+02  0.95300369082E+02  0.25500000000E-02 0. -1.
          2   -1    0    0  501    0  0.00000000000E+00 -0.00000000000E+00 -0.45822222423E+04  0.45822222423E+04  0.25500000000E-02 0.  1.
    -200001    2    1    2    0    0 -0.19776013674E+03  0.13655145131E+03 -0.24525818598E+04  0.25392841633E+04  0.61241400410E+03 0.  0.
   -5000001    2    3    3    0    0 -0.82555934833E+02 -0.50315205688E+02 -0.52031726888E+02  0.12660244035E+03  0.63037885432E+02 0.  0.
     200001    1    1    2    0    0  0.19776013674E+03 -0.13655145131E+03 -0.20343400135E+04  0.21382384481E+04  0.61300000000E+03 0.  1.
         13    1    4    4    0    0 -0.62611720484E+02 -0.48154916827E+02 -0.31159165249E+02  0.84911885503E+02  0.10566000000E+00 0.  1.
    -200003    1    4    4    0    0 -0.19944214348E+02 -0.21602888601E+01 -0.20872561639E+02  0.41690554845E+02  0.30000000000E+02 0. -1.
    -200000    1    3    3    0    0 -0.11520420191E+03  0.18686665700E+03 -0.24005501329E+04  0.24126817229E+04  0.10100000000E+03 0.  1.
<mgrwt>
<rscale>  0 0.13216467E+04</rscale>
<asrwt>0</asrwt>
<pdfrwt beam="1">  1        2 0.65460304E+00 0.13216467E+04</pdfrwt>
<pdfrwt beam="2">  1       -2 0.13614341E-01 0.13216467E+04</pdfrwt>
<totfact> 0.87795885E+00</totfact>
</mgrwt>
</event>
<event>
 8    2  0.4480234E-052  0.2066069E+04  0.7818608E-02  0.8576339E-01
          2   -1    0    0  501    0  0.00000000000E+00  0.00000000000E+00  0.77640663388E+03  0.77640663388E+03  0.25500000000E-02 0.  1.
         -2   -1    0    0    0  501 -0.00000000000E+00 -0.00000000000E+00 -0.13744865028E+04  0.13744865028E+04  0.25500000000E-02 0. -1.
    -200001    2    1    2    0    0 -0.72204213244E+03  0.24366830582E+03  0.47488365919E+02  0.97903715998E+03  0.61281280295E+03 0.  0.
   -5000001    2    3    3    0    0  0.71699303619E+02  0.10092804462E+03 -0.54166391804E+02  0.15993097685E+03  0.85537471463E+02 0.  0.
     200001    1    1    2    0    0  0.72204213244E+03 -0.24366830582E+03 -0.64556823483E+03  0.11718559767E+04  0.61300000000E+03 0. -1.
         13    1    4    4    0    0 -0.42903239368E+01  0.46500747308E+02  0.21673310771E+01  0.46748634929E+02  0.10566000000E+00 0.  1.
    -200003    1    4    4    0    0  0.75989627556E+02  0.54427297315E+02 -0.56333722881E+02  0.11318234192E+03  0.30000000000E+02 0.  1.
    -200000    1    3    3    0    0 -0.79374143606E+03  0.14274026119E+03  0.10165475772E+03  0.81910618313E+03  0.10100000000E+03 0.  1.
<mgrwt>
<rscale>  0 0.20660692E+04</rscale>
<asrwt>0</asrwt>
<pdfrwt beam="1">  1        2 0.11091523E+00 0.20660692E+04</pdfrwt>
<pdfrwt beam="2">  1       -2 0.19635521E+00 0.20660692E+04</pdfrwt>
<totfact> 0.51490382E+00</totfact>
</mgrwt>
</event>
<event>
 8    2  0.4480234E-052  0.1304938E+04  0.7818608E-02  0.9025658E-01
          2   -1    0    0  501    0  0.00000000000E+00  0.00000000000E+00  0.84707086775E+03  0.84707086776E+03  0.25500000000E-02 0.  1.
         -2   -1    0    0    0  501 -0.00000000000E+00 -0.00000000000E+00 -0.50257396339E+03  0.50257396339E+03  0.25500000000E-02 0. -1.
    -200001    2    1    2    0    0  0.15635694595E+03  0.11875233125E+03  0.59110970541E+02  0.64553990861E+03  0.61210951311E+03 0.  0.
   -5000001    2    3    3    0    0 -0.72475623975E+02  0.13027036470E+03  0.25711489804E+03  0.32631652999E+03  0.13472684572E+03 0.  0.
     200001    1    1    2    0    0 -0.15635694595E+03 -0.11875233125E+03  0.28538593383E+03  0.70410492254E+03  0.61300000000E+03 0. -1.
         13    1    4    4    0    0 -0.95845358878E+02  0.80480451335E+02  0.11080200381E+03  0.16715421346E+03  0.10566000000E+00 0.  1.
    -200003    1    4    4    0    0  0.23369734903E+02  0.49789913368E+02  0.14631289424E+03  0.15916231653E+03  0.30000000000E+02 0.  1.
    -200000    1    3    3    0    0  0.22883256992E+03 -0.11518033452E+02 -0.19800392750E+03  0.31922337862E+03  0.10100000000E+03 0. -1.
<mgrwt>
<rscale>  0 0.13049379E+04</rscale>
<asrwt>0</asrwt>
<pdfrwt beam="1">  1        2 0.12101012E+00 0.13049379E+04</pdfrwt>
<pdfrwt beam="2">  1       -2 0.71796281E-01 0.13049379E+04</pdfrwt>
<totfact> 0.60857544E+01</totfact>
</mgrwt>
</event>
<event>
 8    2  0.4480234E-052  0.1537522E+04  0.7818608E-02  0.8859878E-01
          2   -1    0    0  501    0  0.00000000000E+00  0.00000000000E+00  0.37963839629E+03  0.37963839630E+03  0.25500000000E-02 0.  1.
         -2   -1    0    0    0  501 -0.00000000000E+00 -0.00000000000E+00 -0.15567275554E+04  0.15567275554E+04  0.25500000000E-02 0. -1.
    -200001    2    1    2    0    0 -0.55794149679E+01  0.75278102425E+02 -0.11650916412E+04  0.13186193507E+04  0.61287889259E+03 0.  0.
   -5000001    2    3    3    0    0 -0.22911506534E+03 -0.12377115601E+03 -0.75879050550E+03  0.80396373072E+03  0.52741225350E+02 0.  0.
     200001    1    1    2    0    0  0.55794149679E+01 -0.75278102425E+02 -0.11997517832E+02  0.61774660097E+03  0.61300000000E+03 0.  1.
         13    1    4    4    0    0 -0.46670144377E+02 -0.29659003846E+02 -0.21331092648E+03  0.22036179661E+03  0.10566000000E+00 0.  1.
    -200003    1    4    4    0    0 -0.18244492096E+03 -0.94112152165E+02 -0.54547957902E+03  0.58360193411E+03  0.30000000000E+02 0.  1.
    -200000    1    3    3    0    0  0.22353565037E+03  0.19904925844E+03 -0.40630113573E+03  0.51465561997E+03  0.10100000000E+03 0. -1.
<mgrwt>
<rscale>  0 0.15375221E+04</rscale>
<asrwt>0</asrwt>
<pdfrwt beam="1">  1        2 0.54234058E-01 0.15375221E+04</pdfrwt>
<pdfrwt beam="2">  1       -2 0.22238965E+00 0.15375221E+04</pdfrwt>
<totfact> 0.84464841E+00</totfact>
</mgrwt>
</event>
<event>
 8    2  0.4480234E-052  0.1297660E+04  0.7818608E-02  0.9031423E-01
          2   -1    0    0  501    0  0.00000000000E+00  0.00000000000E+00  0.12050457862E+04  0.12050457862E+04  0.25500000000E-02 0.  1.
         -2   -1    0    0    0  501 -0.00000000000E+00 -0.00000000000E+00 -0.34934815951E+03  0.34934815952E+03  0.25500000000E-02 0. -1.
    -200001    2    1    2    0    0 -0.17690700986E+03  0.35998102843E+02  0.56763387053E+03  0.85343625718E+03  0.61119005273E+03 0.  0.
   -5000001    2    3    3    0    0 -0.94583783346E+02  0.92378570391E+02  0.46824410376E+02  0.31362206273E+03  0.28051092757E+03 0.  0.
     200001    1    1    2    0    0  0.17690700986E+03 -0.35998102843E+02  0.28806375619E+03  0.70095768858E+03  0.61300000000E+03 0. -1.
         13    1    4    4    0    0 -0.17064221386E+03  0.10475451390E+03 -0.27904918915E+02  0.20216569689E+03  0.10566000000E+00 0.  1.
    -200003    1    4    4    0    0  0.76058430516E+02 -0.12375943509E+02  0.74729329291E+02  0.11145636584E+03  0.30000000000E+02 0.  1.
    -200000    1    3    3    0    0 -0.82323226515E+02 -0.56380467548E+02  0.52080946016E+03  0.53981419445E+03  0.10100000000E+03 0.  1.
<mgrwt>
<rscale>  0 0.12976602E+04</rscale>
<asrwt>0</asrwt>
<pdfrwt beam="1">  1        2 0.17214939E+00 0.12976602E+04</pdfrwt>
<pdfrwt beam="2">  1       -2 0.49906881E-01 0.12976602E+04</pdfrwt>
<totfact> 0.79087922E+01</totfact>
</mgrwt>
</event>
<event>
 8    2  0.4480234E-052  0.1302031E+04  0.7818608E-02  0.9027956E-01
          2   -1    0    0  501    0  0.00000000000E+00  0.00000000000E+00  0.13596040729E+04  0.13596040729E+04  0.25500000000E-02 0.  1.
         -2   -1    0    0    0  501 -0.00000000000E+00 -0.00000000000E+00 -0.31172387973E+03  0.31172387974E+03  0.25500000000E-02 0. -1.
    -200001    2    1    2    0    0 -0.71830649850E+02  0.16576146415E+03  0.36577315654E+03  0.73662184126E+03  0.61333940826E+03 0.  0.
   -5000001    2    3    3    0    0 -0.29512961475E+03  0.20577144492E+03  0.18496482829E+03  0.42944782242E+03  0.14411824115E+03 0.  0.
     200001    1    1    2    0    0  0.71830649850E+02 -0.16576146415E+03  0.68210703665E+03  0.93470611141E+03  0.61300000000E+03 0.  1.
         13    1    4    4    0    0 -0.71159301508E+02  0.11394563624E+03  0.22072023549E+02  0.13614124870E+03  0.10566000000E+00 0.  1.
    -200003    1    4    4    0    0 -0.22397031324E+03  0.91825808674E+02  0.16289280474E+03  0.29330657372E+03  0.30000000000E+02 0.  1.
    -200000    1    3    3    0    0  0.22329896490E+03 -0.40009980772E+02  0.18080832825E+03  0.30717401884E+03  0.10100000000E+03 0.  1.
<mgrwt>
<rscale>  0 0.13020308E+04</rscale>
<asrwt>0</asrwt>
<pdfrwt beam="1">  1        2 0.19422915E+00 0.13020308E+04</pdfrwt>
<pdfrwt beam="2">  1       -2 0.44531983E-01 0.13020308E+04</pdfrwt>
<totfact> 0.81582325E+01</totfact>
</mgrwt>
</event>
<event>
 8    2  0.4480234E-052  0.1783451E+04  0.7818608E-02  0.8715150E-01
          2   -1    0    0  501    0  0.00000000000E+00  0.00000000000E+00  0.28670730166E+04  0.28670730166E+04  0.25500000000E-02 0.  1.
         -2   -1    0    0    0  501 -0.00000000000E+00 -0.00000000000E+00 -0.27734708309E+03  0.27734708310E+03  0.25500000000E-02 0. -1.
    -200001    2    1    2    0    0 -0.52453951381E+03 -0.18364591145E+03  0.18813894750E+04  0.20552107256E+04  0.61269670093E+03 0.  0.
   -5000001    2    3    3    0    0 -0.31545237750E+03 -0.34780588233E+03  0.15237366391E+04  0.15982835129E+04  0.11071453403E+03 0.  0.
     200001    1    1    2    0    0  0.52453951381E+03  0.18364591145E+03  0.70833645849E+03  0.10892093742E+04  0.61300000000E+03 0. -1.
         13    1    4    4    0    0 -0.19704646828E+03 -0.20017260785E+03  0.74142747682E+03  0.79284998464E+03  0.10566000000E+00 0.  1.
    -200003    1    4    4    0    0 -0.11840590922E+03 -0.14763327448E+03  0.78230916228E+03  0.80543352827E+03  0.30000000000E+02 0.  1.
    -200000    1    3    3    0    0 -0.20908713631E+03  0.16415997088E+03  0.35765283594E+03  0.45692721265E+03  0.10100000000E+03 0.  1.
<mgrwt>
<rscale>  0 0.17834510E+04</rscale>
<asrwt>0</asrwt>
<pdfrwt beam="1">  1        2 0.40958185E+00 0.17834510E+04</pdfrwt>
<pdfrwt beam="2">  1       -2 0.39621013E-01 0.17834510E+04</pdfrwt>
<totfact> 0.15995312E+01</totfact>
</mgrwt>
</event>
<event>
 8    2  0.4480234E-052  0.1364279E+04  0.7818608E-02  0.8980089E-01
         -2   -1    0    0    0  501 -0.00000000000E+00  0.00000000000E+00  0.21802001315E+03  0.21802001317E+03  0.25500000000E-02 0. -1.
          2   -1    0    0  501    0  0.00000000000E+00 -0.00000000000E+00 -0.21342739029E+04  0.21342739029E+04  0.25500000000E-02 0.  1.
    -200001    2    1    2    0    0  0.14880067334E+03 -0.50517690268E+02 -0.13975064364E+04  0.15340264795E+04  0.61279631412E+03 0.  0.
   -5000001    2    3    3    0    0 -0.19670824927E+03 -0.95489631856E+02 -0.30388214914E+03  0.38180515839E+03  0.74956075706E+02 0.  0.
     200001    1    1    2    0    0 -0.14880067334E+03  0.50517690268E+02 -0.51874745339E+03  0.81826743661E+03  0.61300000000E+03 0. -1.
         13    1    4    4    0    0 -0.36688375602E+02 -0.41566813972E+02 -0.10837933235E+03  0.12173712569E+03  0.10566000000E+00 0.  1.
    -200003    1    4    4    0    0 -0.16001987367E+03 -0.53922817884E+02 -0.19550281679E+03  0.26006803269E+03  0.30000000000E+02 0.  1.
    -200000    1    3    3    0    0  0.34550892261E+03  0.44971941588E+02 -0.10936242872E+04  0.11522213211E+04  0.10100000000E+03 0. -1.
<mgrwt>
<rscale>  0 0.13642792E+04</rscale>
<asrwt>0</asrwt>
<pdfrwt beam="1">  1        2 0.30489626E+00 0.13642792E+04</pdfrwt>
<pdfrwt beam="2">  1       -2 0.31145717E-01 0.13642792E+04</pdfrwt>
<totfact> 0.63883104E+01</totfact>
</mgrwt>
</event>
<event>
 8    2  0.4480234E-052  0.1754710E+04  0.7818608E-02  0.8730762E-01
          2   -1    0    0  501    0  0.00000000000E+00  0.00000000000E+00  0.12945836582E+04  0.12945836582E+04  0.25500000000E-02 0.  1.
         -2   -1    0    0    0  501 -0.00000000000E+00 -0.00000000000E+00 -0.59459424894E+03  0.59459424894E+03  0.25500000000E-02 0. -1.
    -200001    2    1    2    0    0  0.43491091180E+03  0.30890701313E+03  0.70629757796E+03  0.10765403268E+04  0.61279014569E+03 0.  0.
   -5000001    2    3    3    0    0  0.16290200803E+03  0.27461286367E+03  0.21714996183E+03  0.50677605732E+03  0.32820508412E+03 0.  0.
     200001    1    1    2    0    0 -0.43491091180E+03 -0.30890701313E+03 -0.63081687096E+01  0.81263758032E+03  0.61300000000E+03 0. -1.
         13    1    4    4    0    0  0.20951264427E+03  0.43111490878E+02  0.62273172113E+02  0.22278264717E+03  0.10566000000E+00 0.  1.
    -200003    1    4    4    0    0 -0.46610636240E+02  0.23150137279E+03  0.15487678972E+03  0.28399341015E+03  0.30000000000E+02 0.  1.
    -200000    1    3    3    0    0  0.27200890377E+03  0.34294149462E+02  0.48914761613E+03  0.56976426948E+03  0.10100000000E+03 0. -1.
<mgrwt>
<rscale>  0 0.17547102E+04</rscale>
<asrwt>0</asrwt>
<pdfrwt beam="1">  1        2 0.18494052E+00 0.17547102E+04</pdfrwt>
<pdfrwt beam="2">  1       -2 0.84942037E-01 0.17547102E+04</pdfrwt>
<totfact> 0.21679920E+01</totfact>
</mgrwt>
</event>
<event>
 8    2  0.4480234E-052  0.1440678E+04  0.7818608E-02  0.8924889E-01
          2   -1    0    0  501    0  0.00000000000E+00  0.00000000000E+00  0.16918864394E+04  0.16918864394E+04  0.25500000000E-02 0.  1.
         -2   -1    0    0    0  501 -0.00000000000E+00 -0.00000000000E+00 -0.30669224182E+03  0.30669224183E+03  0.25500000000E-02 0. -1.
    -200001    2    1    2    0    0  0.98906545472E+02  0.31500551924E+03  0.43568534205E+03  0.82114628462E+03  0.61273854259E+03 0.  0.
   -5000001    2    3    3    0    0  0.27381726963E+03  0.25691055520E+02  0.50191147392E+02  0.29855333168E+03  0.10478078593E+03 0.  0.
     200001    1    1    2    0    0 -0.98906545472E+02 -0.31500551924E+03  0.94950885556E+03  0.11774323967E+04  0.61300000000E+03 0.  1.
         13    1    4    4    0    0  0.11419812943E+03  0.58225199153E+02  0.13464968713E+02  0.12889027554E+03  0.10566000000E+00 0.  1.
    -200003    1    4    4    0    0  0.15961914020E+03 -0.32534143633E+02  0.36726178679E+02  0.16966305614E+03  0.30000000000E+02 0.  1.
    -200000    1    3    3    0    0 -0.17491072416E+03  0.28931446372E+03  0.38549419466E+03  0.52259295294E+03  0.10100000000E+03 0.  1.
<mgrwt>
<rscale>  0 0.14406782E+04</rscale>
<asrwt>0</asrwt>
<pdfrwt beam="1">  1        2 0.24169807E+00 0.14406782E+04</pdfrwt>
<pdfrwt beam="2">  1       -2 0.43813176E-01 0.14406782E+04</pdfrwt>
<totfact> 0.55576384E+01</totfact>
</mgrwt>
</event>
<event>
 8    2  0.4480234E-052  0.1382292E+04  0.7818608E-02  0.8966737E-01
          2   -1    0    0  501    0  0.00000000000E+00  0.00000000000E+00  0.35056962726E+04  0.35056962726E+04  0.25500000000E-02 0.  1.
         -2   -1    0    0    0  501 -0.00000000000E+00 -0.00000000000E+00 -0.13625904652E+03  0.13625904654E+03  0.25500000000E-02 0. -1.
    -200001    2    1    2    0    0 -0.20565787613E+03  0.19109733626E+02  0.23256602823E+04  0.24139896631E+04  0.61318023552E+03 0.  0.
   -5000001    2    3    3    0    0 -0.12854022849E+03  0.12077606469E+03  0.20634441861E+03  0.28843469926E+03  0.97504402493E+02 0.  0.
     200001    1    1    2    0    0  0.20565787613E+03 -0.19109733626E+02  0.10437769438E+04  0.12279656560E+04  0.61300000000E+03 0. -1.
         13    1    4    4    0    0  0.70333165280E+01 -0.89842356554E+01  0.99001732403E+01  0.15106575585E+02  0.10566000000E+00 0.  1.
    -200003    1    4    4    0    0 -0.13557354502E+03  0.12976030035E+03  0.19644424537E+03  0.27332812368E+03  0.30000000000E+02 0.  1.
    -200000    1    3    3    0    0 -0.77117647638E+02 -0.10166633107E+03  0.21193158637E+04  0.21255549639E+04  0.10100000000E+03 0.  1.
<mgrwt>
<rscale>  0 0.13822921E+04</rscale>
<asrwt>0</asrwt>
<pdfrwt beam="1">  1        2 0.50081386E+00 0.13822921E+04</pdfrwt>
<pdfrwt beam="2">  1       -2 0.19465574E-01 0.13822921E+04</pdfrwt>
<totfact> 0.26438544E+01</totfact>
</mgrwt>
</event>
<event>
 8    2  0.4480234E-052  0.2006413E+04  0.7818608E-02  0.8603628E-01
         -2   -1    0    0    0  501 -0.00000000000E+00  0.00000000000E+00  0.43120583447E+03  0.43120583448E+03  0.25500000000E-02 0. -1.
          2   -1    0    0  501    0  0.00000000000E+00 -0.00000000000E+00 -0.23339730327E+04  0.23339730327E+04  0.25500000000E-02 0.  1.
    -200001    2    1    2    0    0 -0.23481720662E+03  0.37437757689E+03 -0.42051002254E+02  0.75686329124E+03  0.61300576199E+03 0.  0.
   -5000001    2    3    3    0    0 -0.36613580878E+03  0.21229120369E+03 -0.20216919914E+03  0.47516237781E+03  0.76052051725E+02 0.  0.
     200001    1    1    2    0    0  0.23481720662E+03 -0.37437757689E+03 -0.18607161959E+04  0.20083155759E+04  0.61300000000E+03 0.  1.
         13    1    4    4    0    0 -0.89891119473E+02  0.64542825126E+02 -0.84269013217E+02  0.13909517385E+03  0.10566000000E+00 0.  1.
    -200003    1    4    4    0    0 -0.27624468931E+03  0.14774837856E+03 -0.11790018592E+03  0.33606720396E+03  0.30000000000E+02 0.  1.
    -200000    1    3    3    0    0  0.13131860217E+03  0.16208637321E+03  0.16011819688E+03  0.28170091343E+03  0.10100000000E+03 0.  1.
<mgrwt>
<rscale>  0 0.20064125E+04</rscale>
<asrwt>0</asrwt>
<pdfrwt beam="1">  1        2 0.33342471E+00 0.20064125E+04</pdfrwt>
<pdfrwt beam="2">  1       -2 0.61600835E-01 0.20064125E+04</pdfrwt>
<totfact> 0.12297356E+01</totfact>
</mgrwt>
</event>
<event>
 8    2  0.4480234E-052  0.2174385E+04  0.7818608E-02  0.8529166E-01
         -2   -1    0    0    0  501 -0.00000000000E+00  0.00000000000E+00  0.38894662629E+03  0.38894662630E+03  0.25500000000E-02 0. -1.
          2   -1    0    0  501    0  0.00000000000E+00 -0.00000000000E+00 -0.30389460913E+04  0.30389460913E+04  0.25500000000E-02 0.  1.
    -200001    2    1    2    0    0 -0.29308504865E+03  0.33718630729E+03 -0.25529214415E+04  0.26631793110E+04  0.61279907362E+03 0.  0.
   -5000001    2    3    3    0    0 -0.20042035458E+03  0.26696503392E+03 -0.64384887284E+03  0.74790469751E+03  0.18270582266E+03 0.  0.
     200001    1    1    2    0    0  0.29308504865E+03 -0.33718630729E+03 -0.97078023515E+02  0.76471340659E+03  0.61300000000E+03 0. -1.
         13    1    4    4    0    0 -0.17840733020E+03  0.19895737052E+03 -0.33004926564E+03  0.42467133134E+03  0.10566000000E+00 0.  1.
    -200003    1    4    4    0    0 -0.22013024379E+02  0.68007663401E+02 -0.31379960720E+03  0.32323336616E+03  0.30000000000E+02 0.  1.
    -200000    1    3    3    0    0 -0.92664694066E+02  0.70221273369E+02 -0.19090725686E+04  0.19152746135E+04  0.10100000000E+03 0.  1.
<mgrwt>
<rscale>  0 0.21743853E+04</rscale>
<asrwt>0</asrwt>
<pdfrwt beam="1">  1        2 0.43413514E+00 0.21743853E+04</pdfrwt>
<pdfrwt beam="2">  1       -2 0.55563805E-01 0.21743853E+04</pdfrwt>
<totfact> 0.62813434E+00</totfact>
</mgrwt>
</event>
<event>
 8    2  0.4480234E-052  0.1978202E+04  0.7818608E-02  0.8616880E-01
         -2   -1    0    0    0  501 -0.00000000000E+00  0.00000000000E+00  0.13188939522E+04  0.13188939522E+04  0.25500000000E-02 0. -1.
          2   -1    0    0  501    0  0.00000000000E+00 -0.00000000000E+00 -0.74177350217E+03  0.74177350217E+03  0.25500000000E-02 0.  1.
    -200001    2    1    2    0    0 -0.65037657482E+03 -0.25031648041E+03  0.63912211354E+03  0.11304732619E+04  0.61955200782E+03 0.  0.
   -5000001    2    3    3    0    0 -0.23761161590E+03 -0.26010352391E+03  0.60307528904E+03  0.70389258829E+03  0.87474844644E+02 0.  0.
     200001    1    1    2    0    0  0.65037657482E+03  0.25031648041E+03 -0.62001663518E+02  0.93019419248E+03  0.61300000000E+03 0.  1.
         13    1    4    4    0    0 -0.12976644097E+03 -0.11715901283E+03  0.22922676956E+03  0.28828889423E+03  0.10566000000E+00 0.  1.
    -200003    1    4    4    0    0 -0.10784517493E+03 -0.14294451108E+03  0.37384851948E+03  0.41560369407E+03  0.30000000000E+02 0.  1.
    -200000    1    3    3    0    0 -0.41276495892E+03  0.97870435029E+01  0.36046824505E+02  0.42658067360E+03  0.10100000000E+03 0.  1.
<mgrwt>
<rscale>  0 0.19782018E+04</rscale>
<asrwt>0</asrwt>
<pdfrwt beam="1">  1        2 0.10596764E+00 0.19782018E+04</pdfrwt>
<pdfrwt beam="2">  1       -2 0.18841342E+00 0.19782018E+04</pdfrwt>
<totfact> 0.62080874E+00</totfact>
</mgrwt>
</event>
<event>
 8    2  0.4480234E-052  0.1331899E+04  0.7818608E-02  0.9004645E-01
         -2   -1    0    0    0  501 -0.00000000000E+00  0.00000000000E+00  0.35937676535E+03  0.35937676536E+03  0.25500000000E-02 0. -1.
          2   -1    0    0  501    0  0.00000000000E+00 -0.00000000000E+00 -0.12340486406E+04  0.12340486406E+04  0.25500000000E-02 0.  1.
    -200001    2    1    2    0    0  0.26073079247E+02 -0.24060373473E+03 -0.55047908876E+03  0.85895966444E+03  0.61336328170E+03 0.  0.
   -5000001    2    3    3    0    0 -0.24378417399E+03 -0.59571313918E+02 -0.75408954771E+02  0.27458965604E+03  0.82057929625E+02 0.  0.
     200001    1    1    2    0    0 -0.26073079247E+02  0.24060373473E+03 -0.32419278645E+03  0.73446574148E+03  0.61300000000E+03 0. -1.
         13    1    4    4    0    0 -0.77279489540E+02  0.15409862762E+02 -0.17972869797E+02  0.80824616217E+02  0.10566000000E+00 0.  1.
    -200003    1    4    4    0    0 -0.16650468445E+03 -0.74981176680E+02 -0.57436084973E+02  0.19376503982E+03  0.30000000000E+02 0.  1.
    -200000    1    3    3    0    0  0.26985725323E+03 -0.18103242081E+03 -0.47507013399E+03  0.58437000840E+03  0.10100000000E+03 0.  1.
<mgrwt>
<rscale>  0 0.13318985E+04</rscale>
<asrwt>0</asrwt>
<pdfrwt beam="1">  1        2 0.17629266E+00 0.13318985E+04</pdfrwt>
<pdfrwt beam="2">  1       -2 0.51339538E-01 0.13318985E+04</pdfrwt>
<totfact> 0.71702083E+01</totfact>
</mgrwt>
</event>
<event>
 8    2  0.4480234E-052  0.1293145E+04  0.7818608E-02  0.9035019E-01
          2   -1    0    0  501    0  0.00000000000E+00  0.00000000000E+00  0.13854675189E+04  0.13854675189E+04  0.25500000000E-02 0.  1.
         -2   -1    0    0    0  501 -0.00000000000E+00 -0.00000000000E+00 -0.30174372049E+03  0.30174372051E+03  0.25500000000E-02 0. -1.
    -200001    2    1    2    0    0  0.13223954715E+03 -0.13731388283E+03  0.44202866816E+03  0.77953065658E+03  0.61313644552E+03 0.  0.
   -5000001    2    3    3    0    0  0.29273453080E+03 -0.73092458375E+02  0.48172443037E+03  0.57542336941E+03  0.89541131620E+02 0.  0.
     200001    1    1    2    0    0 -0.13223954715E+03  0.13731388283E+03  0.64169513021E+03  0.90768058279E+03  0.61300000000E+03 0. -1.
         13    1    4    4    0    0  0.18496479544E+03 -0.77478015504E+02  0.27530624858E+03  0.34060000016E+03  0.10566000000E+00 0.  1.
    -200003    1    4    4    0    0  0.10776973536E+03  0.43855571287E+01  0.20641818179E+03  0.23482336925E+03  0.30000000000E+02 0.  1.
    -200000    1    3    3    0    0 -0.16049498366E+03 -0.64221424459E+02 -0.39695762207E+02  0.20410728717E+03  0.10100000000E+03 0. -1.
<mgrwt>
<rscale>  0 0.12931452E+04</rscale>
<asrwt>0</asrwt>
<pdfrwt beam="1">  1        2 0.19792392E+00 0.12931452E+04</pdfrwt>
<pdfrwt beam="2">  1       -2 0.43106247E-01 0.12931452E+04</pdfrwt>
<totfact> 0.84306457E+01</totfact>
</mgrwt>
</event>
<event>
 8    2  0.4480234E-052  0.2068183E+04  0.7818608E-02  0.8575390E-01
          2   -1    0    0  501    0  0.00000000000E+00  0.00000000000E+00  0.27741849962E+04  0.27741849962E+04  0.25500000000E-02 0.  1.
         -2   -1    0    0    0  501 -0.00000000000E+00 -0.00000000000E+00 -0.38546284276E+03  0.38546284277E+03  0.25500000000E-02 0. -1.
    -200001    2    1    2    0    0 -0.27515834582E+03  0.71749857660E+03  0.16857017548E+04  0.19511268405E+04  0.61220030960E+03 0.  0.
   -5000001    2    3    3    0    0  0.34432947018E+02  0.34360102644E+03  0.25084286921E+03  0.43301381177E+03  0.73017278348E+02 0.  0.
     200001    1    1    2    0    0  0.27515834582E+03 -0.71749857660E+03  0.70302039865E+03  0.12085209984E+04  0.61300000000E+03 0. -1.
         13    1    4    4    0    0  0.26562418469E+02  0.64795956127E+02  0.30886569675E+02  0.76538025554E+02  0.10566000000E+00 0.  1.
    -200003    1    4    4    0    0  0.78705285481E+01  0.27880507031E+03  0.21995629954E+03  0.35647578622E+03  0.30000000000E+02 0.  1.
    -200000    1    3    3    0    0 -0.30959129284E+03  0.37389755016E+03  0.14348588855E+04  0.15181130287E+04  0.10100000000E+03 0. -1.
<mgrwt>
<rscale>  0 0.20681830E+04</rscale>
<asrwt>0</asrwt>
<pdfrwt beam="1">  1        2 0.39631214E+00 0.20681830E+04</pdfrwt>
<pdfrwt beam="2">  1       -2 0.55066121E-01 0.20681830E+04</pdfrwt>
<totfact> 0.90439157E+00</totfact>
</mgrwt>
</event>
<event>
 8    2  0.4480234E-052  0.1872994E+04  0.7818608E-02  0.8668417E-01
         -2   -1    0    0    0  501 -0.00000000000E+00  0.00000000000E+00  0.69947008011E+03  0.69947008012E+03  0.25500000000E-02 0. -1.
          2   -1    0    0  501    0  0.00000000000E+00 -0.00000000000E+00 -0.12538450442E+04  0.12538450442E+04  0.25500000000E-02 0.  1.
    -200001    2    1    2    0    0  0.50331779440E+03 -0.26724740362E+03  0.16169606192E+03  0.85182672621E+03  0.61213820184E+03 0.  0.
   -5000001    2    3    3    0    0  0.97794272358E+02 -0.31075122274E+03 -0.10311165264E+03  0.35517188138E+03  0.96876262696E+02 0.  0.
     200001    1    1    2    0    0 -0.50331779440E+03  0.26724740362E+03 -0.71607102602E+03  0.11014883981E+04  0.61300000000E+03 0.  1.
         13    1    4    4    0    0  0.91709763536E+02 -0.23019296570E+03 -0.10464628385E+03  0.26898018157E+03  0.10566000000E+00 0.  1.
    -200003    1    4    4    0    0  0.60845088224E+01 -0.80558257035E+02  0.15346312114E+01  0.86191699815E+02  0.30000000000E+02 0.  1.
    -200000    1    3    3    0    0  0.40552352204E+03  0.43503819121E+02  0.26480771456E+03  0.49665484483E+03  0.10100000000E+03 0. -1.
<mgrwt>
<rscale>  0 0.18729945E+04</rscale>
<asrwt>0</asrwt>
<pdfrwt beam="1">  1        2 0.17912072E+00 0.18729945E+04</pdfrwt>
<pdfrwt beam="2">  1       -2 0.99924297E-01 0.18729945E+04</pdfrwt>
<totfact> 0.15528736E+01</totfact>
</mgrwt>
</event>
<event>
 8    2  0.4480234E-052  0.2561697E+04  0.7818608E-02  0.8381329E-01
         -2   -1    0    0    0  501 -0.00000000000E+00  0.00000000000E+00  0.14874828205E+04  0.14874828205E+04  0.25500000000E-02 0. -1.
          2   -1    0    0  501    0  0.00000000000E+00 -0.00000000000E+00 -0.11029188982E+04  0.11029188982E+04  0.25500000000E-02 0.  1.
    -200001    2    1    2    0    0 -0.38249672368E+03 -0.89587570427E+03 -0.37624565129E+03  0.12107288487E+04  0.61270427925E+03 0.  0.
   -5000001    2    3    3    0    0 -0.42533054355E+01 -0.14720505229E+03  0.14388958119E+03  0.21860109046E+03  0.73449350924E+02 0.  0.
     200001    1    1    2    0    0  0.38249672368E+03  0.89587570427E+03  0.76080957356E+03  0.13796728700E+04  0.61300000000E+03 0. -1.
         13    1    4    4    0    0 -0.27737383965E+02 -0.10067970710E+03  0.91823028532E+02  0.13905842521E+03  0.10566000000E+00 0.  1.
    -200003    1    4    4    0    0  0.23484078529E+02 -0.46525345195E+02  0.52066552654E+02  0.79542665250E+02  0.30000000000E+02 0. -1.
    -200000    1    3    3    0    0 -0.37824341824E+03 -0.74867065197E+03 -0.52013523247E+03  0.99212775822E+03  0.10100000000E+03 0.  1.
<mgrwt>
<rscale>  0 0.25616970E+04</rscale>
<asrwt>0</asrwt>
<pdfrwt beam="1">  1        2 0.15755984E+00 0.25616970E+04</pdfrwt>
<pdfrwt beam="2">  1       -2 0.21249755E+00 0.25616970E+04</pdfrwt>
<totfact> 0.23961610E+00</totfact>
</mgrwt>
</event>
<event>
 8    2  0.4480234E-052  0.1340492E+04  0.7818608E-02  0.8998057E-01
          2   -1    0    0  501    0  0.00000000000E+00  0.00000000000E+00  0.32488060717E+03  0.32488060718E+03  0.25500000000E-02 0. -1.
         -2   -1    0    0    0  501 -0.00000000000E+00 -0.00000000000E+00 -0.13827535799E+04  0.13827535799E+04  0.25500000000E-02 0.  1.
    -200001    2    1    2    0    0 -0.26333745386E+03  0.57794271097E+02 -0.55808009046E+03  0.87202140740E+03  0.61341760264E+03 0.  0.
   -5000001    2    3    3    0    0 -0.26645730504E+03  0.11137297808E+03 -0.62948078767E+03  0.73719013924E+03  0.25258623020E+03 0.  0.
     200001    1    1    2    0    0  0.26333745386E+03 -0.57794271097E+02 -0.49979288228E+03  0.83561277967E+03  0.61300000000E+03 0. -1.
         13    1    4    4    0    0 -0.88454041972E+02  0.80471428433E+02 -0.50274710758E+02  0.12972018363E+03  0.10566000000E+00 0.  1.
    -200003    1    4    4    0    0 -0.17800326307E+03  0.30901549648E+02 -0.57920607691E+03  0.60746995561E+03  0.30000000000E+02 0.  1.
    -200000    1    3    3    0    0  0.31198511771E+01 -0.53578706984E+02  0.71400697212E+02  0.13483126817E+03  0.10100000000E+03 0. -1.
<mgrwt>
<rscale>  0 0.13404922E+04</rscale>
<asrwt>0</asrwt>
<pdfrwt beam="1">  1        2 0.46411516E-01 0.13404922E+04</pdfrwt>
<pdfrwt beam="2">  1       -2 0.19753622E+00 0.13404922E+04</pdfrwt>
<totfact> 0.14736144E+01</totfact>
</mgrwt>
</event>
<event>
 8    2  0.4480234E-052  0.1244565E+04  0.7818608E-02  0.9074719E-01
         -2   -1    0    0    0  501 -0.00000000000E+00  0.00000000000E+00  0.19329770276E+03  0.19329770278E+03  0.25500000000E-02 0. -1.
          2   -1    0    0  501    0  0.00000000000E+00 -0.00000000000E+00 -0.20033127145E+04  0.20033127145E+04  0.25500000000E-02 0.  1.
    -200001    2    1    2    0    0 -0.89542760349E+02 -0.81422024220E+01 -0.99675466272E+03  0.11742378841E+04  0.61419097136E+03 0.  0.
   -5000001    2    3    3    0    0  0.16794197621E+03 -0.17849396814E+03 -0.65574400187E+03  0.70327357069E+03  0.67297215445E+02 0.  0.
     200001    1    1    2    0    0  0.89542760349E+02  0.81422024220E+01 -0.81326034901E+03  0.10223725332E+04  0.61300000000E+03 0. -1.
         13    1    4    4    0    0  0.31129280978E+02 -0.36023035270E+02 -0.20126164900E+03  0.20681623178E+03  0.10566000000E+00 0.  1.
    -200003    1    4    4    0    0  0.13681269524E+03 -0.14247093287E+03 -0.45448235286E+03  0.49645733891E+03  0.30000000000E+02 0.  1.
    -200000    1    3    3    0    0 -0.25748473656E+03  0.17035176572E+03 -0.34101066085E+03  0.47096431336E+03  0.10100000000E+03 0.  1.
<mgrwt>
<rscale>  0 0.12445654E+04</rscale>
<asrwt>0</asrwt>
<pdfrwt beam="1">  1        2 0.28618752E+00 0.12445654E+04</pdfrwt>
<pdfrwt beam="2">  1       -2 0.27613959E-01 0.12445654E+04</pdfrwt>
<totfact> 0.94085730E+01</totfact>
</mgrwt>
</event>
<event>
 8    2  0.4480234E-052  0.1717227E+04  0.7818608E-02  0.8751600E-01
         -2   -1    0    0    0  501 -0.00000000000E+00  0.00000000000E+00  0.12556726596E+04  0.12556726596E+04  0.25500000000E-02 0. -1.
          2   -1    0    0  501    0  0.00000000000E+00 -0.00000000000E+00 -0.58710938256E+03  0.58710938257E+03  0.25500000000E-02 0.  1.
    -200001    2    1    2    0    0  0.33530141719E+03  0.32670498877E+03  0.73912903326E+03  0.10682423620E+04  0.61291665519E+03 0.  0.
   -5000001    2    3    3    0    0  0.43354238308E+03  0.22759953174E+03  0.25838731529E+03  0.55756949377E+03  0.66024169140E+02 0.  0.
     200001    1    1    2    0    0 -0.33530141719E+03 -0.32670498877E+03 -0.70565756265E+02  0.77453968008E+03  0.61300000000E+03 0.  1.
         13    1    4    4    0    0  0.10782820494E+03  0.39837009795E+02  0.39776112593E+02  0.12163905387E+03  0.10566000000E+00 0.  1.
    -200003    1    4    4    0    0  0.32571417814E+03  0.18776252194E+03  0.21861120270E+03  0.43593043990E+03  0.30000000000E+02 0.  1.
    -200000    1    3    3    0    0 -0.98240965897E+02  0.99105457038E+02  0.48074171797E+03  0.51067286827E+03  0.10100000000E+03 0. -1.
<mgrwt>
<rscale>  0 0.17172271E+04</rscale>
<asrwt>0</asrwt>
<pdfrwt beam="1">  1        2 0.83872770E-01 0.17172271E+04</pdfrwt>
<pdfrwt beam="2">  1       -2 0.17938181E+00 0.17172271E+04</pdfrwt>
<totfact> 0.97068119E+00</totfact>
</mgrwt>
</event>
<event>
 8    2  0.4480234E-052  0.1486012E+04  0.7818608E-02  0.8893808E-01
         -2   -1    0    0    0  501 -0.00000000000E+00  0.00000000000E+00  0.27824877409E+03  0.27824877410E+03  0.25500000000E-02 0. -1.
          2   -1    0    0  501    0  0.00000000000E+00 -0.00000000000E+00 -0.19840442708E+04  0.19840442708E+04  0.25500000000E-02 0.  1.
    -200001    2    1    2    0    0 -0.32259072383E+03 -0.26832453905E+03 -0.83362084719E+03  0.11166401949E+04  0.61310584302E+03 0.  0.
   -5000001    2    3    3    0    0 -0.37426462839E+03  0.51308794932E+02 -0.54809328947E+03  0.67328633309E+03  0.10100310819E+03 0.  0.
     200001    1    1    2    0    0  0.32259072383E+03  0.26832453905E+03 -0.87217464952E+03  0.11456528500E+04  0.61300000000E+03 0.  1.
         13    1    4    4    0    0  0.28297965529E+01  0.85245744439E+01 -0.23133358147E+02  0.24816114546E+02  0.10566000000E+00 0.  1.
    -200003    1    4    4    0    0 -0.37709442494E+03  0.42784220489E+02 -0.52495993132E+03  0.64847021854E+03  0.30000000000E+02 0.  1.
    -200000    1    3    3    0    0  0.51673904556E+02 -0.31963333398E+03 -0.28552755772E+03  0.44335386185E+03  0.10100000000E+03 0. -1.
<mgrwt>
<rscale>  0 0.14860120E+04</rscale>
<asrwt>0</asrwt>
<pdfrwt beam="1">  1        2 0.28343489E+00 0.14860120E+04</pdfrwt>
<pdfrwt beam="2">  1       -2 0.39749826E-01 0.14860120E+04</pdfrwt>
<totfact> 0.47412949E+01</totfact>
</mgrwt>
</event>
<event>
 8    2  0.4480234E-052  0.1647287E+04  0.7818608E-02  0.8792013E-01
         -2   -1    0    0    0  501 -0.00000000000E+00  0.00000000000E+00  0.42653316826E+03  0.42653316827E+03  0.25500000000E-02 0. -1.
          2   -1    0    0  501    0  0.00000000000E+00 -0.00000000000E+00 -0.15904708695E+04  0.15904708695E+04  0.25500000000E-02 0.  1.
    -200001    2    1    2    0    0  0.31708547355E+03 -0.11945131048E+03 -0.11125404629E+04  0.13147060318E+04  0.61310183110E+03 0.  0.
   -5000001    2    3    3    0    0  0.14910864998E+03  0.15017694136E+03 -0.87486526611E+03  0.90530878385E+03  0.96996170282E+02 0.  0.
     200001    1    1    2    0    0 -0.31708547355E+03  0.11945131048E+03 -0.51397238342E+02  0.70229800599E+03  0.61300000000E+03 0. -1.
         13    1    4    4    0    0  0.55476574461E+02  0.17184411820E+02 -0.35645122011E+03  0.36115154410E+03  0.10566000000E+00 0.  1.
    -200003    1    4    4    0    0  0.93632075519E+02  0.13299252954E+03 -0.51841404600E+03  0.54415723974E+03  0.30000000000E+02 0.  1.
    -200000    1    3    3    0    0  0.16797682357E+03 -0.26962825183E+03 -0.23767519679E+03  0.40939724793E+03  0.10100000000E+03 0. -1.
<mgrwt>
<rscale>  0 0.16472870E+04</rscale>
<asrwt>0</asrwt>
<pdfrwt beam="1">  1        2 0.22721012E+00 0.16472870E+04</pdfrwt>
<pdfrwt beam="2">  1       -2 0.60933310E-01 0.16472870E+04</pdfrwt>
<totfact> 0.31418205E+01</totfact>
</mgrwt>
</event>
<event>
 8    2  0.4480234E-052  0.2102915E+04  0.7818608E-02  0.8559960E-01
          2   -1    0    0  501    0  0.00000000000E+00  0.00000000000E+00  0.21992160798E+04  0.21992160798E+04  0.25500000000E-02 0.  1.
         -2   -1    0    0    0  501 -0.00000000000E+00 -0.00000000000E+00 -0.50270788403E+03  0.50270788403E+03  0.25500000000E-02 0. -1.
    -200001    2    1    2    0    0 -0.56958201440E+03 -0.28462694617E+01  0.30679526197E+02  0.83773890629E+03  0.61354174219E+03 0.  0.
   -5000001    2    3    3    0    0 -0.54086484504E+03  0.14812487516E+03 -0.14081296034E+03  0.58628784691E+03  0.97105048254E+02 0.  0.
     200001    1    1    2    0    0  0.56958201440E+03  0.28462694617E+01  0.16658286696E+04  0.18641850575E+04  0.61300000000E+03 0. -1.
         13    1    4    4    0    0 -0.40135101564E+03  0.78530051335E+02 -0.11971338363E+03  0.42612311848E+03  0.10566000000E+00 0.  1.
    -200003    1    4    4    0    0 -0.13951382940E+03  0.69594823825E+02 -0.21099576712E+02  0.16016472844E+03  0.30000000000E+02 0.  1.
    -200000    1    3    3    0    0 -0.28717169362E+02 -0.15097114462E+03  0.17149248654E+03  0.25145105938E+03  0.10100000000E+03 0.  1.
<mgrwt>
<rscale>  0 0.21029154E+04</rscale>
<asrwt>0</asrwt>
<pdfrwt beam="1">  1        2 0.31417372E+00 0.21029154E+04</pdfrwt>
<pdfrwt beam="2">  1       -2 0.71815412E-01 0.21029154E+04</pdfrwt>
<totfact> 0.10291579E+01</totfact>
</mgrwt>
</event>
<event>
 8    2  0.4480234E-052  0.1508969E+04  0.7818608E-02  0.8878510E-01
         -2   -1    0    0    0  501 -0.00000000000E+00  0.00000000000E+00  0.21770953015E+03  0.21770953016E+03  0.25500000000E-02 0. -1.
          2   -1    0    0  501    0  0.00000000000E+00 -0.00000000000E+00 -0.26147085506E+04  0.26147085506E+04  0.25500000000E-02 0.  1.
    -200001    2    1    2    0    0  0.45273793998E+02  0.42523505444E+03 -0.13927063213E+04  0.15805205636E+04  0.61281301113E+03 0.  0.
   -5000001    2    3    3    0    0 -0.15507092536E+03  0.30298288233E+03 -0.12246575617E+04  0.12747020132E+04  0.96090895144E+02 0.  0.
     200001    1    1    2    0    0 -0.45273793998E+02 -0.42523505444E+03 -0.10042926992E+04  0.12518975172E+04  0.61300000000E+03 0. -1.
         13    1    4    4    0    0 -0.13162597231E+03  0.21761977808E+03 -0.78327148943E+03  0.82352777835E+03  0.10566000000E+00 0.  1.
    -200003    1    4    4    0    0 -0.23444953053E+02  0.85363104258E+02 -0.44138607229E+03  0.45117423486E+03  0.30000000000E+02 0. -1.
    -200000    1    3    3    0    0  0.20034471936E+03  0.12225217211E+03 -0.16804875957E+03  0.30581855037E+03  0.10100000000E+03 0. -1.
<mgrwt>
<rscale>  0 0.15089691E+04</rscale>
<asrwt>0</asrwt>
<pdfrwt beam="1">  1        2 0.37352977E+00 0.15089691E+04</pdfrwt>
<pdfrwt beam="2">  1       -2 0.31101363E-01 0.15089691E+04</pdfrwt>
<totfact> 0.35581382E+01</totfact>
</mgrwt>
</event>
<event>
 8    2  0.4480234E-052  0.1841626E+04  0.7818608E-02  0.8684471E-01
         -2   -1    0    0    0  501 -0.00000000000E+00  0.00000000000E+00  0.98145790394E+03  0.98145790394E+03  0.25500000000E-02 0. -1.
          2   -1    0    0  501    0  0.00000000000E+00 -0.00000000000E+00 -0.86391509288E+03  0.86391509289E+03  0.25500000000E-02 0.  1.
    -200001    2    1    2    0    0  0.85104885942E+02  0.45321678602E+03  0.56908420072E+03  0.95525675537E+03  0.61319682356E+03 0.  0.
   -5000001    2    3    3    0    0  0.44335466501E+01  0.34981009536E+01 -0.70571551286E+02  0.16271953747E+03  0.14651078792E+03 0.  0.
     200001    1    1    2    0    0 -0.85104885942E+02 -0.45321678602E+03 -0.45154138967E+03  0.89011624146E+03  0.61300000000E+03 0.  1.
         13    1    4    4    0    0 -0.13914436200E+02 -0.29152896796E+02 -0.10090478271E+03  0.10594946562E+03  0.10566000000E+00 0.  1.
    -200003    1    4    4    0    0  0.18347982850E+02  0.32650997749E+02  0.30333231428E+02  0.56770071847E+02  0.30000000000E+02 0.  1.
    -200000    1    3    3    0    0  0.80671339292E+02  0.44971868506E+03  0.63965575201E+03  0.79253721790E+03  0.10100000000E+03 0. -1.
<mgrwt>
<rscale>  0 0.18416257E+04</rscale>
<asrwt>0</asrwt>
<pdfrwt beam="1">  1        2 0.12341644E+00 0.18416257E+04</pdfrwt>
<pdfrwt beam="2">  1       -2 0.14020827E+00 0.18416257E+04</pdfrwt>
<totfact> 0.11602292E+01</totfact>
</mgrwt>
</event>
<event>
 8    2  0.4480234E-052  0.3817341E+04  0.7818608E-02  0.8042444E-01
         -2   -1    0    0    0  501 -0.00000000000E+00  0.00000000000E+00  0.98458411843E+03  0.98458411843E+03  0.25500000000E-02 0. -1.
          2   -1    0    0  501    0  0.00000000000E+00 -0.00000000000E+00 -0.37000631266E+04  0.37000631266E+04  0.25500000000E-02 0.  1.
    -200001    2    1    2    0    0  0.16724464166E+04  0.20124125791E+02 -0.51811952259E+03  0.18559302734E+04  0.61526201168E+03 0.  0.
   -5000001    2    3    3    0    0  0.10408473072E+03  0.17822553041E+02  0.97017424819E+02  0.16822231904E+03  0.87949379409E+02 0.  0.
     200001    1    1    2    0    0 -0.16724464166E+04 -0.20124125791E+02 -0.21973594856E+04  0.28287169717E+04  0.61300000000E+03 0. -1.
         13    1    4    4    0    0  0.50195102795E+02 -0.11686553984E+02  0.25408910535E+01  0.51600302131E+02  0.10566000000E+00 0.  1.
    -200003    1    4    4    0    0  0.53889627924E+02  0.29509107026E+02  0.94476533766E+02  0.11662201691E+03  0.30000000000E+02 0.  1.
    -200000    1    3    3    0    0  0.15683616859E+04  0.23015727497E+01 -0.61513694741E+03  0.16877079543E+04  0.10100000000E+03 0.  1.
<mgrwt>
<rscale>  0 0.38173412E+04</rscale>
<asrwt>0</asrwt>
<pdfrwt beam="1">  1        2 0.52858044E+00 0.38173412E+04</pdfrwt>
<pdfrwt beam="2">  1       -2 0.14065488E+00 0.38173412E+04</pdfrwt>
<totfact> 0.25798252E-01</totfact>
</mgrwt>
</event>
<event>
 8    2  0.4480234E-052  0.1942195E+04  0.7818608E-02  0.8634134E-01
          2   -1    0    0  501    0  0.00000000000E+00  0.00000000000E+00  0.23971845889E+04  0.23971845889E+04  0.25500000000E-02 0.  1.
         -2   -1    0    0    0  501 -0.00000000000E+00 -0.00000000000E+00 -0.39339093055E+03  0.39339093056E+03  0.25500000000E-02 0. -1.
    -200001    2    1    2    0    0 -0.44358328273E+02 -0.15242332336E+03  0.20590045034E+04  0.21549515991E+04  0.61572422278E+03 0.  0.
   -5000001    2    3    3    0    0 -0.17183943373E+03 -0.33202453220E+03  0.13970990133E+04  0.14500913971E+04  0.10540553151E+03 0.  0.
     200001    1    1    2    0    0  0.44358328273E+02  0.15242332336E+03 -0.55210845029E+02  0.63562392041E+03  0.61300000000E+03 0. -1.
         13    1    4    4    0    0 -0.13839613345E+03 -0.28725656969E+03  0.10538213085E+04  0.11010037184E+04  0.10566000000E+00 0.  1.
    -200003    1    4    4    0    0 -0.33443300286E+02 -0.44767962508E+02  0.34327770479E+03  0.34908767868E+03  0.30000000000E+02 0. -1.
    -200000    1    3    3    0    0  0.12748110546E+03  0.17960120884E+03  0.66190549011E+03  0.70486020196E+03  0.10100000000E+03 0.  1.
<mgrwt>
<rscale>  0 0.19421953E+04</rscale>
<asrwt>0</asrwt>
<pdfrwt beam="1">  1        2 0.34245495E+00 0.19421953E+04</pdfrwt>
<pdfrwt beam="2">  1       -2 0.56198702E-01 0.19421953E+04</pdfrwt>
<totfact> 0.13899557E+01</totfact>
</mgrwt>
</event>
<event>
 8    2  0.4480234E-052  0.1499089E+04  0.7818608E-02  0.8885059E-01
         -2   -1    0    0    0  501 -0.00000000000E+00  0.00000000000E+00  0.10260716101E+04  0.10260716101E+04  0.25500000000E-02 0. -1.
          2   -1    0    0  501    0  0.00000000000E+00 -0.00000000000E+00 -0.54754132554E+03  0.54754132554E+03  0.25500000000E-02 0.  1.
    -200001    2    1    2    0    0 -0.13927179155E+03 -0.26170829126E+03 -0.89805687708E+02  0.68667289312E+03  0.61283500142E+03 0.  0.
   -5000001    2    3    3    0    0 -0.13921185016E+03 -0.10009214660E+03 -0.26490376739E+03  0.42786771675E+03  0.28896089705E+03 0.  0.
     200001    1    1    2    0    0  0.13927179155E+03  0.26170829126E+03  0.56833597225E+03  0.88694004250E+03  0.61300000000E+03 0. -1.
         13    1    4    4    0    0 -0.19865882008E+03  0.46659229584E+01 -0.21850441488E+03  0.29534943392E+03  0.10566000000E+00 0.  1.
    -200003    1    4    4    0    0  0.59446969923E+02 -0.10475806956E+03 -0.46399352514E+02  0.13251828283E+03  0.30000000000E+02 0.  1.
    -200000    1    3    3    0    0 -0.59941393721E-01 -0.16161614466E+03  0.17509807968E+03  0.25880517637E+03  0.10100000000E+03 0. -1.
<mgrwt>
<rscale>  0 0.14990885E+04</rscale>
<asrwt>0</asrwt>
<pdfrwt beam="1">  1        2 0.78220190E-01 0.14990885E+04</pdfrwt>
<pdfrwt beam="2">  1       -2 0.14658166E+00 0.14990885E+04</pdfrwt>
<totfact> 0.18622078E+01</totfact>
</mgrwt>
</event>
<event>
 8    2  0.4480234E-052  0.1306855E+04  0.7818608E-02  0.9024147E-01
         -2   -1    0    0    0  501 -0.00000000000E+00  0.00000000000E+00  0.43500023838E+03  0.43500023838E+03  0.25500000000E-02 0. -1.
          2   -1    0    0  501    0  0.00000000000E+00 -0.00000000000E+00 -0.98153416150E+03  0.98153416150E+03  0.25500000000E-02 0.  1.
    -200001    2    1    2    0    0 -0.91332178486E+02 -0.97004489125E+02 -0.77943602736E+02  0.63352908311E+03  0.61443669829E+03 0.  0.
   -5000001    2    3    3    0    0  0.86431999168E+02 -0.13491662119E+03 -0.28789541269E+03  0.33803256009E+03  0.75559631278E+02 0.  0.
     200001    1    1    2    0    0  0.91332178486E+02  0.97004489125E+02 -0.46859032039E+03  0.78300531677E+03  0.61300000000E+03 0.  1.
         13    1    4    4    0    0  0.29243061723E+02 -0.27626495956E+02 -0.26454738992E+02  0.48148149673E+02  0.10566000000E+00 0.  1.
    -200003    1    4    4    0    0  0.57188937445E+02 -0.10729012524E+03 -0.26144067370E+03  0.28988441042E+03  0.30000000000E+02 0.  1.
    -200000    1    3    3    0    0 -0.17776417765E+03  0.37912132068E+02  0.20995180995E+03  0.29549652302E+03  0.10100000000E+03 0. -1.
<mgrwt>
<rscale>  0 0.13068551E+04</rscale>
<asrwt>0</asrwt>
<pdfrwt beam="1">  1        2 0.14021917E+00 0.13068551E+04</pdfrwt>
<pdfrwt beam="2">  1       -2 0.62142892E-01 0.13068551E+04</pdfrwt>
<totfact> 0.67988934E+01</totfact>
</mgrwt>
</event>
<event>
 8    2  0.4480234E-052  0.1257512E+04  0.7818608E-02  0.9063954E-01
          2   -1    0    0  501    0  0.00000000000E+00  0.00000000000E+00  0.15936304805E+04  0.15936304805E+04  0.25500000000E-02 0.  1.
         -2   -1    0    0    0  501 -0.00000000000E+00 -0.00000000000E+00 -0.24807136742E+03  0.24807136743E+03  0.25500000000E-02 0. -1.
    -200001    2    1    2    0    0 -0.13588074725E+03  0.37017382254E+01  0.60413968652E+03  0.87013144574E+03  0.61128282464E+03 0.  0.
   -5000001    2    3    3    0    0 -0.92284886786E+01 -0.24997639486E+03  0.47565062393E+03  0.54286423226E+03  0.76711769869E+02 0.  0.
     200001    1    1    2    0    0  0.13588074725E+03 -0.37017382254E+01  0.74141942656E+03  0.97157040219E+03  0.61300000000E+03 0. -1.
         13    1    4    4    0    0 -0.28888935630E+02 -0.45800704205E+02  0.10714811576E+03  0.12005417520E+03  0.10566000000E+00 0.  1.
    -200003    1    4    4    0    0  0.19660446952E+02 -0.20417569066E+03  0.36850250817E+03  0.42281005707E+03  0.30000000000E+02 0.  1.
    -200000    1    3    3    0    0 -0.12665225858E+03  0.25367813309E+03  0.12848906259E+03  0.32726721347E+03  0.10100000000E+03 0. -1.
<mgrwt>
<rscale>  0 0.12575120E+04</rscale>
<asrwt>0</asrwt>
<pdfrwt beam="1">  1        2 0.22766149E+00 0.12575120E+04</pdfrwt>
<pdfrwt beam="2">  1       -2 0.35438768E-01 0.12575120E+04</pdfrwt>
<totfact> 0.95844048E+01</totfact>
</mgrwt>
</event>
<event>
 8    2  0.4480234E-052  0.1357226E+04  0.7818608E-02  0.8985376E-01
         -2   -1    0    0    0  501 -0.00000000000E+00  0.00000000000E+00  0.17377520360E+03  0.17377520362E+03  0.25500000000E-02 0.  1.
          2   -1    0    0  501    0  0.00000000000E+00 -0.00000000000E+00 -0.26500637782E+04  0.26500637782E+04  0.25500000000E-02 0. -1.
    -200001    2    1    2    0    0  0.51387694975E+02  0.11425899329E+03 -0.68714633541E+03  0.92845122075E+03  0.61168273664E+03 0.  0.
   -5000001    2    3    3    0    0  0.17519894228E+03 -0.35026034578E+02 -0.67977057108E+03  0.70965760475E+03  0.98002011192E+02 0.  0.
     200001    1    1    2    0    0 -0.51387694975E+02 -0.11425899329E+03 -0.17891422392E+04  0.18953877611E+04  0.61300000000E+03 0. -1.
         13    1    4    4    0    0  0.71170333037E+02 -0.38304297561E+02 -0.42816800997E+03  0.43572960818E+03  0.10566000000E+00 0.  1.
    -200003    1    4    4    0    0  0.10402860924E+03  0.32782629833E+01 -0.25160256111E+03  0.27392799657E+03  0.30000000000E+02 0.  1.
    -200000    1    3    3    0    0 -0.12381124730E+03  0.14928502787E+03 -0.73757643302E+01  0.21879361600E+03  0.10100000000E+03 0.  1.
<mgrwt>
<rscale>  0 0.13572257E+04</rscale>
<asrwt>0</asrwt>
<pdfrwt beam="1">  1        2 0.37858051E+00 0.13572257E+04</pdfrwt>
<pdfrwt beam="2">  1       -2 0.24825031E-01 0.13572257E+04</pdfrwt>
<totfact> 0.52268126E+01</totfact>
</mgrwt>
</event>
<event>
 8    2  0.4480234E-052  0.1490265E+04  0.7818608E-02  0.8890952E-01
         -2   -1    0    0    0  501 -0.00000000000E+00  0.00000000000E+00  0.57579182892E+03  0.57579182893E+03  0.25500000000E-02 0. -1.
          2   -1    0    0  501    0  0.00000000000E+00 -0.00000000000E+00 -0.96427675264E+03  0.96427675264E+03  0.25500000000E-02 0.  1.
    -200001    2    1    2    0    0 -0.31911990939E+03 -0.27188529466E+03 -0.21803340176E+03  0.77810936261E+03  0.61818806675E+03 0.  0.
   -5000001    2    3    3    0    0 -0.21343707713E+03 -0.38295835674E+03 -0.33704351407E+03  0.55931609721E+03  0.83807382299E+02 0.  0.
     200001    1    1    2    0    0  0.31911990939E+03  0.27188529466E+03 -0.17045152195E+03  0.76195921896E+03  0.61300000000E+03 0. -1.
         13    1    4    4    0    0 -0.65901823247E+02 -0.81304253036E+02 -0.11569296333E+03  0.15600738700E+03  0.10566000000E+00 0.  1.
    -200003    1    4    4    0    0 -0.14753525388E+03 -0.30165410370E+03 -0.22135055074E+03  0.40330871021E+03  0.30000000000E+02 0.  1.
    -200000    1    3    3    0    0 -0.10568283226E+03  0.11107306207E+03  0.11901011231E+03  0.21879326540E+03  0.10100000000E+03 0. -1.
<mgrwt>
<rscale>  0 0.14902653E+04</rscale>
<asrwt>0</asrwt>
<pdfrwt beam="1">  1        2 0.13775382E+00 0.14902653E+04</pdfrwt>
<pdfrwt beam="2">  1       -2 0.82255976E-01 0.14902653E+04</pdfrwt>
<totfact> 0.37189709E+01</totfact>
</mgrwt>
</event>
<event>
 8    2  0.4480234E-052  0.1385519E+04  0.7818608E-02  0.8964368E-01
         -2   -1    0    0    0  501 -0.00000000000E+00  0.00000000000E+00  0.61595687737E+03  0.61595687738E+03  0.25500000000E-02 0. -1.
          2   -1    0    0  501    0  0.00000000000E+00 -0.00000000000E+00 -0.77913833324E+03  0.77913833324E+03  0.25500000000E-02 0.  1.
    -200001    2    1    2    0    0 -0.84345203716E+02 -0.16451863605E+03 -0.34796524349E+03  0.72869102158E+03  0.61296843251E+03 0.  0.
   -5000001    2    3    3    0    0 -0.32753197840E+03 -0.71473030841E+02 -0.10440587653E+03  0.35812462097E+03  0.70477415377E+02 0.  0.
     200001    1    1    2    0    0  0.84345203716E+02  0.16451863605E+03  0.18478378763E+03  0.66640418904E+03  0.61300000000E+03 0. -1.
         13    1    4    4    0    0 -0.10513375820E+03 -0.39277067867E+02 -0.10450759188E+02  0.11271656801E+03  0.10566000000E+00 0.  1.
    -200003    1    4    4    0    0 -0.22239822020E+03 -0.32195962974E+02 -0.93955117344E+02  0.24540805296E+03  0.30000000000E+02 0.  1.
    -200000    1    3    3    0    0  0.24318677468E+03 -0.93045605208E+02 -0.24355936696E+03  0.37056640061E+03  0.10100000000E+03 0. -1.
<mgrwt>
<rscale>  0 0.13855188E+04</rscale>
<asrwt>0</asrwt>
<pdfrwt beam="1">  1        2 0.11130548E+00 0.13855188E+04</pdfrwt>
<pdfrwt beam="2">  1       -2 0.87993840E-01 0.13855188E+04</pdfrwt>
<totfact> 0.42731196E+01</totfact>
</mgrwt>
</event>
<event>
 8    2  0.4480234E-052  0.1400019E+04  0.7818608E-02  0.8953804E-01
         -2   -1    0    0    0  501 -0.00000000000E+00  0.00000000000E+00  0.12628167971E+03  0.12628167974E+03  0.25500000000E-02 0. -1.
          2   -1    0    0  501    0  0.00000000000E+00 -0.00000000000E+00 -0.38803225205E+04  0.38803225205E+04  0.25500000000E-02 0.  1.
    -200001    2    1    2    0    0 -0.40814697086E+02 -0.23747920383E+03 -0.12002066731E+04  0.13692001417E+04  0.61331130614E+03 0.  0.
   -5000001    2    3    3    0    0  0.43399164601E+02 -0.20769385720E+02 -0.12463190250E+02  0.15470819001E+03  0.14650746764E+03 0.  0.
     200001    1    1    2    0    0  0.40814697086E+02  0.23747920383E+03 -0.25538341677E+04  0.26374040586E+04  0.61300000000E+03 0.  1.
         13    1    4    4    0    0 -0.33063772142E+01  0.52090687464E+02 -0.31762403664E+02  0.61100190682E+02  0.10566000000E+00 0.  1.
    -200003    1    4    4    0    0  0.46705541815E+02 -0.72860073184E+02  0.19299213414E+02  0.93607999333E+02  0.30000000000E+02 0.  1.
    -200000    1    3    3    0    0 -0.84213861687E+02 -0.21670981811E+03 -0.11877434828E+04  0.12144919517E+04  0.10100000000E+03 0.  1.
<mgrwt>
<rscale>  0 0.14000195E+04</rscale>
<asrwt>0</asrwt>
<pdfrwt beam="1">  1        2 0.55433171E+00 0.14000195E+04</pdfrwt>
<pdfrwt beam="2">  1       -2 0.18040242E-01 0.14000195E+04</pdfrwt>
<totfact> 0.17465672E+01</totfact>
</mgrwt>
</event>
<event>
 8    2  0.4480234E-052  0.1490906E+04  0.7818608E-02  0.8890523E-01
          2   -1    0    0  501    0  0.00000000000E+00  0.00000000000E+00  0.76834250941E+03  0.76834250941E+03  0.25500000000E-02 0.  1.
         -2   -1    0    0    0  501 -0.00000000000E+00 -0.00000000000E+00 -0.72324533834E+03  0.72324533835E+03  0.25500000000E-02 0. -1.
    -200001    2    1    2    0    0 -0.36938984649E+03 -0.18294072668E+03 -0.78137546253E+02  0.74267399175E+03  0.61281564416E+03 0.  0.
   -5000001    2    3    3    0    0  0.15676844152E+03 -0.69884581848E+02 -0.44519630137E+01  0.19017530298E+03  0.81771797411E+02 0.  0.
     200001    1    1    2    0    0  0.36938984649E+03  0.18294072668E+03  0.12323471732E+03  0.74891385601E+03  0.61300000000E+03 0. -1.
         13    1    4    4    0    0  0.13809151988E+03 -0.69378896050E+02  0.10505433704E+00  0.15454035486E+03  0.10566000000E+00 0.  1.
    -200003    1    4    4    0    0  0.18676921631E+02 -0.50568579767E+00 -0.45570173507E+01  0.35634948111E+02  0.30000000000E+02 0.  1.
    -200000    1    3    3    0    0 -0.52615828801E+03 -0.11305614483E+03 -0.73685583239E+02  0.55249868878E+03  0.10100000000E+03 0. -1.
<mgrwt>
<rscale>  0 0.14909060E+04</rscale>
<asrwt>0</asrwt>
<pdfrwt beam="1">  1        2 0.10976322E+00 0.14909060E+04</pdfrwt>
<pdfrwt beam="2">  1       -2 0.10332076E+00 0.14909060E+04</pdfrwt>
<totfact> 0.29638742E+01</totfact>
</mgrwt>
</event>
<event>
 8    2  0.4480234E-052  0.1688800E+04  0.7818608E-02  0.8767778E-01
          2   -1    0    0  501    0  0.00000000000E+00  0.00000000000E+00  0.46026524058E+03  0.46026524058E+03  0.25500000000E-02 0.  1.
         -2   -1    0    0    0  501 -0.00000000000E+00 -0.00000000000E+00 -0.15491312812E+04  0.15491312812E+04  0.25500000000E-02 0. -1.
    -200001    2    1    2    0    0 -0.12609152696E+03  0.51365397518E+03 -0.25844197530E+03  0.84960662371E+03  0.61261707540E+03 0.  0.
   -5000001    2    3    3    0    0 -0.97466267440E+02 -0.95233718711E+02 -0.14846455812E+03  0.22202422948E+03  0.93187440099E+02 0.  0.
     200001    1    1    2    0    0  0.12609152696E+03 -0.51365397518E+03 -0.83042406529E+03  0.11597898980E+04  0.61300000000E+03 0. -1.
         13    1    4    4    0    0 -0.57183912329E+02 -0.92905191174E+02 -0.72715242197E+02  0.13110641475E+03  0.10566000000E+00 0.  1.
    -200003    1    4    4    0    0 -0.40282355111E+02 -0.23285275375E+01 -0.75749315919E+02  0.90917814734E+02  0.30000000000E+02 0.  1.
    -200000    1    3    3    0    0 -0.28625259520E+02  0.60888769389E+03 -0.10997741718E+03  0.62758239423E+03  0.10100000000E+03 0.  1.
<mgrwt>
<rscale>  0 0.16887999E+04</rscale>
<asrwt>0</asrwt>
<pdfrwt beam="1">  1        2 0.65752178E-01 0.16887999E+04</pdfrwt>
<pdfrwt beam="2">  1       -2 0.22130447E+00 0.16887999E+04</pdfrwt>
<totfact> 0.68293138E+00</totfact>
</mgrwt>
</event>
<event>
 8    2  0.4480234E-052  0.1311552E+04  0.7818608E-02  0.9020454E-01
         -2   -1    0    0    0  501 -0.00000000000E+00  0.00000000000E+00  0.20266999916E+03  0.20266999917E+03  0.25500000000E-02 0. -1.
          2   -1    0    0  501    0  0.00000000000E+00 -0.00000000000E+00 -0.21218844404E+04  0.21218844404E+04  0.25500000000E-02 0.  1.
    -200001    2    1    2    0    0  0.11459939996E+03 -0.54129506578E+01 -0.13189527053E+04  0.14589647711E+04  0.61300868021E+03 0.  0.
   -5000001    2    3    3    0    0  0.34812337948E+03 -0.57096562526E+02 -0.68562019900E+03  0.77448269809E+03  0.72790710769E+02 0.  0.
     200001    1    1    2    0    0 -0.11459939996E+03  0.54129506578E+01 -0.60026173590E+03  0.86558966843E+03  0.61300000000E+03 0. -1.
         13    1    4    4    0    0  0.23628233128E+03 -0.61300781123E+02 -0.47770944601E+03  0.53646384017E+03  0.10566000000E+00 0.  1.
    -200003    1    4    4    0    0  0.11184104820E+03  0.42042185969E+01 -0.20791075299E+03  0.23801885792E+03  0.30000000000E+02 0. -1.
    -200000    1    3    3    0    0 -0.23352397951E+03  0.51683611868E+02 -0.63333250633E+03  0.68448207305E+03  0.10100000000E+03 0. -1.
<mgrwt>
<rscale>  0 0.13115522E+04</rscale>
<asrwt>0</asrwt>
<pdfrwt beam="1">  1        2 0.30312634E+00 0.13115522E+04</pdfrwt>
<pdfrwt beam="2">  1       -2 0.28952858E-01 0.13115522E+04</pdfrwt>
<totfact> 0.74572133E+01</totfact>
</mgrwt>
</event>
<event>
 8    2  0.4480234E-052  0.1292505E+04  0.7818608E-02  0.9035530E-01
          2   -1    0    0  501    0  0.00000000000E+00  0.00000000000E+00  0.22872153161E+03  0.22872153163E+03  0.25500000000E-02 0.  1.
         -2   -1    0    0    0  501 -0.00000000000E+00 -0.00000000000E+00 -0.18259854643E+04  0.18259854643E+04  0.25500000000E-02 0. -1.
    -200001    2    1    2    0    0 -0.19446391865E+02  0.19386904905E+03 -0.71221859766E+03  0.96061485384E+03  0.61446089886E+03 0.  0.
   -5000001    2    3    3    0    0 -0.25986865893E+03  0.15223313363E+03 -0.21425755435E+03  0.39696370587E+03  0.14480068133E+03 0.  0.
     200001    1    1    2    0    0  0.19446391865E+02 -0.19386904905E+03 -0.88504533506E+03  0.10940921421E+04  0.61300000000E+03 0.  1.
         13    1    4    4    0    0 -0.91884725228E+02  0.87665175654E+02 -0.16771438840E+02  0.12809870443E+03  0.10566000000E+00 0.  1.
    -200003    1    4    4    0    0 -0.16798393370E+03  0.64567957972E+02 -0.19748611551E+03  0.26886500144E+03  0.30000000000E+02 0.  1.
    -200000    1    3    3    0    0  0.24042226706E+03  0.41635915425E+02 -0.49796104331E+03  0.56365114797E+03  0.10100000000E+03 0.  1.
<mgrwt>
<rscale>  0 0.12925048E+04</rscale>
<asrwt>0</asrwt>
<pdfrwt beam="1">  1        2 0.32674506E-01 0.12925048E+04</pdfrwt>
<pdfrwt beam="2">  1       -2 0.26085506E+00 0.12925048E+04</pdfrwt>
<totfact> 0.87765699E+00</totfact>
</mgrwt>
</event>
<event>
 8    2  0.4480234E-052  0.1525166E+04  0.7818608E-02  0.8867888E-01
          2   -1    0    0  501    0  0.00000000000E+00  0.00000000000E+00  0.28748554926E+04  0.28748554926E+04  0.25500000000E-02 0.  1.
         -2   -1    0    0    0  501 -0.00000000000E+00 -0.00000000000E+00 -0.20228251311E+03  0.20228251312E+03  0.25500000000E-02 0. -1.
    -200001    2    1    2    0    0  0.38887361856E+03 -0.16121581486E+03  0.99414167230E+03  0.12413510129E+04  0.61271644533E+03 0.  0.
   -5000001    2    3    3    0    0  0.29546775802E+03  0.18607660719E+03  0.61226372166E+03  0.70715212633E+03  0.57197597233E+02 0.  0.
     200001    1    1    2    0    0 -0.38887361856E+03  0.16121581486E+03  0.16784313072E+04  0.18357869928E+04  0.61300000000E+03 0.  1.
         13    1    4    4    0    0  0.35254406920E+02  0.31118427879E+02  0.56442045685E+02  0.73463905737E+02  0.10566000000E+00 0.  1.
    -200003    1    4    4    0    0  0.26021335110E+03  0.15495817932E+03  0.55582167598E+03  0.63368822059E+03  0.30000000000E+02 0.  1.
    -200000    1    3    3    0    0  0.93405860544E+02 -0.34729242206E+03  0.38187795064E+03  0.53419888655E+03  0.10100000000E+03 0. -1.
<mgrwt>
<rscale>  0 0.15251662E+04</rscale>
<asrwt>0</asrwt>
<pdfrwt beam="1">  1        2 0.41069367E+00 0.15251662E+04</pdfrwt>
<pdfrwt beam="2">  1       -2 0.28897500E-01 0.15251662E+04</pdfrwt>
<totfact> 0.29508596E+01</totfact>
</mgrwt>
</event>
<event>
 8    2  0.4480234E-052  0.1378136E+04  0.7818608E-02  0.8969799E-01
          2   -1    0    0  501    0  0.00000000000E+00  0.00000000000E+00  0.31798620241E+04  0.31798620241E+04  0.25500000000E-02 0.  1.
         -2   -1    0    0    0  501 -0.00000000000E+00 -0.00000000000E+00 -0.14931930847E+03  0.14931930850E+03  0.25500000000E-02 0. -1.
    -200001    2    1    2    0    0  0.16280741763E+03  0.25036493515E+03  0.17768420746E+04  0.19020432337E+04  0.60943568065E+03 0.  0.
   -5000001    2    3    3    0    0  0.16795951071E+03  0.33419985919E+03  0.17060393280E+04  0.17528156643E+04  0.14796155284E+03 0.  0.
     200001    1    1    2    0    0 -0.16280741763E+03 -0.25036493515E+03  0.12537006410E+04  0.14271380989E+04  0.61300000000E+03 0.  1.
         13    1    4    4    0    0 -0.48208790754E+01 -0.10313304668E+02  0.19877920715E+02  0.22907379253E+02  0.10566000000E+00 0.  1.
    -200003    1    4    4    0    0  0.17278038979E+03  0.34451316385E+03  0.16861614073E+04  0.17299082850E+04  0.30000000000E+02 0.  1.
    -200000    1    3    3    0    0 -0.51520930858E+01 -0.83834924039E+02  0.70802746580E+02  0.14922756942E+03  0.10100000000E+03 0. -1.
<mgrwt>
<rscale>  0 0.13781361E+04</rscale>
<asrwt>0</asrwt>
<pdfrwt beam="1">  1        2 0.45426600E+00 0.13781361E+04</pdfrwt>
<pdfrwt beam="2">  1       -2 0.21331330E-01 0.13781361E+04</pdfrwt>
<totfact> 0.35000240E+01</totfact>
</mgrwt>
</event>
<event>
 8    2  0.4480234E-052  0.1892134E+04  0.7818608E-02  0.8658782E-01
         -2   -1    0    0    0  501 -0.00000000000E+00  0.00000000000E+00  0.32422453631E+03  0.32422453632E+03  0.25500000000E-02 0.  1.
          2   -1    0    0  501    0  0.00000000000E+00 -0.00000000000E+00 -0.27605642450E+04  0.27605642450E+04  0.25500000000E-02 0. -1.
    -200001    2    1    2    0    0 -0.23956532486E+03  0.65944379397E+03 -0.14869923456E+04  0.17546432712E+04  0.61267373944E+03 0.  0.
   -5000001    2    3    3    0    0 -0.39563892605E+03  0.52321783265E+03 -0.88314040064E+03  0.11083038457E+04  0.13458598341E+03 0.  0.
     200001    1    1    2    0    0  0.23956532486E+03 -0.65944379397E+03 -0.94934736307E+03  0.13301455101E+04  0.61300000000E+03 0.  1.
         13    1    4    4    0    0 -0.21141717237E+02  0.10046834542E+03 -0.16276315550E+03  0.19243886456E+03  0.10566000000E+00 0.  1.
    -200003    1    4    4    0    0 -0.37449720881E+03  0.42274948722E+03 -0.72037724514E+03  0.91586498114E+03  0.30000000000E+02 0.  1.
    -200000    1    3    3    0    0  0.15607360119E+03  0.13622596132E+03 -0.60385194500E+03  0.64633942554E+03  0.10100000000E+03 0.  1.
<mgrwt>
<rscale>  0 0.18921339E+04</rscale>
<asrwt>0</asrwt>
<pdfrwt beam="1">  1        2 0.39436631E+00 0.18921339E+04</pdfrwt>
<pdfrwt beam="2">  1       -2 0.46317793E-01 0.18921339E+04</pdfrwt>
<totfact> 0.13294219E+01</totfact>
</mgrwt>
</event>
<event>
 8    2  0.4480234E-052  0.1449171E+04  0.7818608E-02  0.8918975E-01
         -2   -1    0    0    0  501 -0.00000000000E+00  0.00000000000E+00  0.14736236150E+03  0.14736236152E+03  0.25500000000E-02 0. -1.
          2   -1    0    0  501    0  0.00000000000E+00 -0.00000000000E+00 -0.35628099232E+04  0.35628099232E+04  0.25500000000E-02 0.  1.
    -200001    2    1    2    0    0  0.15044018131E+03 -0.16347520206E+03 -0.25140775071E+04  0.25977005479E+04  0.61490327296E+03 0.  0.
   -5000001    2    3    3    0    0  0.13330961031E+03 -0.19956853959E+03 -0.59544593882E+03  0.67599706395E+03  0.21170052012E+03 0.  0.
     200001    1    1    2    0    0 -0.15044018131E+03  0.16347520206E+03 -0.90137005455E+03  0.11124717368E+04  0.61300000000E+03 0. -1.
         13    1    4    4    0    0  0.59429181613E+02 -0.16522317612E+03 -0.55132107017E+03  0.57860648038E+03  0.10566000000E+00 0.  1.
    -200003    1    4    4    0    0  0.73880428694E+02 -0.34345363468E+02 -0.44124868647E+02  0.97390583574E+02  0.30000000000E+02 0.  1.
    -200000    1    3    3    0    0  0.17130570998E+02  0.36093337531E+02 -0.19186315683E+04  0.19217034840E+04  0.10100000000E+03 0.  1.
<mgrwt>
<rscale>  0 0.14491709E+04</rscale>
<asrwt>0</asrwt>
<pdfrwt beam="1">  1        2 0.50897279E+00 0.14491709E+04</pdfrwt>
<pdfrwt beam="2">  1       -2 0.21051768E-01 0.14491709E+04</pdfrwt>
<totfact> 0.21112757E+01</totfact>
</mgrwt>
</event>
<event>
 8    2  0.4480234E-052  0.1314577E+04  0.7818608E-02  0.9018084E-01
          2   -1    0    0  501    0  0.00000000000E+00  0.00000000000E+00  0.11728870540E+04  0.11728870540E+04  0.25500000000E-02 0.  1.
         -2   -1    0    0    0  501 -0.00000000000E+00 -0.00000000000E+00 -0.36834615181E+03  0.36834615182E+03  0.25500000000E-02 0. -1.
    -200001    2    1    2    0    0  0.67681980191E+01  0.45103807836E+02  0.12935068884E+03  0.62814449919E+03  0.61298756037E+03 0.  0.
   -5000001    2    3    3    0    0  0.17678228975E+03 -0.10540535962E+03  0.26409441682E+03  0.34545266502E+03  0.85025966428E+02 0.  0.
     200001    1    1    2    0    0 -0.67681980191E+01 -0.45103807836E+02  0.67519021333E+03  0.91308870662E+03  0.61300000000E+03 0.  1.
         13    1    4    4    0    0  0.12945025319E+03 -0.10378181545E+03  0.18495492242E+03  0.24846804173E+03  0.10566000000E+00 0.  1.
    -200003    1    4    4    0    0  0.47332036565E+02 -0.16235441647E+01  0.79139494394E+02  0.96984623286E+02  0.30000000000E+02 0. -1.
    -200000    1    3    3    0    0 -0.17001409173E+03  0.15050916745E+03 -0.13474372798E+03  0.28269183417E+03  0.10100000000E+03 0. -1.
<mgrwt>
<rscale>  0 0.13145774E+04</rscale>
<asrwt>0</asrwt>
<pdfrwt beam="1">  1        2 0.16755530E+00 0.13145774E+04</pdfrwt>
<pdfrwt beam="2">  1       -2 0.52620878E-01 0.13145774E+04</pdfrwt>
<totfact> 0.73947774E+01</totfact>
</mgrwt>
</event>
<event>
 8    2  0.4480234E-052  0.1945337E+04  0.7818608E-02  0.8632613E-01
          2   -1    0    0  501    0  0.00000000000E+00  0.00000000000E+00  0.24968162015E+04  0.24968162015E+04  0.25500000000E-02 0.  1.
         -2   -1    0    0    0  501 -0.00000000000E+00 -0.00000000000E+00 -0.37891619040E+03  0.37891619040E+03  0.25500000000E-02 0. -1.
    -200001    2    1    2    0    0 -0.25475864521E+03  0.80395381035E+02  0.21031631600E+04  0.22068889428E+04  0.61294220277E+03 0.  0.
   -5000001    2    3    3    0    0 -0.22063488625E+03  0.23041188436E+02  0.86298477389E+03  0.96081616661E+03  0.35946395739E+03 0.  0.
     200001    1    1    2    0    0  0.25475864521E+03 -0.80395381035E+02  0.14736851146E+02  0.66884344908E+03  0.61300000000E+03 0. -1.
         13    1    4    4    0    0 -0.15210441031E+03  0.60970134020E+01  0.76075967476E+02  0.17017781641E+03  0.10566000000E+00 0.  1.
    -200003    1    4    4    0    0 -0.68530475948E+02  0.16944175034E+02  0.78690880641E+03  0.79063835020E+03  0.30000000000E+02 0.  1.
    -200000    1    3    3    0    0 -0.34123758952E+02  0.57354192599E+02  0.12401783861E+04  0.12460727762E+04  0.10100000000E+03 0.  1.
<mgrwt>
<rscale>  0 0.19453371E+04</rscale>
<asrwt>0</asrwt>
<pdfrwt beam="1">  1        2 0.35668803E+00 0.19453371E+04</pdfrwt>
<pdfrwt beam="2">  1       -2 0.54130884E-01 0.19453371E+04</pdfrwt>
<totfact> 0.13317924E+01</totfact>
</mgrwt>
</event>
<event>
 8    2  0.4480234E-052  0.1985744E+04  0.7818608E-02  0.8613315E-01
         -2   -1    0    0    0  501 -0.00000000000E+00  0.00000000000E+00  0.54167213061E+03  0.54167213061E+03  0.25500000000E-02 0. -1.
          2   -1    0    0  501    0  0.00000000000E+00 -0.00000000000E+00 -0.18199097851E+04  0.18199097851E+04  0.25500000000E-02 0.  1.
    -200001    2    1    2    0    0 -0.76262980463E+02 -0.71843860112E+03 -0.99192342539E+03  0.13717764280E+04  0.61309739902E+03 0.  0.
   -5000001    2    3    3    0    0 -0.18347670827E+02 -0.10224391392E+03 -0.64030360258E+03  0.65282748998E+03  0.73515802636E+02 0.  0.
     200001    1    1    2    0    0  0.76262980463E+02  0.71843860112E+03 -0.28631422908E+03  0.98980548773E+03  0.61300000000E+03 0. -1.
         13    1    4    4    0    0  0.21104925081E+00 -0.84790666628E+02 -0.36465190093E+03  0.37438018338E+03  0.10566000000E+00 0.  1.
    -200003    1    4    4    0    0 -0.18558720078E+02 -0.17453247294E+02 -0.27565170165E+03  0.27844730660E+03  0.30000000000E+02 0.  1.
    -200000    1    3    3    0    0 -0.57915309637E+02 -0.61619468720E+03 -0.35161982281E+03  0.71894893797E+03  0.10100000000E+03 0.  1.
<mgrwt>
<rscale>  0 0.19857436E+04</rscale>
<asrwt>0</asrwt>
<pdfrwt beam="1">  1        2 0.25998711E+00 0.19857436E+04</pdfrwt>
<pdfrwt beam="2">  1       -2 0.77381734E-01 0.19857436E+04</pdfrwt>
<totfact> 0.13820195E+01</totfact>
</mgrwt>
</event>
<event>
 8    2  0.4480234E-052  0.1257823E+04  0.7818608E-02  0.9063697E-01
          2   -1    0    0  501    0  0.00000000000E+00  0.00000000000E+00  0.26932663344E+04  0.26932663344E+04  0.25500000000E-02 0.  1.
         -2   -1    0    0    0  501 -0.00000000000E+00 -0.00000000000E+00 -0.14685879440E+03  0.14685879442E+03  0.25500000000E-02 0. -1.
    -200001    2    1    2    0    0  0.26777464411E+02 -0.10861912066E+03  0.14662766008E+04  0.15931419726E+04  0.61287774392E+03 0.  0.
   -5000001    2    3    3    0    0  0.12212433700E+03 -0.26744996311E+03  0.12460717790E+04  0.12881675046E+04  0.14225612457E+03 0.  0.
     200001    1    1    2    0    0 -0.26777464411E+02  0.10861912066E+03  0.10801309392E+04  0.12469831562E+04  0.61300000000E+03 0.  1.
         13    1    4    4    0    0  0.72437019518E+02 -0.20199971777E+03  0.10729453501E+04  0.10941950207E+04  0.10566000000E+00 0.  1.
    -200003    1    4    4    0    0  0.49687317483E+02 -0.65450245339E+02  0.17312642891E+03  0.19397248392E+03  0.30000000000E+02 0.  1.
    -200000    1    3    3    0    0 -0.95346872590E+02  0.15883084245E+03  0.22020482175E+03  0.30497446802E+03  0.10100000000E+03 0. -1.
<mgrwt>
<rscale>  0 0.12578233E+04</rscale>
<asrwt>0</asrwt>
<pdfrwt beam="1">  1        2 0.38475230E+00 0.12578233E+04</pdfrwt>
<pdfrwt beam="2">  1       -2 0.20979829E-01 0.12578233E+04</pdfrwt>
<totfact> 0.67548756E+01</totfact>
</mgrwt>
</event>
<event>
 8    2  0.4480234E-052  0.1428600E+04  0.7818608E-02  0.8933373E-01
          2   -1    0    0  501    0  0.00000000000E+00  0.00000000000E+00  0.34623340396E+03  0.34623340397E+03  0.25500000000E-02 0.  1.
         -2   -1    0    0    0  501 -0.00000000000E+00 -0.00000000000E+00 -0.14736429660E+04  0.14736429661E+04  0.25500000000E-02 0. -1.
    -200001    2    1    2    0    0  0.17940656949E+03  0.19720235599E+03 -0.88492959704E+03  0.11087919729E+04  0.61257143344E+03 0.  0.
   -5000001    2    3    3    0    0  0.19231873415E+03  0.15428765891E+03 -0.94749738687E+03  0.98181117299E+03  0.73557488268E+02 0.  0.
     200001    1    1    2    0    0 -0.17940656949E+03 -0.19720235599E+03 -0.24247996505E+03  0.71108439713E+03  0.61300000000E+03 0.  1.
         13    1    4    4    0    0  0.76925872413E+02  0.10024659820E+03 -0.47317142090E+03  0.48975317765E+03  0.10566000000E+00 0.  1.
    -200003    1    4    4    0    0  0.11539286174E+03  0.54041060710E+02 -0.47432596597E+03  0.49205799533E+03  0.30000000000E+02 0.  1.
    -200000    1    3    3    0    0 -0.12912164658E+02  0.42914697080E+02  0.62567789831E+02  0.12698079991E+03  0.10100000000E+03 0.  1.
<mgrwt>
<rscale>  0 0.14285999E+04</rscale>
<asrwt>0</asrwt>
<pdfrwt beam="1">  1        2 0.49461916E-01 0.14285999E+04</pdfrwt>
<pdfrwt beam="2">  1       -2 0.21052042E+00 0.14285999E+04</pdfrwt>
<totfact> 0.11230545E+01</totfact>
</mgrwt>
</event>
<event>
 8    2  0.4480234E-052  0.1799603E+04  0.7818608E-02  0.8706511E-01
          2   -1    0    0  501    0  0.00000000000E+00  0.00000000000E+00  0.51590283970E+03  0.51590283971E+03  0.25500000000E-02 0.  1.
         -2   -1    0    0    0  501 -0.00000000000E+00 -0.00000000000E+00 -0.15693702649E+04  0.15693702649E+04  0.25500000000E-02 0. -1.
    -200001    2    1    2    0    0 -0.49388626458E+03 -0.17107254743E+03 -0.99106873046E+03  0.12772804958E+04  0.61322000752E+03 0.  0.
   -5000001    2    3    3    0    0  0.12361084383E+03 -0.13681886826E+02 -0.11812270100E+03  0.19178048690E+03  0.85790138864E+02 0.  0.
     200001    1    1    2    0    0  0.49388626458E+03  0.17107254743E+03 -0.62398694758E+02  0.80799260884E+03  0.61300000000E+03 0.  1.
         13    1    4    4    0    0  0.37364463793E+02 -0.40589546039E+02 -0.34476378822E+02  0.65055716604E+02  0.10566000000E+00 0.  1.
    -200003    1    4    4    0    0  0.86246380040E+02  0.26907659213E+02 -0.83646322173E+02  0.12672477030E+03  0.30000000000E+02 0.  1.
    -200000    1    3    3    0    0 -0.61749710841E+03 -0.15739066061E+03 -0.87294602947E+03  0.10855000089E+04  0.10100000000E+03 0. -1.
<mgrwt>
<rscale>  0 0.17996028E+04</rscale>
<asrwt>0</asrwt>
<pdfrwt beam="1">  1        2 0.73700406E-01 0.17996028E+04</pdfrwt>
<pdfrwt beam="2">  1       -2 0.22419575E+00 0.17996028E+04</pdfrwt>
<totfact> 0.56979184E+00</totfact>
</mgrwt>
</event>
<event>
 8    2  0.4480234E-052  0.1337581E+04  0.7818608E-02  0.9000283E-01
          2   -1    0    0  501    0  0.00000000000E+00  0.00000000000E+00  0.74043832760E+03  0.74043832760E+03  0.25500000000E-02 0.  1.
         -2   -1    0    0    0  501 -0.00000000000E+00 -0.00000000000E+00 -0.60407539043E+03  0.60407539043E+03  0.25500000000E-02 0. -1.
    -200001    2    1    2    0    0 -0.64733231622E+02 -0.21377371930E+03 -0.75667698854E+02  0.65849944344E+03  0.61482218732E+03 0.  0.
   -5000001    2    3    3    0    0 -0.18615575039E+03 -0.29165732753E+03  0.12596468502E+03  0.39079456354E+03  0.13090198208E+03 0.  0.
     200001    1    1    2    0    0  0.64733231622E+02  0.21377371930E+03  0.21203063602E+03  0.68601427460E+03  0.61300000000E+03 0.  1.
         13    1    4    4    0    0 -0.15011887916E+03 -0.25050521323E+03  0.14433034618E+03  0.32576034094E+03  0.10566000000E+00 0.  1.
    -200003    1    4    4    0    0 -0.36036871237E+02 -0.41152114298E+02 -0.18365661157E+02  0.65034222602E+02  0.30000000000E+02 0. -1.
    -200000    1    3    3    0    0  0.12142251877E+03  0.77883608233E+02 -0.20163238387E+03  0.26770487990E+03  0.10100000000E+03 0. -1.
<mgrwt>
<rscale>  0 0.13375808E+04</rscale>
<asrwt>0</asrwt>
<pdfrwt beam="1">  1        2 0.10577690E+00 0.13375808E+04</pdfrwt>
<pdfrwt beam="2">  1       -2 0.86296484E-01 0.13375808E+04</pdfrwt>
<totfact> 0.47827971E+01</totfact>
</mgrwt>
</event>
<event>
 8    2  0.4480234E-052  0.1295809E+04  0.7818608E-02  0.9032896E-01
          2   -1    0    0  501    0  0.00000000000E+00  0.00000000000E+00  0.28745758809E+04  0.28745758809E+04  0.25500000000E-02 0. -1.
         -2   -1    0    0    0  501 -0.00000000000E+00 -0.00000000000E+00 -0.14603198595E+03  0.14603198597E+03  0.25500000000E-02 0.  1.
    -200001    2    1    2    0    0 -0.48491656363E+02  0.82909116156E+02  0.17993061933E+04  0.19032551614E+04  0.61290461725E+03 0.  0.
   -5000001    2    3    3    0    0 -0.16458412267E+03 -0.19695482453E+03  0.55579608113E+03  0.61938613182E+03  0.94078478685E+02 0.  0.
     200001    1    1    2    0    0  0.48491656363E+02 -0.82909116156E+02  0.92923770169E+03  0.11173527055E+04  0.61300000000E+03 0.  1.
         13    1    4    4    0    0 -0.14978772162E+02 -0.57972133463E+02  0.73624650612E+02  0.94898536424E+02  0.10566000000E+00 0.  1.
    -200003    1    4    4    0    0 -0.14960535051E+03 -0.13898269107E+03  0.48217143052E+03  0.52448759540E+03  0.30000000000E+02 0.  1.
    -200000    1    3    3    0    0  0.11609246631E+03  0.27986394069E+03  0.12435101122E+04  0.12838690296E+04  0.10100000000E+03 0. -1.
<mgrwt>
<rscale>  0 0.12958087E+04</rscale>
<asrwt>0</asrwt>
<pdfrwt beam="1">  1        2 0.41065368E+00 0.12958087E+04</pdfrwt>
<pdfrwt beam="2">  1       -2 0.20861713E-01 0.12958087E+04</pdfrwt>
<totfact> 0.54293568E+01</totfact>
</mgrwt>
</event>
<event>
 8    2  0.4480234E-052  0.1395934E+04  0.7818608E-02  0.8956767E-01
          2   -1    0    0  501    0  0.00000000000E+00  0.00000000000E+00  0.59184904569E+03  0.59184904570E+03  0.25500000000E-02 0.  1.
         -2   -1    0    0    0  501 -0.00000000000E+00 -0.00000000000E+00 -0.82311215683E+03  0.82311215683E+03  0.25500000000E-02 0. -1.
    -200001    2    1    2    0    0 -0.21921794504E+03  0.57711995954E+02 -0.36506431070E+03  0.74783382120E+03  0.61204272015E+03 0.  0.
   -5000001    2    3    3    0    0  0.24928595004E+02  0.57794364158E+02  0.13589596362E+02  0.28611169575E+03  0.27877159457E+03 0.  0.
     200001    1    1    2    0    0  0.21921794504E+03 -0.57711995954E+02  0.13380119956E+03  0.66712738132E+03  0.61300000000E+03 0.  1.
         13    1    4    4    0    0  0.34018336341E+02 -0.73217598922E+02  0.98128645015E+02  0.12707205096E+03  0.10566000000E+00 0.  1.
    -200003    1    4    4    0    0 -0.90897413371E+01  0.13101196308E+03 -0.84539048653E+02  0.15903964479E+03  0.30000000000E+02 0.  1.
    -200000    1    3    3    0    0 -0.24414654005E+03 -0.82368203537E-01 -0.37865390706E+03  0.46172212545E+03  0.10100000000E+03 0. -1.
<mgrwt>
<rscale>  0 0.13959343E+04</rscale>
<asrwt>0</asrwt>
<pdfrwt beam="1">  1        2 0.84549864E-01 0.13959343E+04</pdfrwt>
<pdfrwt beam="2">  1       -2 0.11758745E+00 0.13959343E+04</pdfrwt>
<totfact> 0.30027587E+01</totfact>
</mgrwt>
</event>
<event>
 8    2  0.4480234E-052  0.1367943E+04  0.7818608E-02  0.8977356E-01
          2   -1    0    0  501    0  0.00000000000E+00  0.00000000000E+00  0.54400743029E+03  0.54400743030E+03  0.25500000000E-02 0.  1.
         -2   -1    0    0    0  501 -0.00000000000E+00 -0.00000000000E+00 -0.85994578750E+03  0.85994578751E+03  0.25500000000E-02 0. -1.
    -200001    2    1    2    0    0 -0.13459296649E+03  0.25916393244E+03 -0.76214055206E+02  0.68387131171E+03  0.61366943729E+03 0.  0.
   -5000001    2    3    3    0    0  0.38062593296E+02  0.23230562738E+03  0.21153546961E+03  0.33239997589E+03  0.10162589998E+03 0.  0.
     200001    1    1    2    0    0  0.13459296649E+03 -0.25916393244E+03 -0.23972430201E+03  0.72008190609E+03  0.61300000000E+03 0. -1.
         13    1    4    4    0    0  0.56369655028E+02  0.96304660212E+02  0.12433098792E+03  0.16706385398E+03  0.10566000000E+00 0.  1.
    -200003    1    4    4    0    0 -0.18307061732E+02  0.13600096717E+03  0.87204481690E+02  0.16533612190E+03  0.30000000000E+02 0. -1.
    -200000    1    3    3    0    0 -0.17265555979E+03  0.26858305064E+02 -0.28774952481E+03  0.35147133583E+03  0.10100000000E+03 0. -1.
<mgrwt>
<rscale>  0 0.13679428E+04</rscale>
<asrwt>0</asrwt>
<pdfrwt beam="1">  1        2 0.77715347E-01 0.13679428E+04</pdfrwt>
<pdfrwt beam="2">  1       -2 0.12284940E+00 0.13679428E+04</pdfrwt>
<totfact> 0.29790061E+01</totfact>
</mgrwt>
</event>
<event>
 8    2  0.4480234E-052  0.1847804E+04  0.7818608E-02  0.8681283E-01
          2   -1    0    0  501    0  0.00000000000E+00  0.00000000000E+00  0.11671588974E+04  0.11671588974E+04  0.25500000000E-02 0.  1.
         -2   -1    0    0    0  501 -0.00000000000E+00 -0.00000000000E+00 -0.73134419853E+03  0.73134419854E+03  0.25500000000E-02 0. -1.
    -200001    2    1    2    0    0 -0.54876892462E+03  0.39790558945E+03  0.35675372066E+03  0.98117227829E+03  0.61314731650E+03 0.  0.
   -5000001    2    3    3    0    0 -0.68183647512E+02 -0.19823656202E+02 -0.13801821703E+03  0.16848525269E+03  0.65545900019E+02 0.  0.
     200001    1    1    2    0    0  0.54876892462E+03 -0.39790558945E+03  0.79060978211E+02  0.91733081766E+03  0.61300000000E+03 0. -1.
         13    1    4    4    0    0  0.11971925439E+01 -0.13518338009E+02 -0.34364842787E+01  0.13999975741E+02  0.10566000000E+00 0.  1.
    -200003    1    4    4    0    0 -0.69380840056E+02 -0.63053181931E+01 -0.13458173275E+03  0.15448527695E+03  0.30000000000E+02 0.  1.
    -200000    1    3    3    0    0 -0.48058527711E+03  0.41772924565E+03  0.49477193769E+03  0.81268702560E+03  0.10100000000E+03 0.  1.
<mgrwt>
<rscale>  0 0.18478040E+04</rscale>
<asrwt>0</asrwt>
<pdfrwt beam="1">  1        2 0.16673699E+00 0.18478040E+04</pdfrwt>
<pdfrwt beam="2">  1       -2 0.10447774E+00 0.18478040E+04</pdfrwt>
<totfact> 0.15671143E+01</totfact>
</mgrwt>
</event>
<event>
 8    2  0.4480234E-052  0.1279463E+04  0.7818608E-02  0.9046011E-01
          2   -1    0    0  501    0  0.00000000000E+00  0.00000000000E+00  0.45704635613E+03  0.45704635614E+03  0.25500000000E-02 0. -1.
         -2   -1    0    0    0  501 -0.00000000000E+00 -0.00000000000E+00 -0.89543791252E+03  0.89543791252E+03  0.25500000000E-02 0.  1.
    -200001    2    1    2    0    0  0.36663647102E+02 -0.10745645999E+03 -0.67600874503E+02  0.62712515513E+03  0.61304564932E+03 0.  0.
   -5000001    2    3    3    0    0 -0.10124218657E+03 -0.24824429328E+03 -0.22314626670E+03  0.35650623118E+03  0.73669715881E+02 0.  0.
     200001    1    1    2    0    0 -0.36663647102E+02  0.10745645999E+03 -0.37079068189E+03  0.72535911353E+03  0.61300000000E+03 0.  1.
         13    1    4    4    0    0  0.62198507483E+01 -0.45180214279E+02 -0.46687043635E+02  0.65265837258E+02  0.10566000000E+00 0.  1.
    -200003    1    4    4    0    0 -0.10746203731E+03 -0.20306407900E+03 -0.17645922307E+03  0.29124039392E+03  0.30000000000E+02 0.  1.
    -200000    1    3    3    0    0  0.13790583367E+03  0.14078783329E+03  0.15554539220E+03  0.27061892395E+03  0.10100000000E+03 0. -1.
<mgrwt>
<rscale>  0 0.12794634E+04</rscale>
<asrwt>0</asrwt>
<pdfrwt beam="1">  1        2 0.65292336E-01 0.12794634E+04</pdfrwt>
<pdfrwt beam="2">  1       -2 0.12791970E+00 0.12794634E+04</pdfrwt>
<totfact> 0.33064695E+01</totfact>
</mgrwt>
</event>
<event>
 8    2  0.4480234E-052  0.2463221E+04  0.7818608E-02  0.8416207E-01
          2   -1    0    0  501    0  0.00000000000E+00  0.00000000000E+00  0.21588224122E+04  0.21588224122E+04  0.25500000000E-02 0.  1.
         -2   -1    0    0    0  501 -0.00000000000E+00 -0.00000000000E+00 -0.70263527813E+03  0.70263527813E+03  0.25500000000E-02 0. -1.
    -200001    2    1    2    0    0  0.64487154021E+03  0.14019764732E+03 -0.24713661313E+03  0.93464802888E+03  0.61398350844E+03 0.  0.
   -5000001    2    3    3    0    0  0.36776248760E+03  0.34334425862E+03 -0.24774547585E+02  0.51309867125E+03  0.97580433589E+02 0.  0.
     200001    1    1    2    0    0 -0.64487154021E+03 -0.14019764732E+03  0.17033237472E+04  0.19268096615E+04  0.61300000000E+03 0.  1.
         13    1    4    4    0    0  0.11561253841E+03  0.15923778002E+03 -0.32008430210E+02  0.19936770148E+03  0.10566000000E+00 0.  1.
    -200003    1    4    4    0    0  0.25214994919E+03  0.18410647860E+03  0.72338826250E+01  0.31373096978E+03  0.30000000000E+02 0.  1.
    -200000    1    3    3    0    0  0.27710905261E+03 -0.20314661129E+03 -0.22236206555E+03  0.42154935762E+03  0.10100000000E+03 0. -1.
<mgrwt>
<rscale>  0 0.24632213E+04</rscale>
<asrwt>0</asrwt>
<pdfrwt beam="1">  1        2 0.30840320E+00 0.24632213E+04</pdfrwt>
<pdfrwt beam="2">  1       -2 0.10037647E+00 0.24632213E+04</pdfrwt>
<totfact> 0.48925975E+00</totfact>
</mgrwt>
</event>
<event>
 8    2  0.4480234E-052  0.1500777E+04  0.7818608E-02  0.8883936E-01
          2   -1    0    0  501    0  0.00000000000E+00  0.00000000000E+00  0.10899164755E+04  0.10899164755E+04  0.25500000000E-02 0.  1.
         -2   -1    0    0    0  501 -0.00000000000E+00 -0.00000000000E+00 -0.51662949056E+03  0.51662949056E+03  0.25500000000E-02 0. -1.
    -200001    2    1    2    0    0  0.17713695428E+03  0.31518461061E+03  0.34497865233E+02  0.71391975377E+03  0.61463198157E+03 0.  0.
   -5000001    2    3    3    0    0 -0.19914580995E+03  0.13399621115E+03 -0.60410798113E+02  0.27388951715E+03  0.11726877184E+03 0.  0.
     200001    1    1    2    0    0 -0.17713695428E+03 -0.31518461061E+03  0.53878911966E+03  0.89262621226E+03  0.61300000000E+03 0. -1.
         13    1    4    4    0    0 -0.11459929864E+03  0.62704867064E+02  0.22361008386E+02  0.13253273355E+03  0.10566000000E+00 0.  1.
    -200003    1    4    4    0    0 -0.84546511310E+02  0.71291344085E+02 -0.82771806499E+02  0.14135678359E+03  0.30000000000E+02 0.  1.
    -200000    1    3    3    0    0  0.37628276424E+03  0.18118839946E+03  0.94908663347E+02  0.44003023662E+03  0.10100000000E+03 0.  1.
<mgrwt>
<rscale>  0 0.15007771E+04</rscale>
<asrwt>0</asrwt>
<pdfrwt beam="1">  1        2 0.15570235E+00 0.15007771E+04</pdfrwt>
<pdfrwt beam="2">  1       -2 0.73804213E-01 0.15007771E+04</pdfrwt>
<totfact> 0.39677643E+01</totfact>
</mgrwt>
</event>
<event>
 8    2  0.4480234E-052  0.1408990E+04  0.7818608E-02  0.8947337E-01
          2   -1    0    0  501    0  0.00000000000E+00  0.00000000000E+00  0.60845866418E+03  0.60845866418E+03  0.25500000000E-02 0.  1.
         -2   -1    0    0    0  501 -0.00000000000E+00 -0.00000000000E+00 -0.81568951235E+03  0.81568951235E+03  0.25500000000E-02 0. -1.
    -200001    2    1    2    0    0  0.50614689418E+02 -0.28130063204E+03 -0.30324789555E+03  0.74100824521E+03  0.61273325432E+03 0.  0.
   -5000001    2    3    3    0    0  0.11977282543E+03 -0.44192780336E+03 -0.16640693491E+03  0.49706074174E+03  0.98652926466E+02 0.  0.
     200001    1    1    2    0    0 -0.50614689418E+02  0.28130063204E+03  0.96017047379E+02  0.68313993132E+03  0.61300000000E+03 0.  1.
         13    1    4    4    0    0  0.11388187638E+03 -0.27527332272E+03 -0.90036664127E+02  0.31120908730E+03  0.10566000000E+00 0.  1.
    -200003    1    4    4    0    0  0.58909490513E+01 -0.16665448065E+03 -0.76370270784E+02  0.18585165444E+03  0.30000000000E+02 0.  1.
    -200000    1    3    3    0    0 -0.69158136010E+02  0.16062717132E+03 -0.13684096064E+03  0.24394750347E+03  0.10100000000E+03 0.  1.
<mgrwt>
<rscale>  0 0.14089902E+04</rscale>
<asrwt>0</asrwt>
<pdfrwt beam="1">  1        2 0.86922666E-01 0.14089902E+04</pdfrwt>
<pdfrwt beam="2">  1       -2 0.11652707E+00 0.14089902E+04</pdfrwt>
<totfact> 0.29682017E+01</totfact>
</mgrwt>
</event>
<event>
 8    2  0.4480234E-052  0.1395748E+04  0.7818608E-02  0.8956902E-01
          2   -1    0    0  501    0  0.00000000000E+00  0.00000000000E+00  0.61452126260E+03  0.61452126260E+03  0.25500000000E-02 0.  1.
         -2   -1    0    0    0  501 -0.00000000000E+00 -0.00000000000E+00 -0.79253282647E+03  0.79253282647E+03  0.25500000000E-02 0. -1.
    -200001    2    1    2    0    0 -0.16325595801E+03  0.10741434781E+03  0.18416434989E+03  0.66872439141E+03  0.61244220459E+03 0.  0.
   -5000001    2    3    3    0    0  0.98739697189E+02  0.13606043640E+03 -0.14556197169E+03  0.23469355279E+03  0.75038696455E+02 0.  0.
     200001    1    1    2    0    0  0.16325595801E+03 -0.10741434781E+03 -0.36217591376E+03  0.73832969766E+03  0.61300000000E+03 0. -1.
         13    1    4    4    0    0  0.37133340223E+02  0.86089858476E+01 -0.19683779734E+02  0.42900605381E+02  0.10566000000E+00 0.  1.
    -200003    1    4    4    0    0  0.61606356966E+02  0.12745145055E+03 -0.12587819195E+03  0.19179294741E+03  0.30000000000E+02 0.  1.
    -200000    1    3    3    0    0 -0.26199565520E+03 -0.28646088591E+02  0.32972632157E+03  0.43403083862E+03  0.10100000000E+03 0.  1.
<mgrwt>
<rscale>  0 0.13957482E+04</rscale>
<asrwt>0</asrwt>
<pdfrwt beam="1">  1        2 0.87788752E-01 0.13957482E+04</pdfrwt>
<pdfrwt beam="2">  1       -2 0.11321897E+00 0.13957482E+04</pdfrwt>
<totfact> 0.31501737E+01</totfact>
</mgrwt>
</event>
<event>
 8    2  0.4480234E-052  0.1344521E+04  0.7818608E-02  0.8994986E-01
         -2   -1    0    0    0  501 -0.00000000000E+00  0.00000000000E+00  0.45827599309E+03  0.45827599310E+03  0.25500000000E-02 0. -1.
          2   -1    0    0  501    0  0.00000000000E+00 -0.00000000000E+00 -0.98616144106E+03  0.98616144107E+03  0.25500000000E-02 0.  1.
    -200001    2    1    2    0    0 -0.23080834027E+03  0.68952442926E+02 -0.11533610409E+03  0.66726763903E+03  0.61148733091E+03 0.  0.
   -5000001    2    3    3    0    0 -0.84762856556E+02  0.31921678828E+03 -0.10130487123E+03  0.36008788487E+03  0.10157021276E+03 0.  0.
     200001    1    1    2    0    0  0.23080834027E+03 -0.68952442926E+02 -0.41254934388E+03  0.77716979513E+03  0.61300000000E+03 0.  1.
         13    1    4    4    0    0 -0.57530071940E+02  0.81412217540E+02 -0.56963097316E+02  0.11481491176E+03  0.10566000000E+00 0.  1.
    -200003    1    4    4    0    0 -0.27232784616E+02  0.23780457074E+03 -0.44341773912E+02  0.24527297311E+03  0.30000000000E+02 0.  1.
    -200000    1    3    3    0    0 -0.14604548372E+03 -0.25026434536E+03 -0.14031232862E+02  0.30717975416E+03  0.10100000000E+03 0. -1.
<mgrwt>
<rscale>  0 0.13445209E+04</rscale>
<asrwt>0</asrwt>
<pdfrwt beam="1">  1        2 0.14088021E+00 0.13445209E+04</pdfrwt>
<pdfrwt beam="2">  1       -2 0.65467999E-01 0.13445209E+04</pdfrwt>
<totfact> 0.60252212E+01</totfact>
</mgrwt>
</event>
<event>
 8    2  0.4480234E-052  0.1271443E+04  0.7818608E-02  0.9052523E-01
         -2   -1    0    0    0  501 -0.00000000000E+00  0.00000000000E+00  0.19973302442E+03  0.19973302443E+03  0.25500000000E-02 0. -1.
          2   -1    0    0  501    0  0.00000000000E+00 -0.00000000000E+00 -0.20234094076E+04  0.20234094076E+04  0.25500000000E-02 0.  1.
    -200001    2    1    2    0    0  0.33826521016E+02 -0.15897954200E+03 -0.83601543116E+03  0.10494040095E+04  0.61311356680E+03 0.  0.
   -5000001    2    3    3    0    0 -0.12692616728E+03 -0.17907791774E+02  0.28483548757E+02  0.15313276054E+03  0.78786984031E+02 0.  0.
     200001    1    1    2    0    0 -0.33826521016E+02  0.15897954200E+03 -0.98766095201E+03  0.11737384225E+04  0.61300000000E+03 0.  1.
         13    1    4    4    0    0 -0.31293183859E+02 -0.23427468387E+02 -0.17368893726E+02  0.42776152987E+02  0.10566000000E+00 0.  1.
    -200003    1    4    4    0    0 -0.95632983422E+02  0.55196766128E+01  0.45852442483E+02  0.11035660755E+03  0.30000000000E+02 0.  1.
    -200000    1    3    3    0    0  0.16075268830E+03 -0.14107175022E+03 -0.86449897991E+03  0.89627124900E+03  0.10100000000E+03 0.  1.
<mgrwt>
<rscale>  0 0.12714428E+04</rscale>
<asrwt>0</asrwt>
<pdfrwt beam="1">  1        2 0.28905848E+00 0.12714428E+04</pdfrwt>
<pdfrwt beam="2">  1       -2 0.28533290E-01 0.12714428E+04</pdfrwt>
<totfact> 0.86324498E+01</totfact>
</mgrwt>
</event>
<event>
 8    2  0.4480234E-052  0.1647279E+04  0.7818608E-02  0.8792018E-01
         -2   -1    0    0    0  501 -0.00000000000E+00  0.00000000000E+00  0.59960368380E+03  0.59960368381E+03  0.25500000000E-02 0. -1.
          2   -1    0    0  501    0  0.00000000000E+00 -0.00000000000E+00 -0.11313834420E+04  0.11313834420E+04  0.25500000000E-02 0.  1.
    -200001    2    1    2    0    0 -0.20556329129E+03 -0.12574206612E+03  0.25375283714E+03  0.70585406505E+03  0.61300254883E+03 0.  0.
   -5000001    2    3    3    0    0  0.44194661656E+02 -0.28289815471E+03  0.26065649948E+03  0.39388334239E+03  0.72233943773E+02 0.  0.
     200001    1    1    2    0    0  0.20556329129E+03  0.12574206612E+03 -0.78553259531E+03  0.10251330607E+04  0.61300000000E+03 0.  1.
         13    1    4    4    0    0 -0.10884019530E+02 -0.35213440859E+02  0.53427512138E+02  0.64907307104E+02  0.10566000000E+00 0.  1.
    -200003    1    4    4    0    0  0.55078681186E+02 -0.24768471385E+03  0.20722898734E+03  0.32897603528E+03  0.30000000000E+02 0.  1.
    -200000    1    3    3    0    0 -0.24975795295E+03  0.15715608860E+03 -0.69036623392E+01  0.31197072266E+03  0.10100000000E+03 0.  1.
<mgrwt>
<rscale>  0 0.16472786E+04</rscale>
<asrwt>0</asrwt>
<pdfrwt beam="1">  1        2 0.16162621E+00 0.16472786E+04</pdfrwt>
<pdfrwt beam="2">  1       -2 0.85657669E-01 0.16472786E+04</pdfrwt>
<totfact> 0.26555523E+01</totfact>
</mgrwt>
</event>
<event>
 8    2  0.4480234E-052  0.2081882E+04  0.7818608E-02  0.8569267E-01
         -2   -1    0    0    0  501 -0.00000000000E+00  0.00000000000E+00  0.72257278288E+03  0.72257278289E+03  0.25500000000E-02 0.  1.
          2   -1    0    0  501    0  0.00000000000E+00 -0.00000000000E+00 -0.14995839815E+04  0.14995839815E+04  0.25500000000E-02 0. -1.
    -200001    2    1    2    0    0  0.35958972451E+03 -0.10504418262E+03 -0.11929888443E+04  0.13920089149E+04  0.61165953449E+03 0.  0.
   -5000001    2    3    3    0    0  0.32382543145E+03  0.10799141253E+03 -0.10644314722E+04  0.11211007249E+04  0.85600357339E+02 0.  0.
     200001    1    1    2    0    0 -0.35958972451E+03  0.10504418262E+03  0.41597764572E+03  0.83014784949E+03  0.61300000000E+03 0.  1.
         13    1    4    4    0    0  0.16286447597E+03  0.16957299033E+02 -0.45791957089E+03  0.48631546561E+03  0.10566000000E+00 0.  1.
    -200003    1    4    4    0    0  0.16096095548E+03  0.91034113493E+02 -0.60651190129E+03  0.63478525930E+03  0.30000000000E+02 0.  1.
    -200000    1    3    3    0    0  0.35764293062E+02 -0.21303559515E+03 -0.12855737213E+03  0.27090818996E+03  0.10100000000E+03 0.  1.
<mgrwt>
<rscale>  0 0.20818824E+04</rscale>
<asrwt>0</asrwt>
<pdfrwt beam="1">  1        2 0.21422628E+00 0.20818824E+04</pdfrwt>
<pdfrwt beam="2">  1       -2 0.10322468E+00 0.20818824E+04</pdfrwt>
<totfact> 0.10383383E+01</totfact>
</mgrwt>
</event>
<event>
 8    2  0.4480234E-052  0.1792393E+04  0.7818608E-02  0.8710355E-01
         -2   -1    0    0    0  501 -0.00000000000E+00  0.00000000000E+00  0.50666642970E+03  0.50666642971E+03  0.25500000000E-02 0.  1.
          2   -1    0    0  501    0  0.00000000000E+00 -0.00000000000E+00 -0.15852019226E+04  0.15852019226E+04  0.25500000000E-02 0. -1.
    -200001    2    1    2    0    0  0.55433453223E+03 -0.21677332654E+03 -0.22365331731E+03  0.88320380710E+03  0.61298508123E+03 0.  0.
   -5000001    2    3    3    0    0  0.22488405906E+03  0.54468055762E+02 -0.34583795005E+03  0.42796805913E+03  0.10006579251E+03 0.  0.
     200001    1    1    2    0    0 -0.55433453223E+03  0.21677332654E+03 -0.85488217564E+03  0.12086645453E+04  0.61300000000E+03 0. -1.
         13    1    4    4    0    0  0.11060578186E+03  0.70420971221E+02 -0.15586066089E+03  0.20367942691E+03  0.10566000000E+00 0.  1.
    -200003    1    4    4    0    0  0.11427827720E+03 -0.15952915459E+02 -0.18997728916E+03  0.22428863223E+03  0.30000000000E+02 0.  1.
    -200000    1    3    3    0    0  0.32945047318E+03 -0.27124138230E+03  0.12218463274E+03  0.45523574797E+03  0.10100000000E+03 0.  1.
<mgrwt>
<rscale>  0 0.17923935E+04</rscale>
<asrwt>0</asrwt>
<pdfrwt beam="1">  1        2 0.22645742E+00 0.17923935E+04</pdfrwt>
<pdfrwt beam="2">  1       -2 0.72380919E-01 0.17923935E+04</pdfrwt>
<totfact> 0.21561158E+01</totfact>
</mgrwt>
</event>
<event>
 8    2  0.4480234E-052  0.1746464E+04  0.7818608E-02  0.8735299E-01
          2   -1    0    0  501    0  0.00000000000E+00  0.00000000000E+00  0.34078839573E+04  0.34078839573E+04  0.25500000000E-02 0.  1.
         -2   -1    0    0    0  501 -0.00000000000E+00 -0.00000000000E+00 -0.22375583063E+03  0.22375583064E+03  0.25500000000E-02 0. -1.
    -200001    2    1    2    0    0 -0.30603091610E+02 -0.21303337262E+03  0.28056966178E+04  0.28797759878E+04  0.61225522580E+03 0.  0.
   -5000001    2    3    3    0    0 -0.80112556180E+02 -0.27719969847E+01  0.43578305098E+03  0.49789598504E+03  0.22708553186E+03 0.  0.
     200001    1    1    2    0    0  0.30603091610E+02  0.21303337262E+03  0.37843150882E+03  0.75186380012E+03  0.61300000000E+03 0. -1.
         13    1    4    4    0    0 -0.13004971932E+03  0.35635559527E+02  0.39429833092E+03  0.41671813918E+03  0.10566000000E+00 0.  1.
    -200003    1    4    4    0    0  0.49937163140E+02 -0.38407556512E+02  0.41484720060E+02  0.81177845858E+02  0.30000000000E+02 0.  1.
    -200000    1    3    3    0    0  0.49509464570E+02 -0.21026137564E+03  0.23699135669E+04  0.23818800028E+04  0.10100000000E+03 0.  1.
<mgrwt>
<rscale>  0 0.17464637E+04</rscale>
<asrwt>0</asrwt>
<pdfrwt beam="1">  1        2 0.48684053E+00 0.17464637E+04</pdfrwt>
<pdfrwt beam="2">  1       -2 0.31965121E-01 0.17464637E+04</pdfrwt>
<totfact> 0.11893610E+01</totfact>
</mgrwt>
</event>
<event>
 8    2  0.4480234E-052  0.1357026E+04  0.7818608E-02  0.8985527E-01
          2   -1    0    0  501    0  0.00000000000E+00  0.00000000000E+00  0.45744478301E+03  0.45744478301E+03  0.25500000000E-02 0.  1.
         -2   -1    0    0    0  501 -0.00000000000E+00 -0.00000000000E+00 -0.10064160937E+04  0.10064160937E+04  0.25500000000E-02 0. -1.
    -200001    2    1    2    0    0  0.18124532182E+02  0.17323452487E+03 -0.24606643953E+02  0.63859364546E+03  0.61388733316E+03 0.  0.
   -5000001    2    3    3    0    0  0.13160585069E+03 -0.12780380414E+03 -0.74026527990E+01  0.30095617347E+03  0.23846573505E+03 0.  0.
     200001    1    1    2    0    0 -0.18124532182E+02 -0.17323452487E+03 -0.52436466676E+03  0.82526723128E+03  0.61300000000E+03 0. -1.
         13    1    4    4    0    0  0.61342155742E+02 -0.18851063208E+03  0.20935317621E+02  0.19934246202E+03  0.10566000000E+00 0.  1.
    -200003    1    4    4    0    0  0.70263694947E+02  0.60706827938E+02 -0.28337970420E+02  0.10161371144E+03  0.30000000000E+02 0.  1.
    -200000    1    3    3    0    0 -0.11348131851E+03  0.30103832901E+03 -0.17203991154E+02  0.33763747199E+03  0.10100000000E+03 0.  1.
<mgrwt>
<rscale>  0 0.13570259E+04</rscale>
<asrwt>0</asrwt>
<pdfrwt beam="1">  1        2 0.65349255E-01 0.13570259E+04</pdfrwt>
<pdfrwt beam="2">  1       -2 0.14377373E+00 0.13570259E+04</pdfrwt>
<totfact> 0.24332420E+01</totfact>
</mgrwt>
</event>
<event>
 8    2  0.4480234E-052  0.1359428E+04  0.7818608E-02  0.8983722E-01
          2   -1    0    0  501    0  0.00000000000E+00  0.00000000000E+00  0.16139724553E+04  0.16139724553E+04  0.25500000000E-02 0.  1.
         -2   -1    0    0    0  501 -0.00000000000E+00 -0.00000000000E+00 -0.28625706062E+03  0.28625706063E+03  0.25500000000E-02 0. -1.
    -200001    2    1    2    0    0 -0.55493061768E+01 -0.37327328853E+02  0.25811868437E+03  0.66684788522E+03  0.61370735903E+03 0.  0.
   -5000001    2    3    3    0    0 -0.21129805671E+03 -0.67630236831E+02  0.34789439772E+03  0.41883277825E+03  0.71900392694E+02 0.  0.
     200001    1    1    2    0    0  0.55493061768E+01  0.37327328853E+02  0.10695967103E+04  0.12333816307E+04  0.61300000000E+03 0.  1.
         13    1    4    4    0    0 -0.15254225695E+03 -0.25823008369E+02  0.21938254372E+03  0.26844865351E+03  0.10566000000E+00 0.  1.
    -200003    1    4    4    0    0 -0.58755799769E+02 -0.41807228462E+02  0.12851185399E+03  0.15038412474E+03  0.30000000000E+02 0.  1.
    -200000    1    3    3    0    0  0.20574875054E+03  0.30302907979E+02 -0.89775713346E+02  0.24801510697E+03  0.10100000000E+03 0. -1.
<mgrwt>
<rscale>  0 0.13594278E+04</rscale>
<asrwt>0</asrwt>
<pdfrwt beam="1">  1        2 0.23056749E+00 0.13594278E+04</pdfrwt>
<pdfrwt beam="2">  1       -2 0.40893866E-01 0.13594278E+04</pdfrwt>
<totfact> 0.70354368E+01</totfact>
</mgrwt>
</event>
<event>
 8    2  0.4480234E-052  0.1324901E+04  0.7818608E-02  0.9010048E-01
          2   -1    0    0  501    0  0.00000000000E+00  0.00000000000E+00  0.36054069629E+03  0.36054069630E+03  0.25500000000E-02 0.  1.
         -2   -1    0    0    0  501 -0.00000000000E+00 -0.00000000000E+00 -0.12171746496E+04  0.12171746496E+04  0.25500000000E-02 0. -1.
    -200001    2    1    2    0    0 -0.14316543318E+03  0.10361278089E+03 -0.64173061482E+03  0.90452562934E+03  0.61246753589E+03 0.  0.
   -5000001    2    3    3    0    0 -0.20399319423E+03 -0.19793861137E+03 -0.19206296589E+03  0.35041801056E+03  0.71496028560E+02 0.  0.
     200001    1    1    2    0    0  0.14316543318E+03 -0.10361278089E+03 -0.21490333851E+03  0.67318971659E+03  0.61300000000E+03 0.  1.
         13    1    4    4    0    0 -0.25056659313E+02 -0.27653886147E+02 -0.21175436861E+01  0.37377382871E+02  0.10566000000E+00 0.  1.
    -200003    1    4    4    0    0 -0.17893653492E+03 -0.17028472522E+03 -0.18994542220E+03  0.31304062769E+03  0.30000000000E+02 0.  1.
    -200000    1    3    3    0    0  0.60827761053E+02  0.30155139226E+03 -0.44966764894E+03  0.55410761878E+03  0.10100000000E+03 0.  1.
<mgrwt>
<rscale>  0 0.13249015E+04</rscale>
<asrwt>0</asrwt>
<pdfrwt beam="1">  1        2 0.51505814E-01 0.13249015E+04</pdfrwt>
<pdfrwt beam="2">  1       -2 0.17388209E+00 0.13249015E+04</pdfrwt>
<totfact> 0.19025415E+01</totfact>
</mgrwt>
</event>
<event>
 8    2  0.4480234E-052  0.1706393E+04  0.7818608E-02  0.8757726E-01
         -2   -1    0    0    0  501 -0.00000000000E+00  0.00000000000E+00  0.73569220749E+03  0.73569220750E+03  0.25500000000E-02 0. -1.
          2   -1    0    0  501    0  0.00000000000E+00 -0.00000000000E+00 -0.98946906468E+03  0.98946906468E+03  0.25500000000E-02 0.  1.
    -200001    2    1    2    0    0  0.17350237672E+03  0.56749479519E+03 -0.10858351146E+03  0.85971137476E+03  0.61250294010E+03 0.  0.
   -5000001    2    3    3    0    0 -0.88334998052E+02  0.49488355322E+03  0.76893277438E+02  0.51556919119E+03  0.84771526291E+02 0.  0.
     200001    1    1    2    0    0 -0.17350237672E+03 -0.56749479519E+03 -0.14519334573E+03  0.86544989742E+03  0.61300000000E+03 0. -1.
         13    1    4    4    0    0  0.68422085031E+01  0.16532418040E+03  0.24899502716E+02  0.16732870896E+03  0.10566000000E+00 0.  1.
    -200003    1    4    4    0    0 -0.95177206555E+02  0.32955937282E+03  0.51993774722E+02  0.34824048224E+03  0.30000000000E+02 0.  1.
    -200000    1    3    3    0    0  0.26183737477E+03  0.72611241978E+02 -0.18547678890E+03  0.34414218357E+03  0.10100000000E+03 0.  1.
<mgrwt>
<rscale>  0 0.17063935E+04</rscale>
<asrwt>0</asrwt>
<pdfrwt beam="1">  1        2 0.14135272E+00 0.17063935E+04</pdfrwt>
<pdfrwt beam="2">  1       -2 0.10509889E+00 0.17063935E+04</pdfrwt>
<totfact> 0.19945816E+01</totfact>
</mgrwt>
</event>
<event>
 8    2  0.4480234E-052  0.2012862E+04  0.7818608E-02  0.8600631E-01
         -2   -1    0    0    0  501 -0.00000000000E+00  0.00000000000E+00  0.51436083168E+03  0.51436083169E+03  0.25500000000E-02 0.  1.
          2   -1    0    0  501    0  0.00000000000E+00 -0.00000000000E+00 -0.19692467496E+04  0.19692467496E+04  0.25500000000E-02 0. -1.
    -200001    2    1    2    0    0  0.64783441910E+03 -0.13602275479E+03 -0.12752103203E+04  0.15636923978E+04  0.61707449265E+03 0.  0.
   -5000001    2    3    3    0    0  0.52607926440E+03 -0.31249091261E+03 -0.11258438269E+04  0.12835555066E+04  0.74702431275E+02 0.  0.
     200001    1    1    2    0    0 -0.64783441910E+03  0.13602275479E+03 -0.17967559755E+03  0.91991518346E+03  0.61300000000E+03 0.  1.
         13    1    4    4    0    0  0.32136342652E+03 -0.15729167125E+03 -0.65296496213E+03  0.74456589680E+03  0.10566000000E+00 0.  1.
    -200003    1    4    4    0    0  0.20471583788E+03 -0.15519924136E+03 -0.47287886474E+03  0.53898960984E+03  0.30000000000E+02 0. -1.
    -200000    1    3    3    0    0  0.12175515470E+03  0.17646815782E+03 -0.14936649347E+03  0.28013689117E+03  0.10100000000E+03 0. -1.
<mgrwt>
<rscale>  0 0.20128620E+04</rscale>
<asrwt>0</asrwt>
<pdfrwt beam="1">  1        2 0.28132096E+00 0.20128620E+04</pdfrwt>
<pdfrwt beam="2">  1       -2 0.73480119E-01 0.20128620E+04</pdfrwt>
<totfact> 0.12953091E+01</totfact>
</mgrwt>
</event>
<event>
 8    2  0.4480234E-052  0.1573277E+04  0.7818608E-02  0.8837135E-01
          2   -1    0    0  501    0  0.00000000000E+00  0.00000000000E+00  0.52894771037E+03  0.52894771038E+03  0.25500000000E-02 0.  1.
         -2   -1    0    0    0  501 -0.00000000000E+00 -0.00000000000E+00 -0.11698706005E+04  0.11698706005E+04  0.25500000000E-02 0. -1.
    -200001    2    1    2    0    0  0.27462230476E+03  0.19358161127E+03 -0.70944487618E+03  0.99642560513E+03  0.61372689669E+03 0.  0.
   -5000001    2    3    3    0    0  0.83934087601E+02  0.30613044616E+03 -0.67559546455E+03  0.75071028394E+03  0.79849342866E+02 0.  0.
     200001    1    1    2    0    0 -0.27462230476E+03 -0.19358161127E+03  0.68521986069E+02  0.70239270573E+03  0.61300000000E+03 0.  1.
         13    1    4    4    0    0  0.70496254363E+02  0.13614640083E+03 -0.34467978567E+03  0.37723961901E+03  0.10566000000E+00 0.  1.
    -200003    1    4    4    0    0  0.13437833238E+02  0.16998404534E+03 -0.33091567888E+03  0.37347066493E+03  0.30000000000E+02 0.  1.
    -200000    1    3    3    0    0  0.19068821716E+03 -0.11254883489E+03 -0.33849411626E+02  0.24571532119E+03  0.10100000000E+03 0.  1.
<mgrwt>
<rscale>  0 0.15732773E+04</rscale>
<asrwt>0</asrwt>
<pdfrwt beam="1">  1        2 0.75563959E-01 0.15732773E+04</pdfrwt>
<pdfrwt beam="2">  1       -2 0.16712437E+00 0.15732773E+04</pdfrwt>
<totfact> 0.13528564E+01</totfact>
</mgrwt>
</event>
<event>
 8    2  0.4480234E-052  0.2168017E+04  0.7818608E-02  0.8531859E-01
          2   -1    0    0  501    0  0.00000000000E+00  0.00000000000E+00  0.10895926956E+04  0.10895926956E+04  0.25500000000E-02 0. -1.
         -2   -1    0    0    0  501 -0.00000000000E+00 -0.00000000000E+00 -0.10784528159E+04  0.10784528159E+04  0.25500000000E-02 0.  1.
    -200001    2    1    2    0    0  0.70371520456E+03  0.52978495256E+02  0.55431205726E+03  0.10869225653E+04  0.61328378108E+03 0.  0.
   -5000001    2    3    3    0    0  0.54251911905E+03  0.25671364585E+03  0.19866079410E+03  0.63505863609E+03  0.60037235613E+02 0.  0.
     200001    1    1    2    0    0 -0.70371520456E+03 -0.52978495256E+02 -0.54317217754E+03  0.10811229461E+04  0.61300000000E+03 0. -1.
         13    1    4    4    0    0  0.18561802939E+03  0.71164390152E+02  0.83097761083E+02  0.21546153327E+03  0.10566000000E+00 0.  1.
    -200003    1    4    4    0    0  0.35690108966E+03  0.18554925570E+03  0.11556303302E+03  0.41959710282E+03  0.30000000000E+02 0. -1.
    -200000    1    3    3    0    0  0.16119608551E+03 -0.20373515060E+03  0.35565126316E+03  0.45186392925E+03  0.10100000000E+03 0. -1.
<mgrwt>
<rscale>  0 0.21680169E+04</rscale>
<asrwt>0</asrwt>
<pdfrwt beam="1">  1        2 0.15565610E+00 0.21680169E+04</pdfrwt>
<pdfrwt beam="2">  1       -2 0.15406469E+00 0.21680169E+04</pdfrwt>
<totfact> 0.63651258E+00</totfact>
</mgrwt>
</event>
<event>
 8    2  0.4480234E-052  0.1958933E+04  0.7818608E-02  0.8626065E-01
          2   -1    0    0  501    0  0.00000000000E+00  0.00000000000E+00  0.93241354927E+03  0.93241354927E+03  0.25500000000E-02 0.  1.
         -2   -1    0    0    0  501 -0.00000000000E+00 -0.00000000000E+00 -0.10288941262E+04  0.10288941262E+04  0.25500000000E-02 0. -1.
    -200001    2    1    2    0    0 -0.62218080035E+03  0.43420104456E+03  0.34813212102E+02  0.97710924297E+03  0.61472840957E+03 0.  0.
   -5000001    2    3    3    0    0 -0.61191422560E+03  0.53907981369E+03 -0.16736505290E+02  0.82230829938E+03  0.10423417670E+03 0.  0.
     200001    1    1    2    0    0  0.62218080035E+03 -0.43420104456E+03 -0.13129378898E+03  0.98419843246E+03  0.61300000000E+03 0.  1.
         13    1    4    4    0    0 -0.47993055751E+03  0.45164223882E+03  0.92481835450E+01  0.65908997260E+03  0.10566000000E+00 0.  1.
    -200003    1    4    4    0    0 -0.13198366810E+03  0.87437574871E+02 -0.25984688835E+02  0.16321832678E+03  0.30000000000E+02 0.  1.
    -200000    1    3    3    0    0 -0.10266574751E+02 -0.10487876913E+03  0.51549717392E+02  0.15480094359E+03  0.10100000000E+03 0.  1.
<mgrwt>
<rscale>  0 0.19589332E+04</rscale>
<asrwt>0</asrwt>
<pdfrwt beam="1">  1        2 0.13320194E+00 0.19589332E+04</pdfrwt>
<pdfrwt beam="2">  1       -2 0.14698488E+00 0.19589332E+04</pdfrwt>
<totfact> 0.91625088E+00</totfact>
</mgrwt>
</event>
<event>
 8    2  0.4480234E-052  0.1614255E+04  0.7818608E-02  0.8811838E-01
          2   -1    0    0  501    0  0.00000000000E+00  0.00000000000E+00  0.33424805463E+04  0.33424805463E+04  0.25500000000E-02 0.  1.
         -2   -1    0    0    0  501 -0.00000000000E+00 -0.00000000000E+00 -0.19490156331E+03  0.19490156332E+03  0.25500000000E-02 0. -1.
    -200001    2    1    2    0    0  0.10779547477E+03  0.23512965551E+03  0.25751247298E+04  0.26596699180E+04  0.61291996184E+03 0.  0.
   -5000001    2    3    3    0    0 -0.22788245985E+03  0.32766543962E+01  0.99125819433E+03  0.10209906657E+04  0.88814298509E+02 0.  0.
     200001    1    1    2    0    0 -0.10779547477E+03 -0.23512965551E+03  0.57245425323E+03  0.87771219162E+03  0.61300000000E+03 0. -1.
         13    1    4    4    0    0 -0.82928006255E+02 -0.29702837027E+02  0.46712994253E+03  0.47536271111E+03  0.10566000000E+00 0.  1.
    -200003    1    4    4    0    0 -0.14495445359E+03  0.32979491423E+02  0.52412825181E+03  0.54562795458E+03  0.30000000000E+02 0.  1.
    -200000    1    3    3    0    0  0.33567793462E+03  0.23185300112E+03  0.15838665355E+04  0.16386792524E+04  0.10100000000E+03 0.  1.
<mgrwt>
<rscale>  0 0.16142549E+04</rscale>
<asrwt>0</asrwt>
<pdfrwt beam="1">  1        2 0.47749724E+00 0.16142549E+04</pdfrwt>
<pdfrwt beam="2">  1       -2 0.27843080E-01 0.16142549E+04</pdfrwt>
<totfact> 0.17026530E+01</totfact>
</mgrwt>
</event>
<event>
 8    2  0.4480234E-052  0.1347822E+04  0.7818608E-02  0.8992479E-01
         -2   -1    0    0    0  501 -0.00000000000E+00  0.00000000000E+00  0.16865889378E+03  0.16865889380E+03  0.25500000000E-02 0. -1.
          2   -1    0    0  501    0  0.00000000000E+00 -0.00000000000E+00 -0.26927481288E+04  0.26927481288E+04  0.25500000000E-02 0.  1.
    -200001    2    1    2    0    0  0.27068777304E+03 -0.58976321773E+02 -0.11687366259E+04  0.13482977165E+04  0.61254498179E+03 0.  0.
   -5000001    2    3    3    0    0  0.12245837278E+03 -0.14021830750E+02 -0.29936645320E+03  0.45947919821E+03  0.32604937583E+03 0.  0.
     200001    1    1    2    0    0 -0.27068777304E+03  0.58976321773E+02 -0.13553526091E+04  0.15131093060E+04  0.61300000000E+03 0. -1.
         13    1    4    4    0    0  0.22565619385E+03 -0.49443494149E+02 -0.23391022484E+03  0.32875428725E+03  0.10566000000E+00 0.  1.
    -200003    1    4    4    0    0 -0.10319782108E+03  0.35421663398E+02 -0.65456228367E+02  0.13072491096E+03  0.30000000000E+02 0.  1.
    -200000    1    3    3    0    0  0.14822940026E+03 -0.44954491023E+02 -0.86937017268E+03  0.88881851833E+03  0.10100000000E+03 0.  1.
<mgrwt>
<rscale>  0 0.13478218E+04</rscale>
<asrwt>0</asrwt>
<pdfrwt beam="1">  1        2 0.38467828E+00 0.13478218E+04</pdfrwt>
<pdfrwt beam="2">  1       -2 0.24094129E-01 0.13478218E+04</pdfrwt>
<totfact> 0.52392966E+01</totfact>
</mgrwt>
</event>
<event>
 8    2  0.4480234E-052  0.1331252E+04  0.7818608E-02  0.9005142E-01
          2   -1    0    0  501    0  0.00000000000E+00  0.00000000000E+00  0.21669604025E+04  0.21669604025E+04  0.25500000000E-02 0.  1.
         -2   -1    0    0    0  501 -0.00000000000E+00 -0.00000000000E+00 -0.20446068113E+03  0.20446068115E+03  0.25500000000E-02 0. -1.
    -200001    2    1    2    0    0 -0.10736348363E+03  0.22938109069E+03  0.10676843354E+04  0.12575960627E+04  0.61437400209E+03 0.  0.
   -5000001    2    3    3    0    0 -0.17264277175E+02  0.41681259946E+03  0.77338084911E+03  0.88334483754E+03  0.90273838414E+02 0.  0.
     200001    1    1    2    0    0  0.10736348363E+03 -0.22938109069E+03  0.89481538601E+03  0.11138250210E+04  0.61300000000E+03 0.  1.
         13    1    4    4    0    0  0.22750307882E+02  0.22743554983E+03  0.46264623003E+03  0.51602911852E+03  0.10566000000E+00 0.  1.
    -200003    1    4    4    0    0 -0.40014585057E+02  0.18937704963E+03  0.31073461908E+03  0.36731571901E+03  0.30000000000E+02 0.  1.
    -200000    1    3    3    0    0 -0.90099206450E+02 -0.18743150877E+03  0.29430348627E+03  0.37425122513E+03  0.10100000000E+03 0.  1.
<mgrwt>
<rscale>  0 0.13312523E+04</rscale>
<asrwt>0</asrwt>
<pdfrwt beam="1">  1        2 0.30956576E+00 0.13312523E+04</pdfrwt>
<pdfrwt beam="2">  1       -2 0.29208669E-01 0.13312523E+04</pdfrwt>
<totfact> 0.69450919E+01</totfact>
</mgrwt>
</event>
<event>
 8    2  0.4480234E-052  0.1370066E+04  0.7818608E-02  0.8975776E-01
          2   -1    0    0  501    0  0.00000000000E+00  0.00000000000E+00  0.21729417416E+04  0.21729417416E+04  0.25500000000E-02 0.  1.
         -2   -1    0    0    0  501 -0.00000000000E+00 -0.00000000000E+00 -0.21596063891E+03  0.21596063893E+03  0.25500000000E-02 0. -1.
    -200001    2    1    2    0    0 -0.10873192773E+03  0.22915307486E+03  0.12797345905E+04  0.14408698905E+04  0.61159762552E+03 0.  0.
   -5000001    2    3    3    0    0 -0.24377308161E+03  0.78194273407E+02  0.34475816668E+03  0.47888933666E+03  0.21198382852E+03 0.  0.
     200001    1    1    2    0    0  0.10873192773E+03 -0.22915307486E+03  0.67724651225E+03  0.94803249005E+03  0.61300000000E+03 0. -1.
         13    1    4    4    0    0  0.22582277154E+02 -0.16398053166E+02 -0.48360992541E+01  0.28324095910E+02  0.10566000000E+00 0.  1.
    -200003    1    4    4    0    0 -0.26635535877E+03  0.94592326574E+02  0.34959426594E+03  0.45056524075E+03  0.30000000000E+02 0.  1.
    -200000    1    3    3    0    0  0.13504115389E+03  0.15095880146E+03  0.93497642380E+03  0.96198055387E+03  0.10100000000E+03 0.  1.
<mgrwt>
<rscale>  0 0.13700655E+04</rscale>
<asrwt>0</asrwt>
<pdfrwt beam="1">  1        2 0.31042027E+00 0.13700655E+04</pdfrwt>
<pdfrwt beam="2">  1       -2 0.30851518E-01 0.13700655E+04</pdfrwt>
<totfact> 0.62090363E+01</totfact>
</mgrwt>
</event>
<event>
 8    2  0.4480234E-052  0.1340938E+04  0.7818608E-02  0.8997717E-01
         -2   -1    0    0    0  501 -0.00000000000E+00  0.00000000000E+00  0.12359236962E+04  0.12359236962E+04  0.25500000000E-02 0.  1.
          2   -1    0    0  501    0  0.00000000000E+00 -0.00000000000E+00 -0.36371869100E+03  0.36371869101E+03  0.25500000000E-02 0. -1.
    -200001    2    1    2    0    0 -0.20801663043E+03  0.18120884835E+03  0.40398544463E+03  0.78043171700E+03  0.60808047180E+03 0.  0.
   -5000001    2    3    3    0    0 -0.31975330601E+03 -0.25028386543E+02  0.40876404171E+03  0.52500517822E+03  0.75324620981E+02 0.  0.
     200001    1    1    2    0    0  0.20801663043E+03 -0.18120884835E+03  0.46821956053E+03  0.81921067017E+03  0.61300000000E+03 0.  1.
         13    1    4    4    0    0 -0.75553189684E+02 -0.29968945796E+02  0.12836805884E+03  0.15193680225E+03  0.10566000000E+00 0.  1.
    -200003    1    4    4    0    0 -0.24420011633E+03  0.49405592536E+01  0.28039598287E+03  0.37306837597E+03  0.30000000000E+02 0.  1.
    -200000    1    3    3    0    0  0.11173667558E+03  0.20623723489E+03 -0.47785970780E+01  0.25542653878E+03  0.10100000000E+03 0. -1.
<mgrwt>
<rscale>  0 0.13409378E+04</rscale>
<asrwt>0</asrwt>
<pdfrwt beam="1">  1        2 0.51959813E-01 0.13409378E+04</pdfrwt>
<pdfrwt beam="2">  1       -2 0.17656053E+00 0.13409378E+04</pdfrwt>
<totfact> 0.18022107E+01</totfact>
</mgrwt>
</event>
<event>
 8    2  0.4480234E-052  0.1433279E+04  0.7818608E-02  0.8930075E-01
         -2   -1    0    0    0  501 -0.00000000000E+00  0.00000000000E+00  0.31953916688E+03  0.31953916689E+03  0.25500000000E-02 0. -1.
          2   -1    0    0  501    0  0.00000000000E+00 -0.00000000000E+00 -0.16072284481E+04  0.16072284481E+04  0.25500000000E-02 0.  1.
    -200001    2    1    2    0    0  0.15421959510E+03 -0.20815571698E+03 -0.28603890458E+03  0.72419330833E+03  0.61280111527E+03 0.  0.
   -5000001    2    3    3    0    0 -0.12619507013E+02 -0.21730037328E+03 -0.55888475707E+02  0.42238354930E+03  0.35763897553E+03 0.  0.
     200001    1    1    2    0    0 -0.15421959510E+03  0.20815571698E+03 -0.10016503766E+04  0.12025743067E+04  0.61300000000E+03 0. -1.
         13    1    4    4    0    0  0.91212940635E+02 -0.24891917118E+03 -0.12196955407E+03  0.29181695908E+03  0.10566000000E+00 0.  1.
    -200003    1    4    4    0    0 -0.10383244765E+03  0.31618797899E+02  0.66081078366E+02  0.13056659023E+03  0.30000000000E+02 0.  1.
    -200000    1    3    3    0    0  0.16683910211E+03  0.91446563023E+01 -0.23015042887E+03  0.30180975903E+03  0.10100000000E+03 0.  1.
<mgrwt>
<rscale>  0 0.14332794E+04</rscale>
<asrwt>0</asrwt>
<pdfrwt beam="1">  1        2 0.22960406E+00 0.14332794E+04</pdfrwt>
<pdfrwt beam="2">  1       -2 0.45648453E-01 0.14332794E+04</pdfrwt>
<totfact> 0.56726516E+01</totfact>
</mgrwt>
</event>
<event>
 8    2  0.4480234E-052  0.1580487E+04  0.7818608E-02  0.8832626E-01
         -2   -1    0    0    0  501 -0.00000000000E+00  0.00000000000E+00  0.87943513288E+03  0.87943513288E+03  0.25500000000E-02 0. -1.
          2   -1    0    0  501    0  0.00000000000E+00 -0.00000000000E+00 -0.71009772246E+03  0.71009772247E+03  0.25500000000E-02 0.  1.
    -200001    2    1    2    0    0 -0.45712682398E+03  0.17060223981E+02  0.28792644814E+03  0.81552488102E+03  0.61067438753E+03 0.  0.
   -5000001    2    3    3    0    0 -0.46158789152E+03  0.28691978233E+02 -0.27209355639E+02  0.48436514063E+03  0.14135992789E+03 0.  0.
     200001    1    1    2    0    0  0.45712682398E+03 -0.17060223981E+02 -0.11858903773E+03  0.77400797432E+03  0.61300000000E+03 0.  1.
         13    1    4    4    0    0 -0.23481857762E+03 -0.90987318306E+00 -0.79401248938E+02  0.24788134613E+03  0.10566000000E+00 0.  1.
    -200003    1    4    4    0    0 -0.22676931390E+03  0.29601851416E+02  0.52191893299E+02  0.23648379450E+03  0.30000000000E+02 0.  1.
    -200000    1    3    3    0    0  0.44610675365E+01 -0.11631754252E+02  0.31513580378E+03  0.33115974039E+03  0.10100000000E+03 0. -1.
<mgrwt>
<rscale>  0 0.15804871E+04</rscale>
<asrwt>0</asrwt>
<pdfrwt beam="1">  1        2 0.10144253E+00 0.15804871E+04</pdfrwt>
<pdfrwt beam="2">  1       -2 0.12563359E+00 0.15804871E+04</pdfrwt>
<totfact> 0.20145753E+01</totfact>
</mgrwt>
</event>
<event>
 8    2  0.4480234E-052  0.1373871E+04  0.7818608E-02  0.8972952E-01
          2   -1    0    0  501    0  0.00000000000E+00  0.00000000000E+00  0.91786093628E+03  0.91786093629E+03  0.25500000000E-02 0.  1.
         -2   -1    0    0    0  501 -0.00000000000E+00 -0.00000000000E+00 -0.51410908721E+03  0.51410908721E+03  0.25500000000E-02 0. -1.
    -200001    2    1    2    0    0 -0.28314334085E+03  0.23759901731E+02  0.71452209254E+02  0.67902465030E+03  0.61256377064E+03 0.  0.
   -5000001    2    3    3    0    0 -0.41206928906E+03  0.73257507828E+02  0.19231787511E+03  0.46954571982E+03  0.91209958236E+02 0.  0.
     200001    1    1    2    0    0  0.28314334085E+03 -0.23759901731E+02  0.33229963982E+03  0.75294537320E+03  0.61300000000E+03 0.  1.
         13    1    4    4    0    0 -0.70197633892E+02  0.12681637041E+02  0.70724325701E+02  0.10045134709E+03  0.10566000000E+00 0.  1.
    -200003    1    4    4    0    0 -0.34187165517E+03  0.60575870787E+02  0.12159354941E+03  0.36909437273E+03  0.30000000000E+02 0.  1.
    -200000    1    3    3    0    0  0.12892594821E+03 -0.49497606096E+02 -0.12086566585E+03  0.20947893047E+03  0.10100000000E+03 0. -1.
<mgrwt>
<rscale>  0 0.13738714E+04</rscale>
<asrwt>0</asrwt>
<pdfrwt beam="1">  1        2 0.13112299E+00 0.13738714E+04</pdfrwt>
<pdfrwt beam="2">  1       -2 0.73444155E-01 0.13738714E+04</pdfrwt>
<totfact> 0.51720013E+01</totfact>
</mgrwt>
</event>
<event>
 8    2  0.4480234E-052  0.1317304E+04  0.7818608E-02  0.9015954E-01
         -2   -1    0    0    0  501 -0.00000000000E+00  0.00000000000E+00  0.12885781800E+03  0.12885781802E+03  0.25500000000E-02 0. -1.
          2   -1    0    0  501    0  0.00000000000E+00 -0.00000000000E+00 -0.33666748155E+04  0.33666748155E+04  0.25500000000E-02 0.  1.
    -200001    2    1    2    0    0 -0.33112337345E+02  0.10734504737E+03 -0.10605421238E+04  0.12308219982E+04  0.61445407380E+03 0.  0.
   -5000001    2    3    3    0    0  0.19782085618E+03  0.20307947156E+03 -0.79758795820E+03  0.85420400466E+03  0.11464539937E+03 0.  0.
     200001    1    1    2    0    0  0.33112337345E+02 -0.10734504737E+03 -0.21772748737E+04  0.22647106353E+04  0.61300000000E+03 0.  1.
         13    1    4    4    0    0  0.88713220035E+02  0.90550109151E+02 -0.20966966013E+03  0.24501170425E+03  0.10566000000E+00 0.  1.
    -200003    1    4    4    0    0  0.10910763615E+03  0.11252936241E+03 -0.58791829807E+03  0.60919230041E+03  0.30000000000E+02 0.  1.
    -200000    1    3    3    0    0 -0.23093319353E+03 -0.95734424195E+02 -0.26295416558E+03  0.37661799352E+03  0.10100000000E+03 0. -1.
<mgrwt>
<rscale>  0 0.13173039E+04</rscale>
<asrwt>0</asrwt>
<pdfrwt beam="1">  1        2 0.48095349E+00 0.13173039E+04</pdfrwt>
<pdfrwt beam="2">  1       -2 0.18408262E-01 0.13173039E+04</pdfrwt>
<totfact> 0.35525025E+01</totfact>
</mgrwt>
</event>
<event>
 8    2  0.4480234E-052  0.1317188E+04  0.7818608E-02  0.9016045E-01
         -2   -1    0    0    0  501 -0.00000000000E+00  0.00000000000E+00  0.42160645772E+03  0.42160645773E+03  0.25500000000E-02 0. -1.
          2   -1    0    0  501    0  0.00000000000E+00 -0.00000000000E+00 -0.10287938346E+04  0.10287938346E+04  0.25500000000E-02 0.  1.
    -200001    2    1    2    0    0 -0.20131032999E+03 -0.11610526144E+03 -0.37149188514E+03  0.75374568244E+03  0.61328627277E+03 0.  0.
   -5000001    2    3    3    0    0 -0.65581606796E+02 -0.33375919569E+03 -0.12541635596E+03  0.38421938100E+03  0.12727577358E+03 0.  0.
     200001    1    1    2    0    0  0.20131032999E+03  0.11610526144E+03 -0.23569549177E+03  0.69665460993E+03  0.61300000000E+03 0.  1.
         13    1    4    4    0    0  0.16818809593E+02 -0.17948604233E+03 -0.30040301466E+02  0.18275815337E+03  0.10566000000E+00 0.  1.
    -200003    1    4    4    0    0 -0.82400416389E+02 -0.15427315335E+03 -0.95376054491E+02  0.20146122763E+03  0.30000000000E+02 0.  1.
    -200000    1    3    3    0    0 -0.13572872319E+03  0.21765393424E+03 -0.24607552918E+03  0.36952630144E+03  0.10100000000E+03 0.  1.
<mgrwt>
<rscale>  0 0.13171881E+04</rscale>
<asrwt>0</asrwt>
<pdfrwt beam="1">  1        2 0.14697055E+00 0.13171881E+04</pdfrwt>
<pdfrwt beam="2">  1       -2 0.60229494E-01 0.13171881E+04</pdfrwt>
<totfact> 0.67884016E+01</totfact>
</mgrwt>
</event>
<event>
 8    2  0.4480234E-052  0.1549483E+04  0.7818608E-02  0.8852198E-01
          2   -1    0    0  501    0  0.00000000000E+00  0.00000000000E+00  0.62418157934E+03  0.62418157935E+03  0.25500000000E-02 0.  1.
         -2   -1    0    0    0  501 -0.00000000000E+00 -0.00000000000E+00 -0.96161802088E+03  0.96161802089E+03  0.25500000000E-02 0. -1.
    -200001    2    1    2    0    0 -0.35865668757E+03  0.27520262252E+03 -0.23509975787E+02  0.76197320537E+03  0.61292686656E+03 0.  0.
   -5000001    2    3    3    0    0 -0.29292578420E+03  0.42645189497E+03 -0.11843339421E+03  0.54654723331E+03  0.13046331133E+03 0.  0.
     200001    1    1    2    0    0  0.35865668757E+03 -0.27520262252E+03 -0.31392646575E+03  0.82382639487E+03  0.61300000000E+03 0.  1.
         13    1    4    4    0    0 -0.10064137288E+03  0.23381377780E+03 -0.19145156383E+02  0.25527263230E+03  0.10566000000E+00 0.  1.
    -200003    1    4    4    0    0 -0.19228441132E+03  0.19263811716E+03 -0.99288237829E+02  0.29127460101E+03  0.30000000000E+02 0.  1.
    -200000    1    3    3    0    0 -0.65730903368E+02 -0.15124927244E+03  0.94923418425E+02  0.21542597206E+03  0.10100000000E+03 0.  1.
<mgrwt>
<rscale>  0 0.15494828E+04</rscale>
<asrwt>0</asrwt>
<pdfrwt beam="1">  1        2 0.89168798E-01 0.15494828E+04</pdfrwt>
<pdfrwt beam="2">  1       -2 0.13737400E+00 0.15494828E+04</pdfrwt>
<totfact> 0.18828448E+01</totfact>
</mgrwt>
</event>
<event>
 8    2  0.4480234E-052  0.2326869E+04  0.7818608E-02  0.8467402E-01
          2   -1    0    0  501    0  0.00000000000E+00  0.00000000000E+00  0.32448944002E+04  0.32448944002E+04  0.25500000000E-02 0.  1.
         -2   -1    0    0    0  501 -0.00000000000E+00 -0.00000000000E+00 -0.41714158168E+03  0.41714158169E+03  0.25500000000E-02 0. -1.
    -200001    2    1    2    0    0  0.82735613523E+03 -0.48348154960E+03  0.17967004806E+04  0.21267475703E+04  0.61371819869E+03 0.  0.
   -5000001    2    3    3    0    0  0.34810543346E+03 -0.37484981812E+02  0.11349358018E+04  0.11904102038E+04  0.80091588927E+02 0.  0.
     200001    1    1    2    0    0 -0.82735613523E+03  0.48348154960E+03  0.10310523380E+04  0.15352884116E+04  0.61300000000E+03 0. -1.
         13    1    4    4    0    0  0.21725066802E+03 -0.14403401395E+02  0.59595819188E+03  0.63448521524E+03  0.10566000000E+00 0.  1.
    -200003    1    4    4    0    0  0.13085476544E+03 -0.23081580416E+02  0.53897760989E+03  0.55592498861E+03  0.30000000000E+02 0.  1.
    -200000    1    3    3    0    0  0.47925070177E+03 -0.44599656779E+03  0.66176467881E+03  0.93633736642E+03  0.10100000000E+03 0. -1.
<mgrwt>
<rscale>  0 0.23268695E+04</rscale>
<asrwt>0</asrwt>
<pdfrwt beam="1">  1        2 0.46355633E+00 0.23268695E+04</pdfrwt>
<pdfrwt beam="2">  1       -2 0.59591657E-01 0.23268695E+04</pdfrwt>
<totfact> 0.40812173E+00</totfact>
</mgrwt>
</event>
<event>
 8    2  0.4480234E-052  0.1390629E+04  0.7818608E-02  0.8960630E-01
         -2   -1    0    0    0  501 -0.00000000000E+00  0.00000000000E+00  0.63386279273E+03  0.63386279273E+03  0.25500000000E-02 0. -1.
          2   -1    0    0  501    0  0.00000000000E+00 -0.00000000000E+00 -0.76272356725E+03  0.76272356726E+03  0.25500000000E-02 0.  1.
    -200001    2    1    2    0    0 -0.21847597975E+03 -0.13064651795E+03  0.14523219732E+03  0.67846643714E+03  0.61190199281E+03 0.  0.
   -5000001    2    3    3    0    0 -0.13791291208E+03 -0.46610181353E+02 -0.21101958073E+03  0.29030559019E+03  0.13621891174E+03 0.  0.
     200001    1    1    2    0    0  0.21847597975E+03  0.13064651795E+03 -0.27409297184E+03  0.71811992285E+03  0.61300000000E+03 0.  1.
         13    1    4    4    0    0 -0.14771338063E+03 -0.66473536596E+01 -0.14696099017E+03  0.20847295730E+03  0.10566000000E+00 0.  1.
    -200003    1    4    4    0    0  0.98004685497E+01 -0.39962827693E+02 -0.64058590561E+02  0.81832632890E+02  0.30000000000E+02 0.  1.
    -200000    1    3    3    0    0 -0.80563067667E+02 -0.84036336601E+02  0.35625177806E+03  0.38816084695E+03  0.10100000000E+03 0. -1.
<mgrwt>
<rscale>  0 0.13906288E+04</rscale>
<asrwt>0</asrwt>
<pdfrwt beam="1">  1        2 0.10896051E+00 0.13906288E+04</pdfrwt>
<pdfrwt beam="2">  1       -2 0.90551828E-01 0.13906288E+04</pdfrwt>
<totfact> 0.41088656E+01</totfact>
</mgrwt>
</event>
<event>
 8    2  0.4480234E-052  0.1269693E+04  0.7818608E-02  0.9053950E-01
         -2   -1    0    0    0  501 -0.00000000000E+00  0.00000000000E+00  0.19643400783E+03  0.19643400785E+03  0.25500000000E-02 0. -1.
          2   -1    0    0  501    0  0.00000000000E+00 -0.00000000000E+00 -0.20517336052E+04  0.20517336052E+04  0.25500000000E-02 0.  1.
    -200001    2    1    2    0    0 -0.16334382216E+01  0.56708223227E+02 -0.65387571228E+03  0.89820211632E+03  0.61318439636E+03 0.  0.
   -5000001    2    3    3    0    0 -0.22422965218E+03  0.20638082660E+03 -0.24592127496E+03  0.39962535632E+03  0.79694224589E+02 0.  0.
     200001    1    1    2    0    0  0.16334382216E+01 -0.56708223227E+02 -0.12014238851E+04  0.13499654967E+04  0.61300000000E+03 0.  1.
         13    1    4    4    0    0 -0.61749110564E+02  0.58376689259E+02 -0.11172775345E+03  0.14037055446E+03  0.10566000000E+00 0.  1.
    -200003    1    4    4    0    0 -0.16248054162E+03  0.14800413734E+03 -0.13419352151E+03  0.25925480187E+03  0.30000000000E+02 0.  1.
    -200000    1    3    3    0    0  0.22259621396E+03 -0.14967260337E+03 -0.40795443732E+03  0.49857675999E+03  0.10100000000E+03 0. -1.
<mgrwt>
<rscale>  0 0.12696933E+04</rscale>
<asrwt>0</asrwt>
<pdfrwt beam="1">  1        2 0.29310479E+00 0.12696933E+04</pdfrwt>
<pdfrwt beam="2">  1       -2 0.28062002E-01 0.12696933E+04</pdfrwt>
<totfact> 0.86103094E+01</totfact>
</mgrwt>
</event>
<event>
 8    2  0.4480234E-052  0.2238379E+04  0.7818608E-02  0.8502622E-01
         -2   -1    0    0    0  501 -0.00000000000E+00  0.00000000000E+00  0.12238697698E+04  0.12238697698E+04  0.25500000000E-02 0. -1.
          2   -1    0    0  501    0  0.00000000000E+00 -0.00000000000E+00 -0.10234623722E+04  0.10234623722E+04  0.25500000000E-02 0.  1.
    -200001    2    1    2    0    0  0.49275553848E+03 -0.78146782636E+03  0.25204016441E+03  0.11374065017E+04  0.61373391737E+03 0.  0.
   -5000001    2    3    3    0    0  0.65244267238E+02 -0.64343259031E+02  0.23839594208E+03  0.29632345177E+03  0.15026008611E+03 0.  0.
     200001    1    1    2    0    0 -0.49275553848E+03  0.78146782636E+03 -0.51632766775E+02  0.11099256403E+04  0.61300000000E+03 0.  1.
         13    1    4    4    0    0 -0.39350974598E+02 -0.35871220618E+02  0.12839741515E+03  0.13900054335E+03  0.10566000000E+00 0.  1.
    -200003    1    4    4    0    0  0.10459524184E+03 -0.28472038412E+02  0.10999852693E+03  0.15732290842E+03  0.30000000000E+02 0.  1.
    -200000    1    3    3    0    0  0.42751127124E+03 -0.71712456733E+03  0.13644222329E+02  0.84108304995E+03  0.10100000000E+03 0. -1.
<mgrwt>
<rscale>  0 0.22383786E+04</rscale>
<asrwt>0</asrwt>
<pdfrwt beam="1">  1        2 0.14620891E+00 0.22383786E+04</pdfrwt>
<pdfrwt beam="2">  1       -2 0.17483854E+00 0.22383786E+04</pdfrwt>
<totfact> 0.48981860E+00</totfact>
</mgrwt>
</event>
<event>
 8    2  0.4480234E-052  0.2239683E+04  0.7818608E-02  0.8502090E-01
          2   -1    0    0  501    0  0.00000000000E+00  0.00000000000E+00  0.53923458318E+03  0.53923458319E+03  0.25500000000E-02 0.  1.
         -2   -1    0    0    0  501 -0.00000000000E+00 -0.00000000000E+00 -0.23256015864E+04  0.23256015864E+04  0.25500000000E-02 0. -1.
    -200001    2    1    2    0    0 -0.56056838738E+03  0.75046104690E+03 -0.84968193528E+03  0.14051866855E+04  0.61250431033E+03 0.  0.
   -5000001    2    3    3    0    0 -0.53121193966E+03  0.79378915508E+03 -0.86065356377E+03  0.12909041295E+04  0.11585148737E+03 0.  0.
     200001    1    1    2    0    0  0.56056838738E+03 -0.75046104690E+03 -0.93668506795E+03  0.14596494841E+04  0.61300000000E+03 0. -1.
         13    1    4    4    0    0 -0.16847903456E+03  0.17768559886E+03 -0.25354152208E+03  0.35247790244E+03  0.10566000000E+00 0.  1.
    -200003    1    4    4    0    0 -0.36273290511E+03  0.61610355622E+03 -0.60711204169E+03  0.93842622704E+03  0.30000000000E+02 0.  1.
    -200000    1    3    3    0    0 -0.29356447721E+02 -0.43328108187E+02  0.10971628491E+02  0.11428255603E+03  0.10100000000E+03 0.  1.
<mgrwt>
<rscale>  0 0.22396828E+04</rscale>
<asrwt>0</asrwt>
<pdfrwt beam="1">  1        2 0.77033513E-01 0.22396828E+04</pdfrwt>
<pdfrwt beam="2">  1       -2 0.33222879E+00 0.22396828E+04</pdfrwt>
<totfact> 0.11325692E+00</totfact>
</mgrwt>
</event>
<event>
 8    2  0.4480234E-052  0.1462712E+04  0.7818608E-02  0.8909635E-01
          2   -1    0    0  501    0  0.00000000000E+00  0.00000000000E+00  0.18532240444E+03  0.18532240446E+03  0.25500000000E-02 0.  1.
         -2   -1    0    0    0  501 -0.00000000000E+00 -0.00000000000E+00 -0.28862226164E+04  0.28862226164E+04  0.25500000000E-02 0. -1.
    -200001    2    1    2    0    0 -0.27347893827E+03  0.16679924946E+03 -0.85136379291E+03  0.10969142491E+04  0.61301536911E+03 0.  0.
   -5000001    2    3    3    0    0 -0.18233351993E+03  0.12926756199E+03 -0.24364508101E+03  0.47302391611E+03  0.33827959536E+03 0.  0.
     200001    1    1    2    0    0  0.27347893827E+03 -0.16679924946E+03 -0.18495364190E+04  0.19746307717E+04  0.61300000000E+03 0. -1.
         13    1    4    4    0    0 -0.17384036115E+03 -0.24688608019E+02 -0.26144805825E+03  0.31493665531E+03  0.10566000000E+00 0.  1.
    -200003    1    4    4    0    0 -0.84931587822E+01  0.15395617000E+03  0.17802977236E+02  0.15808726080E+03  0.30000000000E+02 0.  1.
    -200000    1    3    3    0    0 -0.91145418344E+02  0.37531687470E+02 -0.60771871190E+03  0.62389033302E+03  0.10100000000E+03 0. -1.
<mgrwt>
<rscale>  0 0.14627122E+04</rscale>
<asrwt>0</asrwt>
<pdfrwt beam="1">  1        2 0.26474631E-01 0.14627122E+04</pdfrwt>
<pdfrwt beam="2">  1       -2 0.41231749E+00 0.14627122E+04</pdfrwt>
<totfact> 0.12415929E+00</totfact>
</mgrwt>
</event>
<event>
 8    2  0.4480234E-052  0.1381639E+04  0.7818608E-02  0.8967217E-01
          2   -1    0    0  501    0  0.00000000000E+00  0.00000000000E+00  0.16397438997E+04  0.16397438997E+04  0.25500000000E-02 0.  1.
         -2   -1    0    0    0  501 -0.00000000000E+00 -0.00000000000E+00 -0.29104044426E+03  0.29104044427E+03  0.25500000000E-02 0. -1.
    -200001    2    1    2    0    0  0.10447855018E+03  0.21149034318E+03  0.97199415843E+03  0.11736035022E+04  0.61394511453E+03 0.  0.
   -5000001    2    3    3    0    0 -0.11331355545E+03 -0.88366006139E+01  0.20649079040E+03  0.34163368911E+03  0.24729958280E+03 0.  0.
     200001    1    1    2    0    0 -0.10447855018E+03 -0.21149034318E+03  0.37670929702E+03  0.75718084178E+03  0.61300000000E+03 0.  1.
         13    1    4    4    0    0  0.67663940038E+01 -0.10689611553E+03  0.12269360778E+03  0.16286895394E+03  0.10566000000E+00 0.  1.
    -200003    1    4    4    0    0 -0.12007994945E+03  0.98059514912E+02  0.83797182615E+02  0.17876473517E+03  0.30000000000E+02 0.  1.
    -200000    1    3    3    0    0  0.21779210563E+03  0.22032694379E+03  0.76550336804E+03  0.83196981310E+03  0.10100000000E+03 0.  1.
<mgrwt>
<rscale>  0 0.13816393E+04</rscale>
<asrwt>0</asrwt>
<pdfrwt beam="1">  1        2 0.23424913E+00 0.13816393E+04</pdfrwt>
<pdfrwt beam="2">  1       -2 0.41577206E-01 0.13816393E+04</pdfrwt>
<totfact> 0.65911643E+01</totfact>
</mgrwt>
</event>
<event>
 8    2  0.4480234E-052  0.1305107E+04  0.7818608E-02  0.9025525E-01
          2   -1    0    0  501    0  0.00000000000E+00  0.00000000000E+00  0.29768561101E+03  0.29768561102E+03  0.25500000000E-02 0.  1.
         -2   -1    0    0    0  501 -0.00000000000E+00 -0.00000000000E+00 -0.14304567304E+04  0.14304567304E+04  0.25500000000E-02 0. -1.
    -200001    2    1    2    0    0  0.90231766333E+02 -0.11110351430E+03 -0.34015965795E+03  0.71597254768E+03  0.61353266709E+03 0.  0.
   -5000001    2    3    3    0    0  0.15631892409E+03 -0.25733665466E+03 -0.31466024261E+03  0.52465379809E+03  0.29256243730E+03 0.  0.
     200001    1    1    2    0    0 -0.90231766333E+02  0.11110351430E+03 -0.79261146139E+03  0.10121697937E+04  0.61300000000E+03 0. -1.
         13    1    4    4    0    0  0.89256703690E+02  0.24875039493E+02  0.39414608212E+01  0.92741970115E+02  0.10566000000E+00 0.  1.
    -200003    1    4    4    0    0  0.67062220396E+02 -0.28221169415E+03 -0.31860170343E+03  0.43191182798E+03  0.30000000000E+02 0.  1.
    -200000    1    3    3    0    0 -0.66087157753E+02  0.14623314036E+03 -0.25499415346E+02  0.19131874958E+03  0.10100000000E+03 0.  1.
<mgrwt>
<rscale>  0 0.13051075E+04</rscale>
<asrwt>0</asrwt>
<pdfrwt beam="1">  1        2 0.42526517E-01 0.13051075E+04</pdfrwt>
<pdfrwt beam="2">  1       -2 0.20435096E+00 0.13051075E+04</pdfrwt>
<totfact> 0.14694538E+01</totfact>
</mgrwt>
</event>
<event>
 8    2  0.4480234E-052  0.2421009E+04  0.7818608E-02  0.8431680E-01
          2   -1    0    0  501    0  0.00000000000E+00  0.00000000000E+00  0.20267645266E+04  0.20267645266E+04  0.25500000000E-02 0.  1.
         -2   -1    0    0    0  501 -0.00000000000E+00 -0.00000000000E+00 -0.72298562406E+03  0.72298562407E+03  0.25500000000E-02 0. -1.
    -200001    2    1    2    0    0 -0.45307578506E+03 -0.63941278866E+03 -0.13125547397E+03  0.10035488327E+04  0.61298929742E+03 0.  0.
   -5000001    2    3    3    0    0 -0.25686294434E+02 -0.40208146874E+03  0.14684958802E+03  0.43211960902E+03  0.53228392557E+02 0.  0.
     200001    1    1    2    0    0  0.45307578506E+03  0.63941278866E+03  0.14350343765E+04  0.17462013181E+04  0.61300000000E+03 0.  1.
         13    1    4    4    0    0 -0.14369331711E+01 -0.22060454593E+03  0.72040575653E+02  0.23207388083E+03  0.10566000000E+00 0.  1.
    -200003    1    4    4    0    0 -0.24249361263E+02 -0.18147692281E+03  0.74809012369E+02  0.20004572819E+03  0.30000000000E+02 0. -1.
    -200000    1    3    3    0    0 -0.42738949063E+03 -0.23733131993E+03 -0.27810506199E+03  0.57142922363E+03  0.10100000000E+03 0. -1.
<mgrwt>
<rscale>  0 0.24210094E+04</rscale>
<asrwt>0</asrwt>
<pdfrwt beam="1">  1        2 0.28953779E+00 0.24210094E+04</pdfrwt>
<pdfrwt beam="2">  1       -2 0.10328366E+00 0.24210094E+04</pdfrwt>
<totfact> 0.53655563E+00</totfact>
</mgrwt>
</event>
<event>
 8    2  0.4480234E-052  0.1420760E+04  0.7818608E-02  0.8938927E-01
          2   -1    0    0  501    0  0.00000000000E+00  0.00000000000E+00  0.12544182740E+04  0.12544182740E+04  0.25500000000E-02 0.  1.
         -2   -1    0    0    0  501 -0.00000000000E+00 -0.00000000000E+00 -0.40228985285E+03  0.40228985286E+03  0.25500000000E-02 0. -1.
    -200001    2    1    2    0    0 -0.96683595295E+01 -0.18594178654E+03  0.78394213507E+03  0.10124362939E+04  0.61302051582E+03 0.  0.
   -5000001    2    3    3    0    0 -0.26193761658E+03 -0.14588420207E+03  0.22131756816E+03  0.38634381553E+03  0.10191448583E+03 0.  0.
     200001    1    1    2    0    0  0.96683595295E+01  0.18594178654E+03  0.68186286040E+02  0.64427183297E+03  0.61300000000E+03 0. -1.
         13    1    4    4    0    0 -0.99864445784E+02 -0.10807992602E+03  0.11280733737E+03  0.18541759482E+03  0.10566000000E+00 0.  1.
    -200003    1    4    4    0    0 -0.16207317080E+03 -0.37804276052E+02  0.10851023080E+03  0.20092622071E+03  0.30000000000E+02 0.  1.
    -200000    1    3    3    0    0  0.25226925705E+03 -0.40057584465E+02  0.56262456691E+03  0.62609247833E+03  0.10100000000E+03 0. -1.
<mgrwt>
<rscale>  0 0.14207600E+04</rscale>
<asrwt>0</asrwt>
<pdfrwt beam="1">  1        2 0.17920261E+00 0.14207600E+04</pdfrwt>
<pdfrwt beam="2">  1       -2 0.57469978E-01 0.14207600E+04</pdfrwt>
<totfact> 0.54933573E+01</totfact>
</mgrwt>
</event>
<event>
 8    2  0.4480234E-052  0.1522023E+04  0.7818608E-02  0.8869939E-01
         -2   -1    0    0    0  501 -0.00000000000E+00  0.00000000000E+00  0.30189267939E+03  0.30189267940E+03  0.25500000000E-02 0. -1.
          2   -1    0    0  501    0  0.00000000000E+00 -0.00000000000E+00 -0.19183584663E+04  0.19183584663E+04  0.25500000000E-02 0.  1.
    -200001    2    1    2    0    0 -0.24092355827E+03 -0.15725122495E+03 -0.30262758836E+03  0.74217404330E+03  0.61356885891E+03 0.  0.
   -5000001    2    3    3    0    0 -0.29553410287E+03 -0.14817314260E+02 -0.42312264998E+03  0.52310832173E+03  0.83961780443E+02 0.  0.
     200001    1    1    2    0    0  0.24092355827E+03  0.15725122495E+03 -0.13138381985E+04  0.14780771024E+04  0.61300000000E+03 0.  1.
         13    1    4    4    0    0 -0.16642589592E+03  0.14055287045E+02 -0.18647315647E+03  0.25033453452E+03  0.10566000000E+00 0.  1.
    -200003    1    4    4    0    0 -0.12910820695E+03 -0.28872601305E+02 -0.23664949351E+03  0.27277378720E+03  0.30000000000E+02 0.  1.
    -200000    1    3    3    0    0  0.54610544597E+02 -0.14243391069E+03  0.12049506161E+03  0.21906572157E+03  0.10100000000E+03 0.  1.
<mgrwt>
<rscale>  0 0.15220228E+04</rscale>
<asrwt>0</asrwt>
<pdfrwt beam="1">  1        2 0.27405120E+00 0.15220228E+04</pdfrwt>
<pdfrwt beam="2">  1       -2 0.43127527E-01 0.15220228E+04</pdfrwt>
<totfact> 0.43528616E+01</totfact>
</mgrwt>
</event>
<event>
 8    2  0.4480234E-052  0.1999016E+04  0.7818608E-02  0.8607081E-01
         -2   -1    0    0    0  501 -0.00000000000E+00  0.00000000000E+00  0.96320719465E+03  0.96320719465E+03  0.25500000000E-02 0. -1.
          2   -1    0    0  501    0  0.00000000000E+00 -0.00000000000E+00 -0.10371764144E+04  0.10371764145E+04  0.25500000000E-02 0.  1.
    -200001    2    1    2    0    0 -0.27365892802E+03  0.52138310673E+02  0.70218672298E+03  0.97286491836E+03  0.61301903977E+03 0.  0.
   -5000001    2    3    3    0    0  0.28816611535E+02 -0.14099356229E+03  0.47507221458E+03  0.53631781631E+03  0.20306060504E+03 0.  0.
     200001    1    1    2    0    0  0.27365892802E+03 -0.52138310673E+02 -0.77615594278E+03  0.10275186907E+04  0.61300000000E+03 0.  1.
         13    1    4    4    0    0  0.95814153434E+02 -0.12859089610E+03  0.39832890707E+03  0.42939713544E+03  0.10566000000E+00 0.  1.
    -200003    1    4    4    0    0 -0.66997541898E+02 -0.12402666192E+02  0.76743307512E+02  0.10692068087E+03  0.30000000000E+02 0.  1.
    -200000    1    3    3    0    0 -0.30247553955E+03  0.19313187296E+03  0.22711450840E+03  0.43654710205E+03  0.10100000000E+03 0.  1.
<mgrwt>
<rscale>  0 0.19990155E+04</rscale>
<asrwt>0</asrwt>
<pdfrwt beam="1">  1        2 0.14816806E+00 0.19990155E+04</pdfrwt>
<pdfrwt beam="2">  1       -2 0.13760103E+00 0.19990155E+04</pdfrwt>
<totfact> 0.93365826E+00</totfact>
</mgrwt>
</event>
<event>
 8    2  0.4480234E-052  0.1594344E+04  0.7818608E-02  0.8824030E-01
         -2   -1    0    0    0  501 -0.00000000000E+00  0.00000000000E+00  0.13349987008E+04  0.13349987008E+04  0.25500000000E-02 0. -1.
          2   -1    0    0  501    0  0.00000000000E+00 -0.00000000000E+00 -0.47601790259E+03  0.47601790260E+03  0.25500000000E-02 0.  1.
    -200001    2    1    2    0    0  0.10423963123E+03 -0.39804321962E+03  0.88397373543E+02  0.74383708721E+03  0.61333124106E+03 0.  0.
   -5000001    2    3    3    0    0 -0.16598027463E+03 -0.24425444178E+03  0.23381658481E+03  0.38604170894E+03  0.84547748712E+02 0.  0.
     200001    1    1    2    0    0 -0.10423963123E+03  0.39804321962E+03  0.77058342466E+03  0.10671795162E+04  0.61300000000E+03 0. -1.
         13    1    4    4    0    0 -0.67574993518E+02 -0.45102823418E+02  0.81196396615E+02  0.11486300717E+03  0.10566000000E+00 0.  1.
    -200003    1    4    4    0    0 -0.98405281112E+02 -0.19915161836E+03  0.15262018819E+03  0.27117870177E+03  0.30000000000E+02 0.  1.
    -200000    1    3    3    0    0  0.27021990586E+03 -0.15378877784E+03 -0.14541921126E+03  0.35779537828E+03  0.10100000000E+03 0.  1.
<mgrwt>
<rscale>  0 0.15943441E+04</rscale>
<asrwt>0</asrwt>
<pdfrwt beam="1">  1        2 0.68002558E-01 0.15943441E+04</pdfrwt>
<pdfrwt beam="2">  1       -2 0.19071410E+00 0.15943441E+04</pdfrwt>
<totfact> 0.10459725E+01</totfact>
</mgrwt>
</event>
<event>
 8    2  0.4480234E-052  0.1305600E+04  0.7818608E-02  0.9025136E-01
          2   -1    0    0  501    0  0.00000000000E+00  0.00000000000E+00  0.41967944147E+03  0.41967944147E+03  0.25500000000E-02 0. -1.
         -2   -1    0    0    0  501 -0.00000000000E+00 -0.00000000000E+00 -0.10154130542E+04  0.10154130542E+04  0.25500000000E-02 0.  1.
    -200001    2    1    2    0    0 -0.21384572393E+03  0.34363661826E+01 -0.33122478697E+03  0.73403920158E+03  0.61916224666E+03 0.  0.
   -5000001    2    3    3    0    0  0.85282936339E+02  0.53785670204E+02  0.12393515873E+03  0.17781569975E+03  0.78053968246E+02 0.  0.
     200001    1    1    2    0    0  0.21384572393E+03 -0.34363661826E+01 -0.26450882575E+03  0.70105329409E+03  0.61300000000E+03 0.  1.
         13    1    4    4    0    0  0.28025473662E+02  0.66025939079E+01 -0.17148448666E+01  0.28843946977E+02  0.10566000000E+00 0.  1.
    -200003    1    4    4    0    0  0.57257462677E+02  0.47183076296E+02  0.12565000359E+03  0.14897175277E+03  0.30000000000E+02 0.  1.
    -200000    1    3    3    0    0 -0.29912866027E+03 -0.50349304022E+02 -0.45515994570E+03  0.55622350183E+03  0.10100000000E+03 0.  1.
<mgrwt>
<rscale>  0 0.13056002E+04</rscale>
<asrwt>0</asrwt>
<pdfrwt beam="1">  1        2 0.59954206E-01 0.13056002E+04</pdfrwt>
<pdfrwt beam="2">  1       -2 0.14505901E+00 0.13056002E+04</pdfrwt>
<totfact> 0.26291809E+01</totfact>
</mgrwt>
</event>
<event>
 8    2  0.4480234E-052  0.1611240E+04  0.7818608E-02  0.8813672E-01
          2   -1    0    0  501    0  0.00000000000E+00  0.00000000000E+00  0.82708188186E+03  0.82708188187E+03  0.25500000000E-02 0.  1.
         -2   -1    0    0    0  501 -0.00000000000E+00 -0.00000000000E+00 -0.78471531401E+03  0.78471531401E+03  0.25500000000E-02 0. -1.
    -200001    2    1    2    0    0  0.43534787071E+03 -0.20822948404E+03 -0.18073308812E+03  0.80036035727E+03  0.61239281985E+03 0.  0.
   -5000001    2    3    3    0    0 -0.11275889101E+03 -0.32140713253E+02  0.82697702600E+02  0.15924799666E+03  0.69089952058E+02 0.  0.
     200001    1    1    2    0    0 -0.43534787071E+03  0.20822948404E+03  0.22309965597E+03  0.81143683861E+03  0.61300000000E+03 0.  1.
         13    1    4    4    0    0 -0.42856097746E+02 -0.60595873334E+01  0.63033932217E+02  0.76463399660E+02  0.10566000000E+00 0.  1.
    -200003    1    4    4    0    0 -0.69902793259E+02 -0.26081125920E+02  0.19663770383E+02  0.82784596999E+02  0.30000000000E+02 0.  1.
    -200000    1    3    3    0    0  0.54810676171E+03 -0.17608877078E+03 -0.26343079072E+03  0.64111236061E+03  0.10100000000E+03 0. -1.
<mgrwt>
<rscale>  0 0.16112403E+04</rscale>
<asrwt>0</asrwt>
<pdfrwt beam="1">  1        2 0.11815455E+00 0.16112403E+04</pdfrwt>
<pdfrwt beam="2">  1       -2 0.11210219E+00 0.16112403E+04</pdfrwt>
<totfact> 0.21936974E+01</totfact>
</mgrwt>
</event>
<event>
 8    2  0.4480234E-052  0.1404679E+04  0.7818608E-02  0.8950438E-01
         -2   -1    0    0    0  501 -0.00000000000E+00  0.00000000000E+00  0.10994537691E+04  0.10994537691E+04  0.25500000000E-02 0. -1.
          2   -1    0    0  501    0  0.00000000000E+00 -0.00000000000E+00 -0.44866008767E+03  0.44866008768E+03  0.25500000000E-02 0.  1.
    -200001    2    1    2    0    0 -0.23315892971E+03  0.23397790685E+03  0.42378605830E+03  0.81571355072E+03  0.61374687471E+03 0.  0.
   -5000001    2    3    3    0    0 -0.36365254086E+03  0.21585397761E+03  0.47456259713E+03  0.64211540482E+03  0.90919878971E+02 0.  0.
     200001    1    1    2    0    0  0.23315892971E+03 -0.23397790685E+03  0.22700762316E+03  0.73240030610E+03  0.61300000000E+03 0.  1.
         13    1    4    4    0    0 -0.18430343252E+03  0.10988450163E+03  0.29907392726E+03  0.36808638126E+03  0.10566000000E+00 0.  1.
    -200003    1    4    4    0    0 -0.17934910835E+03  0.10596947599E+03  0.17548866987E+03  0.27402902357E+03  0.30000000000E+02 0.  1.
    -200000    1    3    3    0    0  0.13049361115E+03  0.18123929235E+02 -0.50776538827E+02  0.17359814589E+03  0.10100000000E+03 0.  1.
<mgrwt>
<rscale>  0 0.14046794E+04</rscale>
<asrwt>0</asrwt>
<pdfrwt beam="1">  1        2 0.64094298E-01 0.14046794E+04</pdfrwt>
<pdfrwt beam="2">  1       -2 0.15706482E+00 0.14046794E+04</pdfrwt>
<totfact> 0.19596617E+01</totfact>
</mgrwt>
</event>
<event>
 8    2  0.4480234E-052  0.1410604E+04  0.7818608E-02  0.8946179E-01
         -2   -1    0    0    0  501 -0.00000000000E+00  0.00000000000E+00  0.50478827339E+03  0.50478827340E+03  0.25500000000E-02 0. -1.
          2   -1    0    0  501    0  0.00000000000E+00 -0.00000000000E+00 -0.98546378946E+03  0.98546378946E+03  0.25500000000E-02 0.  1.
    -200001    2    1    2    0    0  0.11187200040E+02  0.33025711932E+03 -0.12247522475E+03  0.70713561749E+03  0.61306254374E+03 0.  0.
   -5000001    2    3    3    0    0 -0.47911714017E+02 -0.15729202889E+03 -0.90379521619E+02  0.20471349644E+03  0.81870892302E+02 0.  0.
     200001    1    1    2    0    0 -0.11187200040E+02 -0.33025711932E+03 -0.35820029132E+03  0.78311644537E+03  0.61300000000E+03 0. -1.
         13    1    4    4    0    0 -0.27286504967E+02 -0.52177936999E+02  0.37368397420E+01  0.59000555914E+02  0.10566000000E+00 0.  1.
    -200003    1    4    4    0    0 -0.20625209050E+02 -0.10511409189E+03 -0.94116361361E+02  0.14571294053E+03  0.30000000000E+02 0.  1.
    -200000    1    3    3    0    0  0.59098914057E+02  0.48754914820E+03 -0.32095703126E+02  0.50242212105E+03  0.10100000000E+03 0. -1.
<mgrwt>
<rscale>  0 0.14106035E+04</rscale>
<asrwt>0</asrwt>
<pdfrwt beam="1">  1        2 0.14078054E+00 0.14106035E+04</pdfrwt>
<pdfrwt beam="2">  1       -2 0.72112611E-01 0.14106035E+04</pdfrwt>
<totfact> 0.48650669E+01</totfact>
</mgrwt>
</event>
<event>
 8    2  0.4480234E-052  0.2238491E+04  0.7818608E-02  0.8502576E-01
         -2   -1    0    0    0  501 -0.00000000000E+00  0.00000000000E+00  0.41537916205E+03  0.41537916206E+03  0.25500000000E-02 0. -1.
          2   -1    0    0  501    0  0.00000000000E+00 -0.00000000000E+00 -0.30158252855E+04  0.30158252855E+04  0.25500000000E-02 0.  1.
    -200001    2    1    2    0    0  0.58315813222E+03  0.36037814770E+03 -0.22784846755E+04  0.24568462021E+04  0.61209070232E+03 0.  0.
   -5000001    2    3    3    0    0  0.31572678704E+03 -0.90617657346E+02 -0.56880574988E+03  0.66572371349E+03  0.10841179703E+03 0.  0.
     200001    1    1    2    0    0 -0.58315813222E+03 -0.36037814770E+03 -0.32196144798E+03  0.97435824546E+03  0.61300000000E+03 0. -1.
         13    1    4    4    0    0  0.29443429561E+03 -0.69035859505E+02 -0.48224676013E+03  0.56922706642E+03  0.10566000000E+00 0.  1.
    -200003    1    4    4    0    0  0.21292491429E+02 -0.21581797841E+02 -0.86558989751E+02  0.96496647072E+02  0.30000000000E+02 0. -1.
    -200000    1    3    3    0    0  0.26743134518E+03  0.45099580505E+03 -0.17096789256E+04  0.17911224886E+04  0.10100000000E+03 0. -1.
<mgrwt>
<rscale>  0 0.22384914E+04</rscale>
<asrwt>0</asrwt>
<pdfrwt beam="1">  1        2 0.43083217E+00 0.22384914E+04</pdfrwt>
<pdfrwt beam="2">  1       -2 0.59339882E-01 0.22384914E+04</pdfrwt>
<totfact> 0.56086248E+00</totfact>
</mgrwt>
</event>
<event>
 8    2  0.4480234E-052  0.1301128E+04  0.7818608E-02  0.9028671E-01
          2   -1    0    0  501    0  0.00000000000E+00  0.00000000000E+00  0.11119384596E+04  0.11119384596E+04  0.25500000000E-02 0.  1.
         -2   -1    0    0    0  501 -0.00000000000E+00 -0.00000000000E+00 -0.38062681882E+03  0.38062681883E+03  0.25500000000E-02 0. -1.
    -200001    2    1    2    0    0  0.15316665693E+03 -0.13664843492E+03  0.44798263840E+03  0.78674862864E+03  0.61331243326E+03 0.  0.
   -5000001    2    3    3    0    0 -0.74382774465E+02  0.48128854064E+00 -0.32759064901E+02  0.22827133270E+03  0.21331107853E+03 0.  0.
     200001    1    1    2    0    0 -0.15316665693E+03  0.13664843492E+03  0.28332900241E+03  0.70581664982E+03  0.61300000000E+03 0. -1.
         13    1    4    4    0    0 -0.70438563211E+02  0.76703537467E+02  0.46655776997E+02  0.11411308662E+03  0.10566000000E+00 0.  1.
    -200003    1    4    4    0    0 -0.39442112537E+01 -0.76222248927E+02 -0.79414841898E+02  0.11415824608E+03  0.30000000000E+02 0.  1.
    -200000    1    3    3    0    0  0.22754943140E+03 -0.13712972346E+03  0.48074170330E+03  0.55847729594E+03  0.10100000000E+03 0.  1.
<mgrwt>
<rscale>  0 0.13011281E+04</rscale>
<asrwt>0</asrwt>
<pdfrwt beam="1">  1        2 0.15884835E+00 0.13011281E+04</pdfrwt>
<pdfrwt beam="2">  1       -2 0.54375259E-01 0.13011281E+04</pdfrwt>
<totfact> 0.75055793E+01</totfact>
</mgrwt>
</event>
<event>
 8    2  0.4480234E-052  0.1456439E+04  0.7818608E-02  0.8913948E-01
          2   -1    0    0  501    0  0.00000000000E+00  0.00000000000E+00  0.81988328596E+03  0.81988328597E+03  0.25500000000E-02 0.  1.
         -2   -1    0    0    0  501 -0.00000000000E+00 -0.00000000000E+00 -0.64680419736E+03  0.64680419736E+03  0.25500000000E-02 0. -1.
    -200001    2    1    2    0    0  0.18833382097E+03  0.16054827994E+03  0.39553924887E+03  0.76918988390E+03  0.61151974766E+03 0.  0.
   -5000001    2    3    3    0    0  0.10461266164E+03  0.29076978555E+03 -0.14684098381E+02  0.31924425643E+03  0.78806061667E+02 0.  0.
     200001    1    1    2    0    0 -0.18833382097E+03 -0.16054827994E+03 -0.22246016026E+03  0.69749759943E+03  0.61300000000E+03 0. -1.
         13    1    4    4    0    0  0.61340106447E+02  0.16589114447E+03 -0.40096706833E+02  0.18135665837E+03  0.10566000000E+00 0.  1.
    -200003    1    4    4    0    0  0.43272555191E+02  0.12487864108E+03  0.25412608451E+02  0.13788759806E+03  0.30000000000E+02 0.  1.
    -200000    1    3    3    0    0  0.83721159334E+02 -0.13022150562E+03  0.41022334725E+03  0.44994562746E+03  0.10100000000E+03 0.  1.
<mgrwt>
<rscale>  0 0.14564394E+04</rscale>
<asrwt>0</asrwt>
<pdfrwt beam="1">  1        2 0.11712618E+00 0.14564394E+04</pdfrwt>
<pdfrwt beam="2">  1       -2 0.92400599E-01 0.14564394E+04</pdfrwt>
<totfact> 0.35555997E+01</totfact>
</mgrwt>
</event>
<event>
 8    2  0.4480234E-052  0.1308722E+04  0.7818608E-02  0.9022677E-01
          2   -1    0    0  501    0  0.00000000000E+00  0.00000000000E+00  0.16887899653E+04  0.16887899653E+04  0.25500000000E-02 0.  1.
         -2   -1    0    0    0  501 -0.00000000000E+00 -0.00000000000E+00 -0.25354754151E+03  0.25354754152E+03  0.25500000000E-02 0. -1.
    -200001    2    1    2    0    0  0.10099205248E+03  0.19260615079E+03  0.82612516058E+03  0.10512205873E+04  0.61260543432E+03 0.  0.
   -5000001    2    3    3    0    0  0.23801342617E+03 -0.13211979501E+03  0.41420982718E+03  0.49977064519E+03  0.63991293058E+02 0.  0.
     200001    1    1    2    0    0 -0.10099205248E+03 -0.19260615079E+03  0.60911726320E+03  0.89111691955E+03  0.61300000000E+03 0.  1.
         13    1    4    4    0    0  0.11966206028E+03 -0.64183206789E+02  0.16143473429E+03  0.21094946623E+03  0.10566000000E+00 0.  1.
    -200003    1    4    4    0    0  0.11835136589E+03 -0.67936588223E+02  0.25277509289E+03  0.28882117896E+03  0.30000000000E+02 0.  1.
    -200000    1    3    3    0    0 -0.13702137369E+03  0.32472594580E+03  0.41191533340E+03  0.55144994207E+03  0.10100000000E+03 0. -1.
<mgrwt>
<rscale>  0 0.13087223E+04</rscale>
<asrwt>0</asrwt>
<pdfrwt beam="1">  1        2 0.24125572E+00 0.13087223E+04</pdfrwt>
<pdfrwt beam="2">  1       -2 0.36221075E-01 0.13087223E+04</pdfrwt>
<totfact> 0.81683692E+01</totfact>
</mgrwt>
</event>
<event>
 8    2  0.4480234E-052  0.1461490E+04  0.7818608E-02  0.8910473E-01
          2   -1    0    0  501    0  0.00000000000E+00  0.00000000000E+00  0.27709826189E+04  0.27709826189E+04  0.25500000000E-02 0.  1.
         -2   -1    0    0    0  501 -0.00000000000E+00 -0.00000000000E+00 -0.19270715981E+03  0.19270715983E+03  0.25500000000E-02 0. -1.
    -200001    2    1    2    0    0 -0.73905166374E+02 -0.38422642533E+02  0.20775241984E+04  0.21677883413E+04  0.61340135677E+03 0.  0.
   -5000001    2    3    3    0    0 -0.25103667500E+03 -0.29668130468E+02  0.18065588015E+04  0.18285606019E+04  0.12680521045E+03 0.  0.
     200001    1    1    2    0    0  0.73905166374E+02  0.38422642533E+02  0.50075126069E+03  0.79590143747E+03  0.61300000000E+03 0. -1.
         13    1    4    4    0    0 -0.12452244886E+03 -0.32360974384E+02  0.52992138409E+03  0.54531619948E+03  0.10566000000E+00 0.  1.
    -200003    1    4    4    0    0 -0.12651422614E+03  0.26928439161E+01  0.12766374174E+04  0.12832444024E+04  0.30000000000E+02 0.  1.
    -200000    1    3    3    0    0  0.17713150863E+03 -0.87545120651E+01  0.27096539689E+03  0.33922773935E+03  0.10100000000E+03 0. -1.
<mgrwt>
<rscale>  0 0.14614899E+04</rscale>
<asrwt>0</asrwt>
<pdfrwt beam="1">  1        2 0.39585463E+00 0.14614899E+04</pdfrwt>
<pdfrwt beam="2">  1       -2 0.27529596E-01 0.14614899E+04</pdfrwt>
<totfact> 0.36956008E+01</totfact>
</mgrwt>
</event>
<event>
 8    2  0.4480234E-052  0.1563546E+04  0.7818608E-02  0.8843261E-01
          2   -1    0    0  501    0  0.00000000000E+00  0.00000000000E+00  0.15118413049E+04  0.15118413049E+04  0.25500000000E-02 0.  1.
         -2   -1    0    0    0  501 -0.00000000000E+00 -0.00000000000E+00 -0.40425491243E+03  0.40425491244E+03  0.25500000000E-02 0. -1.
    -200001    2    1    2    0    0  0.22729850406E+03  0.81875990988E+02  0.38029721060E+02  0.65987618837E+03  0.61288011588E+03 0.  0.
   -5000001    2    3    3    0    0  0.29600472364E+02  0.16716390222E+02 -0.19419364062E+03  0.33206683063E+03  0.26721074881E+03 0.  0.
     200001    1    1    2    0    0 -0.22729850406E+03 -0.81875990988E+02  0.10695566714E+04  0.12562200290E+04  0.61300000000E+03 0.  1.
         13    1    4    4    0    0 -0.11216584397E+03 -0.72739417086E+01 -0.40498786476E+02  0.11947489131E+03  0.10566000000E+00 0.  1.
    -200003    1    4    4    0    0  0.14176631634E+03  0.23990331930E+02 -0.15369485415E+03  0.21259193932E+03  0.30000000000E+02 0.  1.
    -200000    1    3    3    0    0  0.19769803170E+03  0.65159600766E+02  0.23222336168E+03  0.32780935774E+03  0.10100000000E+03 0.  1.
<mgrwt>
<rscale>  0 0.15635463E+04</rscale>
<asrwt>0</asrwt>
<pdfrwt beam="1">  1        2 0.21597733E+00 0.15635463E+04</pdfrwt>
<pdfrwt beam="2">  1       -2 0.57750702E-01 0.15635463E+04</pdfrwt>
<totfact> 0.38960295E+01</totfact>
</mgrwt>
</event>
<event>
 8    2  0.4480234E-052  0.1758572E+04  0.7818608E-02  0.8728646E-01
          2   -1    0    0  501    0  0.00000000000E+00  0.00000000000E+00  0.14202164072E+04  0.14202164073E+04  0.25500000000E-02 0.  1.
         -2   -1    0    0    0  501 -0.00000000000E+00 -0.00000000000E+00 -0.54438462867E+03  0.54438462868E+03  0.25500000000E-02 0. -1.
    -200001    2    1    2    0    0  0.16102204871E+03 -0.41689296427E+03 -0.60105001203E+02  0.75982948100E+03  0.61155570899E+03 0.  0.
   -5000001    2    3    3    0    0 -0.17670192165E+03 -0.32846611594E+03  0.26916244469E+02  0.38613109345E+03  0.96224626153E+02 0.  0.
     200001    1    1    2    0    0 -0.16102204871E+03  0.41689296427E+03  0.93593677978E+03  0.12047715549E+04  0.61300000000E+03 0. -1.
         13    1    4    4    0    0  0.97524192540E+01 -0.17594711900E+02 -0.57645445627E+01  0.20926650620E+02  0.10566000000E+00 0.  1.
    -200003    1    4    4    0    0 -0.18645434090E+03 -0.31087140404E+03  0.32680789032E+02  0.36520444283E+03  0.30000000000E+02 0.  1.
    -200000    1    3    3    0    0  0.33772397035E+03 -0.88426848324E+02 -0.87021245672E+02  0.37369838755E+03  0.10100000000E+03 0. -1.
<mgrwt>
<rscale>  0 0.17585721E+04</rscale>
<asrwt>0</asrwt>
<pdfrwt beam="1">  1        2 0.20288806E+00 0.17585721E+04</pdfrwt>
<pdfrwt beam="2">  1       -2 0.77769231E-01 0.17585721E+04</pdfrwt>
<totfact> 0.22573394E+01</totfact>
</mgrwt>
</event>
<event>
 8    2  0.4480234E-052  0.1443287E+04  0.7818608E-02  0.8923068E-01
          2   -1    0    0  501    0  0.00000000000E+00  0.00000000000E+00  0.30743825874E+04  0.30743825874E+04  0.25500000000E-02 0.  1.
         -2   -1    0    0    0  501 -0.00000000000E+00 -0.00000000000E+00 -0.16938982444E+03  0.16938982446E+03  0.25500000000E-02 0. -1.
    -200001    2    1    2    0    0 -0.20235065204E+03 -0.24571605639E+03  0.19215655280E+04  0.20420152428E+04  0.61326177686E+03 0.  0.
   -5000001    2    3    3    0    0  0.81055067977E+02 -0.15734914307E+03  0.15145053373E+04  0.15281801406E+04  0.10138761459E+03 0.  0.
     200001    1    1    2    0    0  0.20235065204E+03  0.24571605639E+03  0.98342723495E+03  0.12017571690E+04  0.61300000000E+03 0.  1.
         13    1    4    4    0    0  0.70998059583E+02 -0.14608290575E+03  0.13808374721E+04  0.13903571754E+04  0.10566000000E+00 0.  1.
    -200003    1    4    4    0    0  0.10057008395E+02 -0.11266237320E+02  0.13366786525E+03  0.13782296515E+03  0.30000000000E+02 0. -1.
    -200000    1    3    3    0    0 -0.28340572001E+03 -0.88366913321E+02  0.40706019063E+03  0.51383510225E+03  0.10100000000E+03 0. -1.
<mgrwt>
<rscale>  0 0.14432867E+04</rscale>
<asrwt>0</asrwt>
<pdfrwt beam="1">  1        2 0.43919750E+00 0.14432867E+04</pdfrwt>
<pdfrwt beam="2">  1       -2 0.24198547E-01 0.14432867E+04</pdfrwt>
<totfact> 0.31865523E+01</totfact>
</mgrwt>
</event>
<event>
 8    2  0.4480234E-052  0.2075581E+04  0.7818608E-02  0.8572077E-01
         -2   -1    0    0    0  501 -0.00000000000E+00  0.00000000000E+00  0.18078153254E+04  0.18078153254E+04  0.25500000000E-02 0. -1.
          2   -1    0    0  501    0  0.00000000000E+00 -0.00000000000E+00 -0.59575169318E+03  0.59575169319E+03  0.25500000000E-02 0.  1.
    -200001    2    1    2    0    0 -0.60276754503E+01 -0.32993393282E+03 -0.28633934346E+03  0.75133422312E+03  0.61124476466E+03 0.  0.
   -5000001    2    3    3    0    0  0.31841485338E+02 -0.48786880815E+03 -0.20141437681E+03  0.54207183246E+03  0.11934934522E+03 0.  0.
     200001    1    1    2    0    0  0.60276754503E+01  0.32993393282E+03  0.14984029757E+04  0.16522327955E+04  0.61300000000E+03 0. -1.
         13    1    4    4    0    0 -0.35083512348E+02 -0.72772289815E+02 -0.44899932853E+02  0.92426587830E+02  0.10566000000E+00 0.  1.
    -200003    1    4    4    0    0  0.66924997686E+02 -0.41509651834E+03 -0.15651444395E+03  0.44964524463E+03  0.30000000000E+02 0.  1.
    -200000    1    3    3    0    0 -0.37869160788E+02  0.15793487533E+03 -0.84924966653E+02  0.20926239066E+03  0.10100000000E+03 0.  1.
<mgrwt>
<rscale>  0 0.20755809E+04</rscale>
<asrwt>0</asrwt>
<pdfrwt beam="1">  1        2 0.85107385E-01 0.20755809E+04</pdfrwt>
<pdfrwt beam="2">  1       -2 0.25825933E+00 0.20755809E+04</pdfrwt>
<totfact> 0.28995145E+00</totfact>
</mgrwt>
</event>
<event>
 8    2  0.4480234E-052  0.1550858E+04  0.7818608E-02  0.8851320E-01
         -2   -1    0    0    0  501 -0.00000000000E+00  0.00000000000E+00  0.11538068909E+04  0.11538068909E+04  0.25500000000E-02 0. -1.
          2   -1    0    0  501    0  0.00000000000E+00 -0.00000000000E+00 -0.52113553094E+03  0.52113553095E+03  0.25500000000E-02 0.  1.
    -200001    2    1    2    0    0 -0.96913235691E+02  0.37910888949E+02 -0.18298925905E+03  0.64932033932E+03  0.61424947976E+03 0.  0.
   -5000001    2    3    3    0    0 -0.14934481592E+03 -0.23853771898E+03 -0.22686951541E+01  0.29998693748E+03  0.10384073507E+03 0.  0.
     200001    1    1    2    0    0  0.96913235691E+02 -0.37910888949E+02  0.81566061897E+03  0.10256220825E+04  0.61300000000E+03 0. -1.
         13    1    4    4    0    0 -0.14636443914E+03 -0.19447354920E+03  0.15036940127E+02  0.24386190993E+03  0.10566000000E+00 0.  1.
    -200003    1    4    4    0    0 -0.29803767758E+01 -0.44064169785E+02 -0.17305635281E+02  0.56125027546E+02  0.30000000000E+02 0.  1.
    -200000    1    3    3    0    0  0.52431580229E+02  0.27644860793E+03 -0.18072056389E+03  0.34933340185E+03  0.10100000000E+03 0.  1.
<mgrwt>
<rscale>  0 0.15508575E+04</rscale>
<asrwt>0</asrwt>
<pdfrwt beam="1">  1        2 0.74447933E-01 0.15508575E+04</pdfrwt>
<pdfrwt beam="2">  1       -2 0.16482956E+00 0.15508575E+04</pdfrwt>
<totfact> 0.14322930E+01</totfact>
</mgrwt>
</event>
<event>
 8    2  0.4480234E-052  0.1387696E+04  0.7818608E-02  0.8962773E-01
          2   -1    0    0  501    0  0.00000000000E+00  0.00000000000E+00  0.12683907231E+04  0.12683907231E+04  0.25500000000E-02 0.  1.
         -2   -1    0    0    0  501 -0.00000000000E+00 -0.00000000000E+00 -0.37955589284E+03  0.37955589284E+03  0.25500000000E-02 0. -1.
    -200001    2    1    2    0    0 -0.36003308065E+02  0.32138778731E+03  0.41251489158E+03  0.80697335119E+03  0.61355611457E+03 0.  0.
   -5000001    2    3    3    0    0  0.20432820154E+03  0.17946168544E+03  0.41977842955E+03  0.51006257017E+03  0.99966919976E+02 0.  0.
     200001    1    1    2    0    0  0.36003308065E+02 -0.32138778731E+03  0.47631993865E+03  0.84097326472E+03  0.61300000000E+03 0.  1.
         13    1    4    4    0    0  0.13305718552E+03  0.15095607958E+03  0.24666439371E+03  0.31833203871E+03  0.10566000000E+00 0.  1.
    -200003    1    4    4    0    0  0.71271016014E+02  0.28505605858E+02  0.17311403584E+03  0.19173053146E+03  0.30000000000E+02 0.  1.
    -200000    1    3    3    0    0 -0.24033150960E+03  0.14192610187E+03 -0.72635379701E+01  0.29691078102E+03  0.10100000000E+03 0.  1.
<mgrwt>
<rscale>  0 0.13876962E+04</rscale>
<asrwt>0</asrwt>
<pdfrwt beam="1">  1        2 0.18119868E+00 0.13876962E+04</pdfrwt>
<pdfrwt beam="2">  1       -2 0.54222269E-01 0.13876962E+04</pdfrwt>
<totfact> 0.61047497E+01</totfact>
</mgrwt>
</event>
<event>
 8    2  0.4480234E-052  0.1425661E+04  0.7818608E-02  0.8935450E-01
          2   -1    0    0  501    0  0.00000000000E+00  0.00000000000E+00  0.14995181053E+04  0.14995181053E+04  0.25500000000E-02 0.  1.
         -2   -1    0    0    0  501 -0.00000000000E+00 -0.00000000000E+00 -0.33886049269E+03  0.33886049270E+03  0.25500000000E-02 0. -1.
    -200001    2    1    2    0    0 -0.34576995533E+03 -0.37760712099E+02  0.71877815482E+03  0.10065077014E+04  0.61272586348E+03 0.  0.
   -5000001    2    3    3    0    0  0.48139299704E+02  0.18704844759E+03  0.15416470942E+03  0.27528064899E+03  0.12127722027E+03 0.  0.
     200001    1    1    2    0    0  0.34576995533E+03  0.37760712099E+02  0.44187945783E+03  0.83187089662E+03  0.61300000000E+03 0.  1.
         13    1    4    4    0    0  0.41756550446E+02  0.78908969966E+02  0.13409900594E+03  0.16109869523E+03  0.10566000000E+00 0.  1.
    -200003    1    4    4    0    0  0.63827492571E+01  0.10813947762E+03  0.20065703478E+02  0.11418195376E+03  0.30000000000E+02 0.  1.
    -200000    1    3    3    0    0 -0.39390925504E+03 -0.22480915968E+03  0.56461344540E+03  0.73122705243E+03  0.10100000000E+03 0.  1.
<mgrwt>
<rscale>  0 0.14256612E+04</rscale>
<asrwt>0</asrwt>
<pdfrwt beam="1">  1        2 0.21421687E+00 0.14256612E+04</pdfrwt>
<pdfrwt beam="2">  1       -2 0.48408643E-01 0.14256612E+04</pdfrwt>
<totfact> 0.57486613E+01</totfact>
</mgrwt>
</event>
<event>
 8    2  0.4480234E-052  0.1557558E+04  0.7818608E-02  0.8847055E-01
          2   -1    0    0  501    0  0.00000000000E+00  0.00000000000E+00  0.84074038281E+03  0.84074038281E+03  0.25500000000E-02 0.  1.
         -2   -1    0    0    0  501 -0.00000000000E+00 -0.00000000000E+00 -0.72138408608E+03  0.72138408609E+03  0.25500000000E-02 0. -1.
    -200001    2    1    2    0    0 -0.37237599337E+03 -0.23742398443E+03 -0.13019633317E+03  0.76646151016E+03  0.61276270494E+03 0.  0.
   -5000001    2    3    3    0    0  0.77210685520E+02 -0.10382517580E+03 -0.20663975908E+03  0.28064115152E+03  0.13899031910E+03 0.  0.
     200001    1    1    2    0    0  0.37237599337E+03  0.23742398443E+03  0.24955262989E+03  0.79566295874E+03  0.61300000000E+03 0. -1.
         13    1    4    4    0    0  0.10218647573E+01  0.46511844625E+01 -0.11862372509E+03  0.11871932043E+03  0.10566000000E+00 0.  1.
    -200003    1    4    4    0    0  0.76188820762E+02 -0.10847636026E+03 -0.88016033993E+02  0.16192183109E+03  0.30000000000E+02 0.  1.
    -200000    1    3    3    0    0 -0.44958667889E+03 -0.13359880864E+03  0.76443425909E+02  0.48582035864E+03  0.10100000000E+03 0.  1.
<mgrwt>
<rscale>  0 0.15575580E+04</rscale>
<asrwt>0</asrwt>
<pdfrwt beam="1">  1        2 0.12010577E+00 0.15575580E+04</pdfrwt>
<pdfrwt beam="2">  1       -2 0.10305487E+00 0.15575580E+04</pdfrwt>
<totfact> 0.26408180E+01</totfact>
</mgrwt>
</event>
<event>
 8    2  0.4480234E-052  0.1368280E+04  0.7818608E-02  0.8977105E-01
          2   -1    0    0  501    0  0.00000000000E+00  0.00000000000E+00  0.67508441537E+03  0.67508441538E+03  0.25500000000E-02 0.  1.
         -2   -1    0    0    0  501 -0.00000000000E+00 -0.00000000000E+00 -0.69331672957E+03  0.69331672957E+03  0.25500000000E-02 0. -1.
    -200001    2    1    2    0    0 -0.17671923358E+03 -0.53517395004E+02  0.23241154715E+03  0.68088013123E+03  0.61277143109E+03 0.  0.
   -5000001    2    3    3    0    0 -0.18816243426E+03  0.13504115600E+03  0.35560984328E+03  0.43376862974E+03  0.89753261926E+02 0.  0.
     200001    1    1    2    0    0  0.17671923358E+03  0.53517395004E+02 -0.25064386134E+03  0.68752101372E+03  0.61300000000E+03 0. -1.
         13    1    4    4    0    0 -0.99676236755E+00  0.28735598272E+02  0.63262111253E+02  0.69489812401E+02  0.10566000000E+00 0.  1.
    -200003    1    4    4    0    0 -0.18716567190E+03  0.10630555773E+03  0.29234773202E+03  0.36427881734E+03  0.30000000000E+02 0.  1.
    -200000    1    3    3    0    0  0.11443200687E+02 -0.18855855100E+03 -0.12319829613E+03  0.24711150149E+03  0.10100000000E+03 0. -1.
<mgrwt>
<rscale>  0 0.13682797E+04</rscale>
<asrwt>0</asrwt>
<pdfrwt beam="1">  1        2 0.96440631E-01 0.13682797E+04</pdfrwt>
<pdfrwt beam="2">  1       -2 0.99045247E-01 0.13682797E+04</pdfrwt>
<totfact> 0.38862866E+01</totfact>
</mgrwt>
</event>
<event>
 8    2  0.4480234E-052  0.1731673E+04  0.7818608E-02  0.8743503E-01
         -2   -1    0    0    0  501 -0.00000000000E+00  0.00000000000E+00  0.78086207407E+03  0.78086207408E+03  0.25500000000E-02 0. -1.
          2   -1    0    0  501    0  0.00000000000E+00 -0.00000000000E+00 -0.96005802577E+03  0.96005802577E+03  0.25500000000E-02 0.  1.
    -200001    2    1    2    0    0  0.29125124480E+03  0.39763538985E+03 -0.45350005940E+03  0.90788172477E+03  0.61289944643E+03 0.  0.
   -5000001    2    3    3    0    0  0.55563777527E+02  0.25795092088E+02 -0.40815846958E+03  0.45393167351E+03  0.18896536132E+03 0.  0.
     200001    1    1    2    0    0 -0.29125124480E+03 -0.39763538985E+03  0.27430410771E+03  0.83303837508E+03  0.61300000000E+03 0. -1.
         13    1    4    4    0    0  0.11673565682E+03  0.23706153651E+02 -0.18029717370E+03  0.21609321438E+03  0.10566000000E+00 0.  1.
    -200003    1    4    4    0    0 -0.61171879292E+02  0.20889384370E+01 -0.22786129589E+03  0.23783845913E+03  0.30000000000E+02 0.  1.
    -200000    1    3    3    0    0  0.23568746727E+03  0.37184029776E+03 -0.45341589818E+02  0.45395005125E+03  0.10100000000E+03 0. -1.
<mgrwt>
<rscale>  0 0.17316731E+04</rscale>
<asrwt>0</asrwt>
<pdfrwt beam="1">  1        2 0.13715115E+00 0.17316731E+04</pdfrwt>
<pdfrwt beam="2">  1       -2 0.11155172E+00 0.17316731E+04</pdfrwt>
<totfact> 0.17985917E+01</totfact>
</mgrwt>
</event>
<event>
 8    2  0.4480234E-052  0.1406866E+04  0.7818608E-02  0.8948863E-01
         -2   -1    0    0    0  501 -0.00000000000E+00  0.00000000000E+00  0.34743713654E+03  0.34743713655E+03  0.25500000000E-02 0. -1.
          2   -1    0    0  501    0  0.00000000000E+00 -0.00000000000E+00 -0.14241947258E+04  0.14241947258E+04  0.25500000000E-02 0.  1.
    -200001    2    1    2    0    0 -0.12075190250E+03 -0.18334160122E+03 -0.87338484093E+03  0.10894847818E+04  0.61317276914E+03 0.  0.
   -5000001    2    3    3    0    0 -0.71293275398E+02 -0.59357960808E+01 -0.85026681953E+03  0.87816886099E+03  0.20762687500E+03 0.  0.
     200001    1    1    2    0    0  0.12075190250E+03  0.18334160122E+03 -0.20337274834E+03  0.68214708052E+03  0.61300000000E+03 0. -1.
         13    1    4    4    0    0 -0.10023671467E+03  0.43967532719E+02 -0.75459383840E+03  0.76249092782E+03  0.10566000000E+00 0.  1.
    -200003    1    4    4    0    0  0.28943439276E+02 -0.49903328800E+02 -0.95672981135E+02  0.11567793317E+03  0.30000000000E+02 0.  1.
    -200000    1    3    3    0    0 -0.49458627107E+02 -0.17740580514E+03 -0.23118021393E+02  0.21131592085E+03  0.10100000000E+03 0. -1.
<mgrwt>
<rscale>  0 0.14068662E+04</rscale>
<asrwt>0</asrwt>
<pdfrwt beam="1">  1        2 0.20345639E+00 0.14068662E+04</pdfrwt>
<pdfrwt beam="2">  1       -2 0.49633877E-01 0.14068662E+04</pdfrwt>
<totfact> 0.60042738E+01</totfact>
</mgrwt>
</event>
<event>
 8    2  0.4480234E-052  0.1401936E+04  0.7818608E-02  0.8952418E-01
          2   -1    0    0  501    0  0.00000000000E+00  0.00000000000E+00  0.14594926979E+04  0.14594926979E+04  0.25500000000E-02 0.  1.
         -2   -1    0    0    0  501 -0.00000000000E+00 -0.00000000000E+00 -0.33666220816E+03  0.33666220817E+03  0.25500000000E-02 0. -1.
    -200001    2    1    2    0    0 -0.12743700004E+03  0.21915413201E+03  0.27162108469E+03  0.71699079724E+03  0.61321208983E+03 0.  0.
   -5000001    2    3    3    0    0  0.10065903371E+03 -0.30486497798E+02  0.33007609936E+03  0.35926711420E+03  0.95189076915E+02 0.  0.
     200001    1    1    2    0    0  0.12743700004E+03 -0.21915413201E+03  0.85120940508E+03  0.10791641089E+04  0.61300000000E+03 0.  1.
         13    1    4    4    0    0  0.23843474047E+02  0.21586596716E+01  0.20238252036E+03  0.20379368679E+03  0.10566000000E+00 0.  1.
    -200003    1    4    4    0    0  0.76815559661E+02 -0.32645157469E+02  0.12769357900E+03  0.15547342741E+03  0.30000000000E+02 0.  1.
    -200000    1    3    3    0    0 -0.22809603375E+03  0.24964062981E+03 -0.58455014669E+02  0.35772368303E+03  0.10100000000E+03 0. -1.
<mgrwt>
<rscale>  0 0.14019359E+04</rscale>
<asrwt>0</asrwt>
<pdfrwt beam="1">  1        2 0.20849896E+00 0.14019359E+04</pdfrwt>
<pdfrwt beam="2">  1       -2 0.48094601E-01 0.14019359E+04</pdfrwt>
<totfact> 0.61292338E+01</totfact>
</mgrwt>
</event>
<event>
 8    2  0.4480234E-052  0.1615683E+04  0.7818608E-02  0.8810971E-01
         -2   -1    0    0    0  501 -0.00000000000E+00  0.00000000000E+00  0.35428460479E+03  0.35428460480E+03  0.25500000000E-02 0. -1.
          2   -1    0    0  501    0  0.00000000000E+00 -0.00000000000E+00 -0.18420433929E+04  0.18420433929E+04  0.25500000000E-02 0.  1.
    -200001    2    1    2    0    0  0.51684643926E+03  0.61480714054E+02 -0.63408907212E+03  0.10235402488E+04  0.61209114483E+03 0.  0.
   -5000001    2    3    3    0    0  0.52581209239E+03  0.24131876289E+03 -0.54252258113E+03  0.79769178409E+03  0.85254498649E+02 0.  0.
     200001    1    1    2    0    0 -0.51684643926E+03 -0.61480714054E+02 -0.85366971600E+03  0.11727877489E+04  0.61300000000E+03 0. -1.
         13    1    4    4    0    0  0.23990400848E+03  0.97123472778E+02 -0.29067762905E+03  0.38920482711E+03  0.10566000000E+00 0.  1.
    -200003    1    4    4    0    0  0.28590808391E+03  0.14419529011E+03 -0.25184495207E+03  0.40848695697E+03  0.30000000000E+02 0. -1.
    -200000    1    3    3    0    0 -0.89656531292E+01 -0.17983804884E+03 -0.91566490989E+02  0.22584846472E+03  0.10100000000E+03 0.  1.
<mgrwt>
<rscale>  0 0.16156827E+04</rscale>
<asrwt>0</asrwt>
<pdfrwt beam="1">  1        2 0.26314905E+00 0.16156827E+04</pdfrwt>
<pdfrwt beam="2">  1       -2 0.50612087E-01 0.16156827E+04</pdfrwt>
<totfact> 0.34285907E+01</totfact>
</mgrwt>
</event>
<event>
 8    2  0.4480234E-052  0.1374023E+04  0.7818608E-02  0.8972839E-01
          2   -1    0    0  501    0  0.00000000000E+00  0.00000000000E+00  0.13891851458E+04  0.13891851459E+04  0.25500000000E-02 0.  1.
         -2   -1    0    0    0  501 -0.00000000000E+00 -0.00000000000E+00 -0.33975678131E+03  0.33975678132E+03  0.25500000000E-02 0. -1.
    -200001    2    1    2    0    0  0.54979590242E+02  0.17016992795E+03  0.84333445893E+03  0.10579544030E+04  0.61324868479E+03 0.  0.
   -5000001    2    3    3    0    0  0.77910080008E+02  0.28210839341E+03  0.13512135816E+03  0.33350783936E+03  0.85525266910E+02 0.  0.
     200001    1    1    2    0    0 -0.54979590242E+02 -0.17016992795E+03  0.20609390561E+03  0.67098752421E+03  0.61300000000E+03 0. -1.
         13    1    4    4    0    0  0.41351113358E+02  0.88713537601E+02  0.10057902817E+02  0.98392981979E+02  0.10566000000E+00 0.  1.
    -200003    1    4    4    0    0  0.36558966650E+02  0.19339485581E+03  0.12506345534E+03  0.23511485738E+03  0.30000000000E+02 0.  1.
    -200000    1    3    3    0    0 -0.22930489766E+02 -0.11193846546E+03  0.70821310077E+03  0.72444656360E+03  0.10100000000E+03 0.  1.
<mgrwt>
<rscale>  0 0.13740234E+04</rscale>
<asrwt>0</asrwt>
<pdfrwt beam="1">  1        2 0.19845502E+00 0.13740234E+04</pdfrwt>
<pdfrwt beam="2">  1       -2 0.48536683E-01 0.13740234E+04</pdfrwt>
<totfact> 0.65786684E+01</totfact>
</mgrwt>
</event>
<event>
 8    2  0.4480234E-052  0.1448857E+04  0.7818608E-02  0.8919193E-01
         -2   -1    0    0    0  501 -0.00000000000E+00  0.00000000000E+00  0.69274276527E+03  0.69274276527E+03  0.25500000000E-02 0. -1.
          2   -1    0    0  501    0  0.00000000000E+00 -0.00000000000E+00 -0.75756372468E+03  0.75756372468E+03  0.25500000000E-02 0.  1.
    -200001    2    1    2    0    0  0.27275829099E+03  0.14460003025E+03  0.20341785375E+03  0.71340261906E+03  0.61012967442E+03 0.  0.
   -5000001    2    3    3    0    0  0.28068710080E+03  0.27339553639E+03  0.25075636672E+03  0.54283567257E+03  0.27975246931E+03 0.  0.
     200001    1    1    2    0    0 -0.27275829099E+03 -0.14460003025E+03 -0.26823881316E+03  0.73690387089E+03  0.61300000000E+03 0.  1.
         13    1    4    4    0    0  0.18314584175E+02  0.16185639668E+03  0.14086362205E+01  0.16289540374E+03  0.10566000000E+00 0.  1.
    -200003    1    4    4    0    0  0.26237251662E+03  0.11153913971E+03  0.24934773050E+03  0.37994026882E+03  0.30000000000E+02 0.  1.
    -200000    1    3    3    0    0 -0.79288098134E+01 -0.12879550614E+03 -0.47338512975E+02  0.17056694650E+03  0.10100000000E+03 0.  1.
<mgrwt>
<rscale>  0 0.14488572E+04</rscale>
<asrwt>0</asrwt>
<pdfrwt beam="1">  1        2 0.10822339E+00 0.14488572E+04</pdfrwt>
<pdfrwt beam="2">  1       -2 0.98963252E-01 0.14488572E+04</pdfrwt>
<totfact> 0.33537878E+01</totfact>
</mgrwt>
</event>
<event>
 8    2  0.4480234E-052  0.1288187E+04  0.7818608E-02  0.9038985E-01
          2   -1    0    0  501    0  0.00000000000E+00  0.00000000000E+00  0.38202750248E+03  0.38202750249E+03  0.25500000000E-02 0.  1.
         -2   -1    0    0    0  501 -0.00000000000E+00 -0.00000000000E+00 -0.10859340190E+04  0.10859340190E+04  0.25500000000E-02 0. -1.
    -200001    2    1    2    0    0 -0.15668331911E+03  0.57804356821E+02 -0.24356418925E+03  0.68337560238E+03  0.61626917292E+03 0.  0.
   -5000001    2    3    3    0    0 -0.14550329880E+03 -0.22101438901E+03  0.23660108933E+02  0.28403275291E+03  0.10048001723E+03 0.  0.
     200001    1    1    2    0    0  0.15668331911E+03 -0.57804356821E+02 -0.46034232722E+03  0.78458591906E+03  0.61300000000E+03 0.  1.
         13    1    4    4    0    0 -0.66081882001E+02 -0.46614689936E+02 -0.23888431377E+02  0.84323263483E+02  0.10566000000E+00 0.  1.
    -200003    1    4    4    0    0 -0.79421416800E+02 -0.17439969907E+03  0.47548540310E+02  0.19970948943E+03  0.30000000000E+02 0.  1.
    -200000    1    3    3    0    0 -0.11180020304E+02  0.27881874583E+03 -0.26722429818E+03  0.39934284947E+03  0.10100000000E+03 0. -1.
<mgrwt>
<rscale>  0 0.12881873E+04</rscale>
<asrwt>0</asrwt>
<pdfrwt beam="1">  1        2 0.54575358E-01 0.12881873E+04</pdfrwt>
<pdfrwt beam="2">  1       -2 0.15513343E+00 0.12881873E+04</pdfrwt>
<totfact> 0.24472896E+01</totfact>
</mgrwt>
</event>
<event>
 8    2  0.4480234E-052  0.1577540E+04  0.7818608E-02  0.8834466E-01
          2   -1    0    0  501    0  0.00000000000E+00  0.00000000000E+00  0.22878615333E+04  0.22878615333E+04  0.25500000000E-02 0.  1.
         -2   -1    0    0    0  501 -0.00000000000E+00 -0.00000000000E+00 -0.27193854339E+03  0.27193854341E+03  0.25500000000E-02 0. -1.
    -200001    2    1    2    0    0  0.15728307552E+03  0.44071146391E+03  0.12747586732E+04  0.14901935581E+04  0.61376103285E+03 0.  0.
   -5000001    2    3    3    0    0  0.30675071407E+03  0.25023394323E+03  0.85555688752E+03  0.99567015322E+03  0.32041916190E+03 0.  0.
     200001    1    1    2    0    0 -0.15728307552E+03 -0.44071146391E+03  0.74116431667E+03  0.10696065186E+04  0.61300000000E+03 0.  1.
         13    1    4    4    0    0  0.97190530380E+02 -0.20426919920E+02  0.33706682402E+02  0.10487807138E+03  0.10566000000E+00 0.  1.
    -200003    1    4    4    0    0  0.20956018368E+03  0.27066086315E+03  0.82185020512E+03  0.89079208185E+03  0.30000000000E+02 0.  1.
    -200000    1    3    3    0    0 -0.14946763855E+03  0.19047752067E+03  0.41920178567E+03  0.49452340487E+03  0.10100000000E+03 0.  1.
<mgrwt>
<rscale>  0 0.15775395E+04</rscale>
<asrwt>0</asrwt>
<pdfrwt beam="1">  1        2 0.32683734E+00 0.15775395E+04</pdfrwt>
<pdfrwt beam="2">  1       -2 0.38848366E-01 0.15775395E+04</pdfrwt>
<totfact> 0.34327356E+01</totfact>
</mgrwt>
</event>
<event>
 8    2  0.4480234E-052  0.2882877E+04  0.7818608E-02  0.8277990E-01
          2   -1    0    0  501    0  0.00000000000E+00  0.00000000000E+00  0.18375003106E+04  0.18375003106E+04  0.25500000000E-02 0.  1.
         -2   -1    0    0    0  501 -0.00000000000E+00 -0.00000000000E+00 -0.11307456442E+04  0.11307456442E+04  0.25500000000E-02 0. -1.
    -200001    2    1    2    0    0  0.53552760591E+03  0.10961924205E+04  0.83012918960E+03  0.15973273167E+04  0.61148380669E+03 0.  0.
   -5000001    2    3    3    0    0  0.39740674050E+02  0.66066901144E+03  0.24421085080E+03  0.70907812792E+03  0.71344151828E+02 0.  0.
     200001    1    1    2    0    0 -0.53552760591E+03 -0.10961924205E+04 -0.12337452322E+03  0.13709186381E+04  0.61300000000E+03 0. -1.
         13    1    4    4    0    0  0.11616851573E+02  0.40785318156E+03  0.12643015187E+03  0.42715777344E+03  0.10566000000E+00 0.  1.
    -200003    1    4    4    0    0  0.28123822478E+02  0.25281582988E+03  0.11778069893E+03  0.28192035448E+03  0.30000000000E+02 0.  1.
    -200000    1    3    3    0    0  0.49578693186E+03  0.43552340904E+03  0.58591833880E+03  0.88824918878E+03  0.10100000000E+03 0.  1.
<mgrwt>
<rscale>  0 0.28828774E+04</rscale>
<asrwt>0</asrwt>
<pdfrwt beam="1">  1        2 0.26250005E+00 0.28828774E+04</pdfrwt>
<pdfrwt beam="2">  1       -2 0.16153509E+00 0.28828774E+04</pdfrwt>
<totfact> 0.20801533E+00</totfact>
</mgrwt>
</event>
<event>
 8    2  0.4480234E-052  0.1313362E+04  0.7818608E-02  0.9019036E-01
          2   -1    0    0  501    0  0.00000000000E+00  0.00000000000E+00  0.17421825447E+04  0.17421825447E+04  0.25500000000E-02 0.  1.
         -2   -1    0    0    0  501 -0.00000000000E+00 -0.00000000000E+00 -0.24752272320E+03  0.24752272321E+03  0.25500000000E-02 0. -1.
    -200001    2    1    2    0    0 -0.15880079048E+03  0.15364466754E+03  0.62387499053E+03  0.90211177917E+03  0.61299370582E+03 0.  0.
   -5000001    2    3    3    0    0 -0.21122080150E+03 -0.43182124719E+01  0.13745772740E+02  0.26167537216E+03  0.15379265321E+03 0.  0.
     200001    1    1    2    0    0  0.15880079048E+03 -0.15364466754E+03  0.87078483099E+03  0.10875934888E+04  0.61300000000E+03 0.  1.
         13    1    4    4    0    0 -0.82307480725E+02 -0.59322615695E+02  0.51036995876E+02  0.11357147630E+03  0.10566000000E+00 0.  1.
    -200003    1    4    4    0    0 -0.12891332077E+03  0.55004403223E+02 -0.37291223135E+02  0.14810389586E+03  0.30000000000E+02 0.  1.
    -200000    1    3    3    0    0  0.52420011016E+02  0.15796288001E+03  0.61012921779E+03  0.64043640701E+03  0.10100000000E+03 0.  1.
<mgrwt>
<rscale>  0 0.13133617E+04</rscale>
<asrwt>0</asrwt>
<pdfrwt beam="1">  1        2 0.24888321E+00 0.13133617E+04</pdfrwt>
<pdfrwt beam="2">  1       -2 0.35360390E-01 0.13133617E+04</pdfrwt>
<totfact> 0.80226168E+01</totfact>
</mgrwt>
</event>
<event>
 8    2  0.4480234E-052  0.1326834E+04  0.7818608E-02  0.9008552E-01
         -2   -1    0    0    0  501 -0.00000000000E+00  0.00000000000E+00  0.48250221274E+03  0.48250221274E+03  0.25500000000E-02 0.  1.
          2   -1    0    0  501    0  0.00000000000E+00 -0.00000000000E+00 -0.91216630486E+03  0.91216630487E+03  0.25500000000E-02 0. -1.
    -200001    2    1    2    0    0 -0.61114416831E+02 -0.24215381337E+03 -0.16873442788E+03  0.68317239607E+03  0.61309034761E+03 0.  0.
   -5000001    2    3    3    0    0 -0.31960516220E+03 -0.12127899676E+03 -0.13934071202E+03  0.37904548628E+03  0.86044127521E+02 0.  0.
     200001    1    1    2    0    0  0.61114416831E+02  0.24215381337E+03 -0.26092966425E+03  0.71149612154E+03  0.61300000000E+03 0. -1.
         13    1    4    4    0    0 -0.27303708738E+03 -0.91643814818E+02 -0.99770061742E+02  0.30479815660E+03  0.10566000000E+00 0.  1.
    -200003    1    4    4    0    0 -0.46568074812E+02 -0.29635181944E+02 -0.39570650283E+02  0.74247329678E+02  0.30000000000E+02 0.  1.
    -200000    1    3    3    0    0  0.25849074537E+03 -0.12087481661E+03 -0.29393715855E+02  0.30412690980E+03  0.10100000000E+03 0. -1.
<mgrwt>
<rscale>  0 0.13268342E+04</rscale>
<asrwt>0</asrwt>
<pdfrwt beam="1">  1        2 0.13030947E+00 0.13268342E+04</pdfrwt>
<pdfrwt beam="2">  1       -2 0.68928887E-01 0.13268342E+04</pdfrwt>
<totfact> 0.60139184E+01</totfact>
</mgrwt>
</event>
<event>
 8    2  0.4480234E-052  0.1357914E+04  0.7818608E-02  0.8984859E-01
          2   -1    0    0  501    0  0.00000000000E+00  0.00000000000E+00  0.13253309523E+04  0.13253309523E+04  0.25500000000E-02 0.  1.
         -2   -1    0    0    0  501 -0.00000000000E+00 -0.00000000000E+00 -0.34782432706E+03  0.34782432707E+03  0.25500000000E-02 0. -1.
    -200001    2    1    2    0    0 -0.60182155249E+02  0.14112616923E+02  0.83925062502E+03  0.10417245394E+04  0.61402552599E+03 0.  0.
   -5000001    2    3    3    0    0  0.11878919434E+03 -0.13355683786E+03  0.51403842175E+03  0.62965538376E+03  0.31667349373E+03 0.  0.
     200001    1    1    2    0    0  0.60182155249E+02 -0.14112616923E+02  0.13825600018E+03  0.63143073995E+03  0.61300000000E+03 0. -1.
         13    1    4    4    0    0 -0.57229191679E+02 -0.12144337659E+03  0.71077365947E+02  0.15190680436E+03  0.10566000000E+00 0.  1.
    -200003    1    4    4    0    0  0.17601838602E+03 -0.12113461272E+02  0.44296105580E+03  0.47774857940E+03  0.30000000000E+02 0.  1.
    -200000    1    3    3    0    0 -0.17897134959E+03  0.14766945478E+03  0.32521220327E+03  0.41206915561E+03  0.10100000000E+03 0. -1.
<mgrwt>
<rscale>  0 0.13579136E+04</rscale>
<asrwt>0</asrwt>
<pdfrwt beam="1">  1        2 0.18933300E+00 0.13579136E+04</pdfrwt>
<pdfrwt beam="2">  1       -2 0.49689189E-01 0.13579136E+04</pdfrwt>
<totfact> 0.68052272E+01</totfact>
</mgrwt>
</event>
<event>
 8    2  0.4480234E-052  0.1511115E+04  0.7818608E-02  0.8877095E-01
         -2   -1    0    0    0  501 -0.00000000000E+00  0.00000000000E+00  0.12979844964E+04  0.12979844964E+04  0.25500000000E-02 0. -1.
          2   -1    0    0  501    0  0.00000000000E+00 -0.00000000000E+00 -0.43981040967E+03  0.43981040968E+03  0.25500000000E-02 0.  1.
    -200001    2    1    2    0    0  0.35431805640E+03  0.10308017886E+03  0.71756854673E+03  0.10086133606E+04  0.60516897109E+03 0.  0.
   -5000001    2    3    3    0    0  0.41436116320E+03  0.11316146512E+03  0.76533476530E+03  0.88137571428E+03  0.81148974036E+02 0.  0.
     200001    1    1    2    0    0 -0.35431805640E+03 -0.10308017886E+03  0.14060553998E+03  0.72918154546E+03  0.61300000000E+03 0. -1.
         13    1    4    4    0    0  0.22921899479E+03  0.47812034901E+02  0.35154498434E+03  0.42238752992E+03  0.10566000000E+00 0.  1.
    -200003    1    4    4    0    0  0.18514216841E+03  0.65349430218E+02  0.41378978096E+03  0.45898818436E+03  0.30000000000E+02 0. -1.
    -200000    1    3    3    0    0 -0.60043106795E+02 -0.10081286256E+02 -0.47766218571E+02  0.12723764633E+03  0.10100000000E+03 0. -1.
<mgrwt>
<rscale>  0 0.15111149E+04</rscale>
<asrwt>0</asrwt>
<pdfrwt beam="1">  1        2 0.62830059E-01 0.15111149E+04</pdfrwt>
<pdfrwt beam="2">  1       -2 0.18542636E+00 0.15111149E+04</pdfrwt>
<totfact> 0.12498550E+01</totfact>
</mgrwt>
</event>
<event>
 8    2  0.4480234E-052  0.1280775E+04  0.7818608E-02  0.9044951E-01
         -2   -1    0    0    0  501 -0.00000000000E+00  0.00000000000E+00  0.75380357094E+03  0.75380357095E+03  0.25500000000E-02 0. -1.
          2   -1    0    0  501    0  0.00000000000E+00 -0.00000000000E+00 -0.54403622765E+03  0.54403622766E+03  0.25500000000E-02 0.  1.
    -200001    2    1    2    0    0 -0.28842601022E+02 -0.95611345037E+02  0.26285265259E+03  0.67449360667E+03  0.61308782694E+03 0.  0.
   -5000001    2    3    3    0    0  0.14561250722E+03 -0.68468951577E+02 -0.10451894057E+03  0.25457196901E+03  0.16730713935E+03 0.  0.
     200001    1    1    2    0    0  0.28842601022E+02  0.95611345037E+02 -0.53085309292E+02  0.62334619193E+03  0.61300000000E+03 0.  1.
         13    1    4    4    0    0  0.63739056372E+01 -0.42674002501E+02  0.33454997525E+02  0.54598032803E+02  0.10566000000E+00 0.  1.
    -200003    1    4    4    0    0  0.13923860159E+03 -0.25794949076E+02 -0.13797393810E+03  0.19997393621E+03  0.30000000000E+02 0.  1.
    -200000    1    3    3    0    0 -0.17445510825E+03 -0.27142393460E+02  0.36737159316E+03  0.41992163766E+03  0.10100000000E+03 0. -1.
<mgrwt>
<rscale>  0 0.12807755E+04</rscale>
<asrwt>0</asrwt>
<pdfrwt beam="1">  1        2 0.77719462E-01 0.12807755E+04</pdfrwt>
<pdfrwt beam="2">  1       -2 0.10768622E+00 0.12807755E+04</pdfrwt>
<totfact> 0.41394084E+01</totfact>
</mgrwt>
</event>
<event>
 8    2  0.4480234E-052  0.2092048E+04  0.7818608E-02  0.8564754E-01
         -2   -1    0    0    0  501 -0.00000000000E+00  0.00000000000E+00  0.88770387960E+03  0.88770387960E+03  0.25500000000E-02 0. -1.
          2   -1    0    0  501    0  0.00000000000E+00 -0.00000000000E+00 -0.12325807529E+04  0.12325807529E+04  0.25500000000E-02 0.  1.
    -200001    2    1    2    0    0  0.43578718960E+03  0.17644707129E+03  0.54242652873E+03  0.94379818088E+03  0.61276783825E+03 0.  0.
   -5000001    2    3    3    0    0  0.33216740441E+03  0.14031285028E+03  0.65317113767E+03  0.75803459398E+03  0.13401876762E+03 0.  0.
     200001    1    1    2    0    0 -0.43578718960E+03 -0.17644707129E+03 -0.88730340202E+03  0.11764864516E+04  0.61300000000E+03 0. -1.
         13    1    4    4    0    0  0.11189990359E+03  0.47815114665E+02  0.11060533794E+03  0.16444277290E+03  0.10566000000E+00 0.  1.
    -200003    1    4    4    0    0  0.22026750082E+03  0.92497735611E+02  0.54256579974E+03  0.59359182108E+03  0.30000000000E+02 0.  1.
    -200000    1    3    3    0    0  0.10361978519E+03  0.36134221012E+02 -0.11074460894E+03  0.18576358691E+03  0.10100000000E+03 0.  1.
<mgrwt>
<rscale>  0 0.20920485E+04</rscale>
<asrwt>0</asrwt>
<pdfrwt beam="1">  1        2 0.17608296E+00 0.20920485E+04</pdfrwt>
<pdfrwt beam="2">  1       -2 0.12681484E+00 0.20920485E+04</pdfrwt>
<totfact> 0.87715488E+00</totfact>
</mgrwt>
</event>
<event>
 8    2  0.4480234E-052  0.1507759E+04  0.7818608E-02  0.8879310E-01
         -2   -1    0    0    0  501 -0.00000000000E+00  0.00000000000E+00  0.47070419081E+03  0.47070419082E+03  0.25500000000E-02 0. -1.
          2   -1    0    0  501    0  0.00000000000E+00 -0.00000000000E+00 -0.12074122401E+04  0.12074122401E+04  0.25500000000E-02 0.  1.
    -200001    2    1    2    0    0  0.41868723875E+03 -0.96323933826E+02 -0.26077271828E+03  0.79106471687E+03  0.61090397900E+03 0.  0.
   -5000001    2    3    3    0    0  0.30182076367E+03  0.17070235329E+03 -0.31929246215E+03  0.47708004936E+03  0.73638511044E+02 0.  0.
     200001    1    1    2    0    0 -0.41868723875E+03  0.96323933826E+02 -0.47593533103E+03  0.88705171408E+03  0.61300000000E+03 0.  1.
         13    1    4    4    0    0  0.14589982040E+03  0.80251320341E+02 -0.11166187860E+03  0.20048795053E+03  0.10566000000E+00 0.  1.
    -200003    1    4    4    0    0  0.15592094327E+03  0.90451032952E+02 -0.20763058355E+03  0.27659209883E+03  0.30000000000E+02 0.  1.
    -200000    1    3    3    0    0  0.11686647508E+03 -0.26702628712E+03  0.58519743868E+02  0.31398466751E+03  0.10100000000E+03 0. -1.
<mgrwt>
<rscale>  0 0.15077586E+04</rscale>
<asrwt>0</asrwt>
<pdfrwt beam="1">  1        2 0.17248746E+00 0.15077586E+04</pdfrwt>
<pdfrwt beam="2">  1       -2 0.67243456E-01 0.15077586E+04</pdfrwt>
<totfact> 0.41537625E+01</totfact>
</mgrwt>
</event>
<event>
 8    2  0.4480234E-052  0.1723848E+04  0.7818608E-02  0.8747878E-01
          2   -1    0    0  501    0  0.00000000000E+00  0.00000000000E+00  0.13118520197E+04  0.13118520197E+04  0.25500000000E-02 0.  1.
         -2   -1    0    0    0  501 -0.00000000000E+00 -0.00000000000E+00 -0.56630871524E+03  0.56630871524E+03  0.25500000000E-02 0. -1.
    -200001    2    1    2    0    0  0.24844461832E+03  0.98341220772E+02  0.96516997790E+03  0.11743137347E+04  0.61324052141E+03 0.  0.
   -5000001    2    3    3    0    0  0.12636436681E+03  0.20940505066E+03  0.10205027894E+03  0.28977126714E+03  0.11719513380E+03 0.  0.
     200001    1    1    2    0    0 -0.24844461832E+03 -0.98341220772E+02 -0.21962667346E+03  0.70384700026E+03  0.61300000000E+03 0. -1.
         13    1    4    4    0    0  0.11404125916E+02  0.12301352897E+03  0.35797306288E+02  0.12862286227E+03  0.10566000000E+00 0.  1.
    -200003    1    4    4    0    0  0.11496024090E+03  0.86391521692E+02  0.66252972651E+02  0.16114840487E+03  0.30000000000E+02 0.  1.
    -200000    1    3    3    0    0  0.12208025151E+03 -0.11106382989E+03  0.86311969896E+03  0.88454246752E+03  0.10100000000E+03 0.  1.
<mgrwt>
<rscale>  0 0.17238483E+04</rscale>
<asrwt>0</asrwt>
<pdfrwt beam="1">  1        2 0.18740743E+00 0.17238483E+04</pdfrwt>
<pdfrwt beam="2">  1       -2 0.80901245E-01 0.17238483E+04</pdfrwt>
<totfact> 0.23739145E+01</totfact>
</mgrwt>
</event>
<event>
 8    2  0.4480234E-052  0.1441642E+04  0.7818608E-02  0.8924216E-01
         -2   -1    0    0    0  501 -0.00000000000E+00  0.00000000000E+00  0.28139843213E+03  0.28139843215E+03  0.25500000000E-02 0. -1.
          2   -1    0    0  501    0  0.00000000000E+00 -0.00000000000E+00 -0.18464305569E+04  0.18464305569E+04  0.25500000000E-02 0.  1.
    -200001    2    1    2    0    0 -0.34166844065E+03 -0.21099091539E+02 -0.10256287140E+04  0.12424434603E+04  0.61202042289E+03 0.  0.
   -5000001    2    3    3    0    0 -0.34673605659E+03 -0.16472886124E+03 -0.98610421113E+03  0.10623924181E+04  0.94417392843E+02 0.  0.
     200001    1    1    2    0    0  0.34166844065E+03  0.21099091539E+02 -0.53940341080E+03  0.88538552878E+03  0.61300000000E+03 0. -1.
         13    1    4    4    0    0 -0.18242670610E+03 -0.62410059853E+02 -0.58621360324E+03  0.61710689387E+03  0.10566000000E+00 0.  1.
    -200003    1    4    4    0    0 -0.16430935048E+03 -0.10231880138E+03 -0.39989060789E+03  0.44528552419E+03  0.30000000000E+02 0.  1.
    -200000    1    3    3    0    0  0.50676159380E+01  0.14362976970E+03 -0.39524502836E+02  0.18005104220E+03  0.10100000000E+03 0.  1.
<mgrwt>
<rscale>  0 0.14416417E+04</rscale>
<asrwt>0</asrwt>
<pdfrwt beam="1">  1        2 0.26377579E+00 0.14416417E+04</pdfrwt>
<pdfrwt beam="2">  1       -2 0.40199777E-01 0.14416417E+04</pdfrwt>
<totfact> 0.54777935E+01</totfact>
</mgrwt>
</event>
<event>
 8    2  0.4480234E-052  0.1296909E+04  0.7818608E-02  0.9032020E-01
         -2   -1    0    0    0  501 -0.00000000000E+00  0.00000000000E+00  0.35399613341E+03  0.35399613342E+03  0.25500000000E-02 0. -1.
          2   -1    0    0  501    0  0.00000000000E+00 -0.00000000000E+00 -0.11878472117E+04  0.11878472117E+04  0.25500000000E-02 0.  1.
    -200001    2    1    2    0    0  0.14852842930E+03  0.14941647138E+03 -0.38872707541E+03  0.75552893334E+03  0.61264121125E+03 0.  0.
   -5000001    2    3    3    0    0 -0.18271453687E+03 -0.93391309423E+02 -0.92078818850E+02  0.23892588536E+03  0.80625871496E+02 0.  0.
     200001    1    1    2    0    0 -0.14852842930E+03 -0.14941647138E+03 -0.44512400287E+03  0.78631441177E+03  0.61300000000E+03 0.  1.
         13    1    4    4    0    0 -0.10069398645E+03 -0.28320637566E+02 -0.15396960955E+02  0.10572802368E+03  0.10566000000E+00 0.  1.
    -200003    1    4    4    0    0 -0.82020550418E+02 -0.65070671857E+02 -0.76681857895E+02  0.13319786168E+03  0.30000000000E+02 0. -1.
    -200000    1    3    3    0    0  0.33124296617E+03  0.24280778081E+03 -0.29664825656E+03  0.51660304798E+03  0.10100000000E+03 0. -1.
<mgrwt>
<rscale>  0 0.12969091E+04</rscale>
<asrwt>0</asrwt>
<pdfrwt beam="1">  1        2 0.16969246E+00 0.12969091E+04</pdfrwt>
<pdfrwt beam="2">  1       -2 0.50570877E-01 0.12969091E+04</pdfrwt>
<totfact> 0.78749322E+01</totfact>
</mgrwt>
</event>
<event>
 8    2  0.4480234E-052  0.1390595E+04  0.7818608E-02  0.8960655E-01
         -2   -1    0    0    0  501 -0.00000000000E+00  0.00000000000E+00  0.62810423588E+03  0.62810423588E+03  0.25500000000E-02 0. -1.
          2   -1    0    0  501    0  0.00000000000E+00 -0.00000000000E+00 -0.76967899279E+03  0.76967899279E+03  0.25500000000E-02 0.  1.
    -200001    2    1    2    0    0 -0.21490381404E+03 -0.22153087138E+03  0.40750178981E+02  0.68766284556E+03  0.61315580061E+03 0.  0.
   -5000001    2    3    3    0    0 -0.15485118770E+03 -0.36965830355E+03  0.18572297613E+03  0.44940633253E+03  0.82745852668E+02 0.  0.
     200001    1    1    2    0    0  0.21490381404E+03  0.22153087138E+03 -0.18232493589E+03  0.71012038311E+03  0.61300000000E+03 0. -1.
         13    1    4    4    0    0 -0.65492085740E+02 -0.15567472455E+03  0.38917298775E+02  0.17331589790E+03  0.10566000000E+00 0.  1.
    -200003    1    4    4    0    0 -0.89359101964E+02 -0.21398357901E+03  0.14680567736E+03  0.27609043463E+03  0.30000000000E+02 0. -1.
    -200000    1    3    3    0    0 -0.60052626341E+02  0.14812743217E+03 -0.14497279715E+03  0.23825651304E+03  0.10100000000E+03 0.  1.
<mgrwt>
<rscale>  0 0.13905950E+04</rscale>
<asrwt>0</asrwt>
<pdfrwt beam="1">  1        2 0.10995414E+00 0.13905950E+04</pdfrwt>
<pdfrwt beam="2">  1       -2 0.89729177E-01 0.13905950E+04</pdfrwt>
<totfact> 0.41481392E+01</totfact>
</mgrwt>
</event>
<event>
 8    2  0.4480234E-052  0.1694044E+04  0.7818608E-02  0.8764769E-01
         -2   -1    0    0    0  501 -0.00000000000E+00  0.00000000000E+00  0.88295989002E+03  0.88295989002E+03  0.25500000000E-02 0. -1.
          2   -1    0    0  501    0  0.00000000000E+00 -0.00000000000E+00 -0.81254696559E+03  0.81254696559E+03  0.25500000000E-02 0.  1.
    -200001    2    1    2    0    0 -0.75301280244E+01 -0.31419741745E+03 -0.45858657037E+03  0.82695277816E+03  0.61218668298E+03 0.  0.
   -5000001    2    3    3    0    0 -0.28369405579E+03 -0.25633821745E+03 -0.25573061428E+03  0.46506088692E+03  0.68497317087E+02 0.  0.
     200001    1    1    2    0    0  0.75301280244E+01  0.31419741745E+03  0.52899949480E+03  0.86855407745E+03  0.61300000000E+03 0. -1.
         13    1    4    4    0    0 -0.61315068023E+01  0.17001775835E+01 -0.11684621948E+02  0.13305169431E+02  0.10566000000E+00 0.  1.
    -200003    1    4    4    0    0 -0.27756254899E+03 -0.25803839503E+03 -0.24404599233E+03  0.45175571749E+03  0.30000000000E+02 0.  1.
    -200000    1    3    3    0    0  0.27616392777E+03 -0.57859200004E+02 -0.20285595609E+03  0.36189189124E+03  0.10100000000E+03 0.  1.
<mgrwt>
<rscale>  0 0.16940441E+04</rscale>
<asrwt>0</asrwt>
<pdfrwt beam="1">  1        2 0.11607814E+00 0.16940441E+04</pdfrwt>
<pdfrwt beam="2">  1       -2 0.12613713E+00 0.16940441E+04</pdfrwt>
<totfact> 0.16664058E+01</totfact>
</mgrwt>
</event>
<event>
 8    2  0.4480234E-052  0.1762539E+04  0.7818608E-02  0.8726479E-01
         -2   -1    0    0    0  501 -0.00000000000E+00  0.00000000000E+00  0.26572270879E+03  0.26572270880E+03  0.25500000000E-02 0. -1.
          2   -1    0    0  501    0  0.00000000000E+00 -0.00000000000E+00 -0.29227297418E+04  0.29227297418E+04  0.25500000000E-02 0.  1.
    -200001    2    1    2    0    0 -0.60655056905E+03 -0.60191210301E+02 -0.10192504271E+04  0.13365501111E+04  0.61316245148E+03 0.  0.
   -5000001    2    3    3    0    0 -0.52751645722E+03  0.12280201685E+03 -0.95728638800E+03  0.11046590717E+04  0.10256943092E+03 0.  0.
     200001    1    1    2    0    0  0.60655056905E+03  0.60191210301E+02 -0.16377566060E+04  0.18519023395E+04  0.61300000000E+03 0.  1.
         13    1    4    4    0    0 -0.45507295830E+03  0.88382812057E+02 -0.84015664827E+03  0.95956559111E+03  0.10566000000E+00 0.  1.
    -200003    1    4    4    0    0 -0.72443498916E+02  0.34419204793E+02 -0.11712973973E+03  0.14509348064E+03  0.30000000000E+02 0.  1.
    -200000    1    3    3    0    0 -0.79034111829E+02 -0.18299322715E+03 -0.61964039070E+02  0.23189103940E+03  0.10100000000E+03 0. -1.
<mgrwt>
<rscale>  0 0.17625387E+04</rscale>
<asrwt>0</asrwt>
<pdfrwt beam="1">  1        2 0.41753280E+00 0.17625387E+04</pdfrwt>
<pdfrwt beam="2">  1       -2 0.37960389E-01 0.17625387E+04</pdfrwt>
<totfact> 0.16230465E+01</totfact>
</mgrwt>
</event>
<event>
 8    2  0.4480234E-052  0.1937257E+04  0.7818608E-02  0.8636530E-01
         -2   -1    0    0    0  501 -0.00000000000E+00  0.00000000000E+00  0.84474036913E+03  0.84474036914E+03  0.25500000000E-02 0. -1.
          2   -1    0    0  501    0  0.00000000000E+00 -0.00000000000E+00 -0.11106856752E+04  0.11106856752E+04  0.25500000000E-02 0.  1.
    -200001    2    1    2    0    0 -0.10377626752E+03 -0.73859307988E+03 -0.57103820363E+02  0.96766442459E+03  0.61386019660E+03 0.  0.
   -5000001    2    3    3    0    0 -0.58515221590E+02 -0.30320022085E+03 -0.31556358458E+03  0.44938076318E+03  0.83715526135E+02 0.  0.
     200001    1    1    2    0    0  0.10377626752E+03  0.73859307988E+03 -0.20884148573E+03  0.98776161978E+03  0.61300000000E+03 0. -1.
         13    1    4    4    0    0 -0.23583063821E+02 -0.18557775738E+03 -0.14269650574E+03  0.23528189231E+03  0.10566000000E+00 0.  1.
    -200003    1    4    4    0    0 -0.34932157769E+02 -0.11762246347E+03 -0.17286707884E+03  0.21409887087E+03  0.30000000000E+02 0. -1.
    -200000    1    3    3    0    0 -0.45261045930E+02 -0.43539285903E+03  0.25845976421E+03  0.51828366141E+03  0.10100000000E+03 0. -1.
<mgrwt>
<rscale>  0 0.19372569E+04</rscale>
<asrwt>0</asrwt>
<pdfrwt beam="1">  1        2 0.15866938E+00 0.19372569E+04</pdfrwt>
<pdfrwt beam="2">  1       -2 0.12067720E+00 0.19372569E+04</pdfrwt>
<totfact> 0.11818145E+01</totfact>
</mgrwt>
</event>
<event>
 8    2  0.4480234E-052  0.1464304E+04  0.7818608E-02  0.8908543E-01
         -2   -1    0    0    0  501 -0.00000000000E+00  0.00000000000E+00  0.60018275515E+03  0.60018275516E+03  0.25500000000E-02 0. -1.
          2   -1    0    0  501    0  0.00000000000E+00 -0.00000000000E+00 -0.89313905965E+03  0.89313905965E+03  0.25500000000E-02 0.  1.
    -200001    2    1    2    0    0  0.20074300934E+03  0.18853293136E+02  0.20657128583E+03  0.67726420902E+03  0.61266786290E+03 0.  0.
   -5000001    2    3    3    0    0 -0.10711192971E+03 -0.12014095180E+03 -0.10411914510E+03  0.20734548467E+03  0.79022400933E+02 0.  0.
     200001    1    1    2    0    0 -0.20074300934E+03 -0.18853293136E+02 -0.49952759033E+03  0.81605760579E+03  0.61300000000E+03 0.  1.
         13    1    4    4    0    0 -0.93972726619E+02 -0.74113396026E+02 -0.88151218079E+02  0.14864157303E+03  0.10566000000E+00 0.  1.
    -200003    1    4    4    0    0 -0.13139203089E+02 -0.46027555775E+02 -0.15967927023E+02  0.58703911640E+02  0.30000000000E+02 0. -1.
    -200000    1    3    3    0    0  0.30785493905E+03  0.13899424494E+03  0.31069043094E+03  0.46991872435E+03  0.10100000000E+03 0. -1.
<mgrwt>
<rscale>  0 0.14643042E+04</rscale>
<asrwt>0</asrwt>
<pdfrwt beam="1">  1        2 0.12759129E+00 0.14643042E+04</pdfrwt>
<pdfrwt beam="2">  1       -2 0.85740394E-01 0.14643042E+04</pdfrwt>
<totfact> 0.37678269E+01</totfact>
</mgrwt>
</event>
<event>
 8    2  0.4480234E-052  0.1336628E+04  0.7818608E-02  0.9001013E-01
          2   -1    0    0  501    0  0.00000000000E+00  0.00000000000E+00  0.18028015561E+04  0.18028015561E+04  0.25500000000E-02 0.  1.
         -2   -1    0    0    0  501 -0.00000000000E+00 -0.00000000000E+00 -0.24774954885E+03  0.24774954886E+03  0.25500000000E-02 0. -1.
    -200001    2    1    2    0    0  0.34915889377E+02 -0.23781339242E+03  0.60279183056E+03  0.89281936874E+03  0.61318358203E+03 0.  0.
   -5000001    2    3    3    0    0 -0.26518031177E+03 -0.20360653886E+03  0.31008674612E+03  0.46026289240E+03  0.62545340208E+02 0.  0.
     200001    1    1    2    0    0 -0.34915889377E+02  0.23781339242E+03  0.95226017671E+03  0.11577317362E+04  0.61300000000E+03 0.  1.
         13    1    4    4    0    0 -0.18631408382E+03 -0.13396068607E+03  0.19115995489E+03  0.29866459910E+03  0.10566000000E+00 0.  1.
    -200003    1    4    4    0    0 -0.78866227947E+02 -0.69645852792E+02  0.11892679124E+03  0.16159829329E+03  0.30000000000E+02 0.  1.
    -200000    1    3    3    0    0  0.30009620115E+03 -0.34206853561E+02  0.29270508443E+03  0.43255647634E+03  0.10100000000E+03 0. -1.
<mgrwt>
<rscale>  0 0.13366275E+04</rscale>
<asrwt>0</asrwt>
<pdfrwt beam="1">  1        2 0.25754309E+00 0.13366275E+04</pdfrwt>
<pdfrwt beam="2">  1       -2 0.35392791E-01 0.13366275E+04</pdfrwt>
<totfact> 0.74387415E+01</totfact>
</mgrwt>
</event>
<event>
 8    2  0.4480234E-052  0.1360575E+04  0.7818608E-02  0.8982861E-01
          2   -1    0    0  501    0  0.00000000000E+00  0.00000000000E+00  0.11617275134E+04  0.11617275134E+04  0.25500000000E-02 0.  1.
         -2   -1    0    0    0  501 -0.00000000000E+00 -0.00000000000E+00 -0.39836448378E+03  0.39836448379E+03  0.25500000000E-02 0. -1.
    -200001    2    1    2    0    0  0.25025112569E+03 -0.40425127324E+01  0.56112836532E+03  0.86776994261E+03  0.61279496009E+03 0.  0.
   -5000001    2    3    3    0    0 -0.99662058714E+02 -0.37392278646E+02  0.44486042853E+03  0.48401132495E+03  0.15822595664E+03 0.  0.
     200001    1    1    2    0    0 -0.25025112569E+03  0.40425127324E+01  0.20223466430E+03  0.69232205459E+03  0.61300000000E+03 0. -1.
         13    1    4    4    0    0 -0.16431257430E+02 -0.81173200121E+02  0.13091087209E+03  0.15490881910E+03  0.10566000000E+00 0.  1.
    -200003    1    4    4    0    0 -0.83230801284E+02  0.43780921475E+02  0.31394955644E+03  0.32910250585E+03  0.30000000000E+02 0.  1.
    -200000    1    3    3    0    0  0.34991318441E+03  0.33349765914E+02  0.11626793679E+03  0.38375861767E+03  0.10100000000E+03 0. -1.
<mgrwt>
<rscale>  0 0.13605749E+04</rscale>
<asrwt>0</asrwt>
<pdfrwt beam="1">  1        2 0.16596107E+00 0.13605749E+04</pdfrwt>
<pdfrwt beam="2">  1       -2 0.56909212E-01 0.13605749E+04</pdfrwt>
<totfact> 0.63588340E+01</totfact>
</mgrwt>
</event>
<event>
 8    2  0.4480234E-052  0.3665542E+04  0.7818608E-02  0.8075641E-01
         -2   -1    0    0    0  501 -0.00000000000E+00  0.00000000000E+00  0.97398123637E+03  0.97398123638E+03  0.25500000000E-02 0. -1.
          2   -1    0    0  501    0  0.00000000000E+00 -0.00000000000E+00 -0.34487818372E+04  0.34487818372E+04  0.25500000000E-02 0.  1.
    -200001    2    1    2    0    0 -0.16994575880E+04 -0.14345285637E+03 -0.15768904522E+04  0.24002036924E+04  0.60469781834E+03 0.  0.
   -5000001    2    3    3    0    0 -0.17109075445E+03 -0.14902026996E+03 -0.64008868569E+02  0.24731078750E+03  0.74742245361E+02 0.  0.
     200001    1    1    2    0    0  0.16994575880E+04  0.14345285637E+03 -0.89791014861E+03  0.20225593812E+04  0.61300000000E+03 0.  1.
         13    1    4    4    0    0 -0.73522868636E+02 -0.93795887944E+02 -0.53945765627E+02  0.13081833817E+03  0.10566000000E+00 0.  1.
    -200003    1    4    4    0    0 -0.97567885810E+02 -0.55224382021E+02 -0.10063102942E+02  0.11649244933E+03  0.30000000000E+02 0.  1.
    -200000    1    3    3    0    0 -0.15283668335E+04  0.55674135979E+01 -0.15128815837E+04  0.21528929049E+04  0.10100000000E+03 0. -1.
<mgrwt>
<rscale>  0 0.36655416E+04</rscale>
<asrwt>0</asrwt>
<pdfrwt beam="1">  1        2 0.49268311E+00 0.36655416E+04</pdfrwt>
<pdfrwt beam="2">  1       -2 0.13914018E+00 0.36655416E+04</pdfrwt>
<totfact> 0.38536343E-01</totfact>
</mgrwt>
</event>
<event>
 8    2  0.4480234E-052  0.1391160E+04  0.7818608E-02  0.8960243E-01
          2   -1    0    0  501    0  0.00000000000E+00  0.00000000000E+00  0.95556996327E+03  0.95556996328E+03  0.25500000000E-02 0.  1.
         -2   -1    0    0    0  501 -0.00000000000E+00 -0.00000000000E+00 -0.50632752266E+03  0.50632752267E+03  0.25500000000E-02 0. -1.
    -200001    2    1    2    0    0 -0.15771395924E+02  0.21453702340E+02 -0.11881965507E+03  0.62573210587E+03  0.61376995659E+03 0.  0.
   -5000001    2    3    3    0    0 -0.33532623651E+02 -0.25658394606E+02 -0.35387186683E+03  0.36499171173E+03  0.78809018723E+02 0.  0.
     200001    1    1    2    0    0  0.15771395924E+02 -0.21453702340E+02  0.56806209569E+03  0.83616538007E+03  0.61300000000E+03 0.  1.
         13    1    4    4    0    0 -0.47634442930E+02 -0.72650364003E+01 -0.14763397128E+03  0.15529849177E+03  0.10566000000E+00 0.  1.
    -200003    1    4    4    0    0  0.14101819279E+02 -0.18393358206E+02 -0.20623789555E+03  0.20969321996E+03  0.30000000000E+02 0. -1.
    -200000    1    3    3    0    0  0.17761227727E+02  0.47112096946E+02  0.23505221176E+03  0.26074039415E+03  0.10100000000E+03 0.  1.
<mgrwt>
<rscale>  0 0.13911598E+04</rscale>
<asrwt>0</asrwt>
<pdfrwt beam="1">  1        2 0.13650999E+00 0.13911598E+04</pdfrwt>
<pdfrwt beam="2">  1       -2 0.72332503E-01 0.13911598E+04</pdfrwt>
<totfact> 0.50532442E+01</totfact>
</mgrwt>
</event>
<event>
 8    2  0.4480234E-052  0.1613864E+04  0.7818608E-02  0.8812076E-01
          2   -1    0    0  501    0  0.00000000000E+00  0.00000000000E+00  0.13015903084E+04  0.13015903084E+04  0.25500000000E-02 0.  1.
         -2   -1    0    0    0  501 -0.00000000000E+00 -0.00000000000E+00 -0.50026434349E+03  0.50026434350E+03  0.25500000000E-02 0. -1.
    -200001    2    1    2    0    0 -0.29874523435E+03  0.42718378826E+03  0.47117386218E+03  0.93208220182E+03  0.61240323199E+03 0.  0.
   -5000001    2    3    3    0    0  0.72438717638E+02 -0.12171808103E+02  0.30378169528E+03  0.32460215786E+03  0.87679654298E+02 0.  0.
     200001    1    1    2    0    0  0.29874523435E+03 -0.42718378826E+03  0.33015210272E+03  0.86977245008E+03  0.61300000000E+03 0. -1.
         13    1    4    4    0    0  0.32559893802E+02 -0.43905023806E+02  0.16232930615E+03  0.17128517916E+03  0.10566000000E+00 0.  1.
    -200003    1    4    4    0    0  0.39878823836E+02  0.31733215703E+02  0.14145238912E+03  0.15331697870E+03  0.30000000000E+02 0.  1.
    -200000    1    3    3    0    0 -0.37118395198E+03  0.43935559636E+03  0.16739216690E+03  0.60748004395E+03  0.10100000000E+03 0.  1.
<mgrwt>
<rscale>  0 0.16138640E+04</rscale>
<asrwt>0</asrwt>
<pdfrwt beam="1">  1        2 0.18594147E+00 0.16138640E+04</pdfrwt>
<pdfrwt beam="2">  1       -2 0.71466336E-01 0.16138640E+04</pdfrwt>
<totfact> 0.31952254E+01</totfact>
</mgrwt>
</event>
<event>
 8    2  0.4480234E-052  0.1474222E+04  0.7818608E-02  0.8901778E-01
         -2   -1    0    0    0  501 -0.00000000000E+00  0.00000000000E+00  0.38278802765E+03  0.38278802766E+03  0.25500000000E-02 0. -1.
          2   -1    0    0  501    0  0.00000000000E+00 -0.00000000000E+00 -0.14194085718E+04  0.14194085718E+04  0.25500000000E-02 0.  1.
    -200001    2    1    2    0    0 -0.21428153199E+03  0.31886760591E+03 -0.34628814724E+03  0.80223612861E+03  0.61324888917E+03 0.  0.
   -5000001    2    3    3    0    0  0.10988002208E+03  0.17318846441E+03  0.50318332672E+02  0.26020215798E+03  0.15200448992E+03 0.  0.
     200001    1    1    2    0    0  0.21428153199E+03 -0.31886760591E+03 -0.69033239694E+03  0.99996047088E+03  0.61300000000E+03 0.  1.
         13    1    4    4    0    0 -0.13210694331E+02 -0.18002246713E+02  0.17787536322E+02  0.28548396520E+02  0.10566000000E+00 0.  1.
    -200003    1    4    4    0    0  0.12309071641E+03  0.19119071112E+03  0.32530796350E+02  0.23165376146E+03  0.30000000000E+02 0.  1.
    -200000    1    3    3    0    0 -0.32416155407E+03  0.14567914150E+03 -0.39660647991E+03  0.54203397063E+03  0.10100000000E+03 0.  1.
<mgrwt>
<rscale>  0 0.14742220E+04</rscale>
<asrwt>0</asrwt>
<pdfrwt beam="1">  1        2 0.20277265E+00 0.14742220E+04</pdfrwt>
<pdfrwt beam="2">  1       -2 0.54684005E-01 0.14742220E+04</pdfrwt>
<totfact> 0.49253643E+01</totfact>
</mgrwt>
</event>
<event>
 8    2  0.4480234E-052  0.2089458E+04  0.7818608E-02  0.8565901E-01
          2   -1    0    0  501    0  0.00000000000E+00  0.00000000000E+00  0.18151575561E+04  0.18151575561E+04  0.25500000000E-02 0. -1.
         -2   -1    0    0    0  501 -0.00000000000E+00 -0.00000000000E+00 -0.60130248539E+03  0.60130248540E+03  0.25500000000E-02 0.  1.
    -200001    2    1    2    0    0  0.29076355889E+03  0.45514830567E+03 -0.14615955433E+03  0.82991908468E+03  0.61294342680E+03 0.  0.
   -5000001    2    3    3    0    0  0.93180276682E+02  0.44785121699E+03 -0.29255256344E+03  0.56397865145E+03  0.15241929141E+03 0.  0.
     200001    1    1    2    0    0 -0.29076355889E+03 -0.45514830567E+03  0.13600146250E+04  0.15865409568E+04  0.61300000000E+03 0. -1.
         13    1    4    4    0    0  0.77073818597E+02  0.27293865816E+03 -0.97792186118E+02  0.29999867910E+03  0.10566000000E+00 0.  1.
    -200003    1    4    4    0    0  0.16106458086E+02  0.17491255883E+03 -0.19476037732E+03  0.26397997235E+03  0.30000000000E+02 0.  1.
    -200000    1    3    3    0    0  0.19758328220E+03  0.72970886867E+01  0.14639300911E+03  0.26594043323E+03  0.10100000000E+03 0.  1.
<mgrwt>
<rscale>  0 0.20894581E+04</rscale>
<asrwt>0</asrwt>
<pdfrwt beam="1">  1        2 0.25930822E+00 0.20894581E+04</pdfrwt>
<pdfrwt beam="2">  1       -2 0.85900354E-01 0.20894581E+04</pdfrwt>
<totfact> 0.10890428E+01</totfact>
</mgrwt>
</event>
<event>
 8    2  0.4480234E-052  0.1990257E+04  0.7818608E-02  0.8611189E-01
          2   -1    0    0  501    0  0.00000000000E+00  0.00000000000E+00  0.14607243802E+04  0.14607243802E+04  0.25500000000E-02 0.  1.
         -2   -1    0    0    0  501 -0.00000000000E+00 -0.00000000000E+00 -0.67793817779E+03  0.67793817779E+03  0.25500000000E-02 0. -1.
    -200001    2    1    2    0    0 -0.41026806473E+03  0.11034996307E+03 -0.31687032749E+03  0.80993742349E+03  0.61244985610E+03 0.  0.
   -5000001    2    3    3    0    0 -0.48835148751E+03 -0.90921094543E+02 -0.20246064507E+03  0.54555581487E+03  0.99433462931E+02 0.  0.
     200001    1    1    2    0    0  0.41026806473E+03 -0.11034996307E+03  0.10996565299E+04  0.13287251345E+04  0.61300000000E+03 0.  1.
         13    1    4    4    0    0 -0.98479548356E+02 -0.94454841419E+01 -0.81617702745E+02  0.12825326187E+03  0.10566000000E+00 0.  1.
    -200003    1    4    4    0    0 -0.38987193915E+03 -0.81475610401E+02 -0.12084294232E+03  0.41730255300E+03  0.30000000000E+02 0.  1.
    -200000    1    3    3    0    0  0.78083422778E+02  0.20127105761E+03 -0.11440968243E+03  0.26438160863E+03  0.10100000000E+03 0.  1.
<mgrwt>
<rscale>  0 0.19902571E+04</rscale>
<asrwt>0</asrwt>
<pdfrwt beam="1">  1        2 0.20867491E+00 0.19902571E+04</pdfrwt>
<pdfrwt beam="2">  1       -2 0.96848313E-01 0.19902571E+04</pdfrwt>
<totfact> 0.12760647E+01</totfact>
</mgrwt>
</event>
<event>
 8    2  0.4480234E-052  0.1708826E+04  0.7818608E-02  0.8756347E-01
          2   -1    0    0  501    0  0.00000000000E+00  0.00000000000E+00  0.23990177550E+04  0.23990177550E+04  0.25500000000E-02 0.  1.
         -2   -1    0    0    0  501 -0.00000000000E+00 -0.00000000000E+00 -0.30430020190E+03  0.30430020191E+03  0.25500000000E-02 0. -1.
    -200001    2    1    2    0    0  0.28087878423E+03  0.36463743637E+03  0.16443508667E+04  0.18142439985E+04  0.61297484581E+03 0.  0.
   -5000001    2    3    3    0    0 -0.50237749388E+02  0.40507464259E+03  0.86260552728E+03  0.95832338168E+03  0.87670466167E+02 0.  0.
     200001    1    1    2    0    0 -0.28087878423E+03 -0.36463743637E+03  0.45036668642E+03  0.88907395850E+03  0.61300000000E+03 0. -1.
         13    1    4    4    0    0 -0.21652155938E+02  0.32781005214E+03  0.64864228745E+03  0.72709358020E+03  0.10566000000E+00 0.  1.
    -200003    1    4    4    0    0 -0.28585593450E+02  0.77264590458E+02  0.21396323983E+03  0.23122980148E+03  0.30000000000E+02 0.  1.
    -200000    1    3    3    0    0  0.33111653362E+03 -0.40437206221E+02  0.78174533944E+03  0.85592061678E+03  0.10100000000E+03 0.  1.
<mgrwt>
<rscale>  0 0.17088260E+04</rscale>
<asrwt>0</asrwt>
<pdfrwt beam="1">  1        2 0.34271681E+00 0.17088260E+04</pdfrwt>
<pdfrwt beam="2">  1       -2 0.43471459E-01 0.17088260E+04</pdfrwt>
<totfact> 0.23837132E+01</totfact>
</mgrwt>
</event>
<event>
 8    2  0.4480234E-052  0.1333051E+04  0.7818608E-02  0.9003758E-01
          2   -1    0    0  501    0  0.00000000000E+00  0.00000000000E+00  0.39466223998E+03  0.39466223999E+03  0.25500000000E-02 0.  1.
         -2   -1    0    0    0  501 -0.00000000000E+00 -0.00000000000E+00 -0.11256619275E+04  0.11256619275E+04  0.25500000000E-02 0. -1.
    -200001    2    1    2    0    0 -0.19568284031E+03  0.84367104520E+02 -0.19125853900E+03  0.67622755590E+03  0.61261268049E+03 0.  0.
   -5000001    2    3    3    0    0 -0.37522965273E+03  0.40961490352E+02  0.95009249972E+01  0.38532126931E+03  0.76857511226E+02 0.  0.
     200001    1    1    2    0    0  0.19568284031E+03 -0.84367104520E+02 -0.53974114854E+03  0.84409661162E+03  0.61300000000E+03 0. -1.
         13    1    4    4    0    0 -0.58181777737E+02 -0.91088291405E+01  0.21577103766E+02  0.62718997121E+02  0.10566000000E+00 0.  1.
    -200003    1    4    4    0    0 -0.31704787499E+03  0.50070319492E+02 -0.12076178768E+02  0.32260227219E+03  0.30000000000E+02 0.  1.
    -200000    1    3    3    0    0  0.17954681242E+03  0.43405614169E+02 -0.20075946400E+03  0.29090628659E+03  0.10100000000E+03 0.  1.
<mgrwt>
<rscale>  0 0.13330510E+04</rscale>
<asrwt>0</asrwt>
<pdfrwt beam="1">  1        2 0.56380321E-01 0.13330510E+04</pdfrwt>
<pdfrwt beam="2">  1       -2 0.16080885E+00 0.13330510E+04</pdfrwt>
<totfact> 0.21340203E+01</totfact>
</mgrwt>
</event>
<event>
 8    2  0.4480234E-052  0.1535346E+04  0.7818608E-02  0.8861282E-01
          2   -1    0    0  501    0  0.00000000000E+00  0.00000000000E+00  0.68266283126E+03  0.68266283127E+03  0.25500000000E-02 0.  1.
         -2   -1    0    0    0  501 -0.00000000000E+00 -0.00000000000E+00 -0.86326942542E+03  0.86326942542E+03  0.25500000000E-02 0. -1.
    -200001    2    1    2    0    0  0.29469982093E+03 -0.27866600495E+03 -0.31474688078E+03  0.79876069455E+03  0.61192346043E+03 0.  0.
   -5000001    2    3    3    0    0  0.40975151700E+03 -0.21538830335E+03 -0.42300859729E+02  0.47990524976E+03  0.11929484110E+03 0.  0.
     200001    1    1    2    0    0 -0.29469982093E+03  0.27866600495E+03  0.13414028663E+03  0.74717156214E+03  0.61300000000E+03 0. -1.
         13    1    4    4    0    0  0.10818770239E+01 -0.26998959419E+02 -0.33000442191E+01  0.27221603984E+02  0.10566000000E+00 0.  1.
    -200003    1    4    4    0    0  0.40866963997E+03 -0.18838934393E+03 -0.39000815510E+02  0.45268364577E+03  0.30000000000E+02 0.  1.
    -200000    1    3    3    0    0 -0.11505169606E+03 -0.63277701604E+02 -0.27244602105E+03  0.31885544479E+03  0.10100000000E+03 0. -1.
<mgrwt>
<rscale>  0 0.15353462E+04</rscale>
<asrwt>0</asrwt>
<pdfrwt beam="1">  1        2 0.97523261E-01 0.15353462E+04</pdfrwt>
<pdfrwt beam="2">  1       -2 0.12332420E+00 0.15353462E+04</pdfrwt>
<totfact> 0.22232382E+01</totfact>
</mgrwt>
</event>
<event>
 8    2  0.4480234E-052  0.1420620E+04  0.7818608E-02  0.8939027E-01
         -2   -1    0    0    0  501 -0.00000000000E+00  0.00000000000E+00  0.21500708462E+03  0.21500708463E+03  0.25500000000E-02 0. -1.
          2   -1    0    0  501    0  0.00000000000E+00 -0.00000000000E+00 -0.23466209937E+04  0.23466209937E+04  0.25500000000E-02 0.  1.
    -200001    2    1    2    0    0 -0.19515232113E+03 -0.30159736863E+03 -0.10973377864E+04  0.13068207229E+04  0.61203331873E+03 0.  0.
   -5000001    2    3    3    0    0 -0.33093959169E+03 -0.17921671814E+03 -0.31503532098E+03  0.49712117752E+03  0.79009912432E+02 0.  0.
     200001    1    1    2    0    0  0.19515232113E+03  0.30159736863E+03 -0.10342761227E+04  0.12548073554E+04  0.61300000000E+03 0. -1.
         13    1    4    4    0    0 -0.23210383370E+03 -0.98824652672E+02 -0.22716829515E+03  0.33947598896E+03  0.10566000000E+00 0.  1.
    -200003    1    4    4    0    0 -0.98835757991E+02 -0.80392065467E+02 -0.87867025831E+02  0.15764518856E+03  0.30000000000E+02 0.  1.
    -200000    1    3    3    0    0  0.13578727056E+03 -0.12238065049E+03 -0.78230246539E+03  0.80969954539E+03  0.10100000000E+03 0.  1.
<mgrwt>
<rscale>  0 0.14206198E+04</rscale>
<asrwt>0</asrwt>
<pdfrwt beam="1">  1        2 0.33523156E+00 0.14206198E+04</pdfrwt>
<pdfrwt beam="2">  1       -2 0.30715299E-01 0.14206198E+04</pdfrwt>
<totfact> 0.50718117E+01</totfact>
</mgrwt>
</event>
<event>
 8    2  0.4480234E-052  0.1743238E+04  0.7818608E-02  0.8737081E-01
         -2   -1    0    0    0  501 -0.00000000000E+00  0.00000000000E+00  0.71218418886E+03  0.71218418887E+03  0.25500000000E-02 0. -1.
          2   -1    0    0  501    0  0.00000000000E+00 -0.00000000000E+00 -0.10667456557E+04  0.10667456557E+04  0.25500000000E-02 0.  1.
    -200001    2    1    2    0    0 -0.35570063827E+03  0.37934465267E+03  0.16784465997E+03  0.82023152346E+03  0.61170467762E+03 0.  0.
   -5000001    2    3    3    0    0 -0.28910802236E+02  0.29975146325E+03  0.31455124754E+03  0.43963922773E+03  0.60443271148E+02 0.  0.
     200001    1    1    2    0    0  0.35570063827E+03 -0.37934465267E+03 -0.52240612681E+03  0.95869832111E+03  0.61300000000E+03 0.  1.
         13    1    4    4    0    0 -0.22685956466E+02  0.14215468671E+03  0.17760914248E+03  0.22862114126E+03  0.10566000000E+00 0.  1.
    -200003    1    4    4    0    0 -0.62248457701E+01  0.15759677654E+03  0.13694210505E+03  0.21101808647E+03  0.30000000000E+02 0.  1.
    -200000    1    3    3    0    0 -0.32678983603E+03  0.79593189422E+02 -0.14670658756E+03  0.38059229573E+03  0.10100000000E+03 0. -1.
<mgrwt>
<rscale>  0 0.17432377E+04</rscale>
<asrwt>0</asrwt>
<pdfrwt beam="1">  1        2 0.15239224E+00 0.17432377E+04</pdfrwt>
<pdfrwt beam="2">  1       -2 0.10174060E+00 0.17432377E+04</pdfrwt>
<totfact> 0.19284705E+01</totfact>
</mgrwt>
</event>
<event>
 8    2  0.4480234E-052  0.2182157E+04  0.7818608E-02  0.8525892E-01
         -2   -1    0    0    0  501 -0.00000000000E+00  0.00000000000E+00  0.59114933742E+03  0.59114933742E+03  0.25500000000E-02 0. -1.
          2   -1    0    0  501    0  0.00000000000E+00 -0.00000000000E+00 -0.20137929906E+04  0.20137929906E+04  0.25500000000E-02 0.  1.
    -200001    2    1    2    0    0 -0.12129181966E+03 -0.28958112742E+03  0.29023218408E+03  0.75878914674E+03  0.62686307410E+03 0.  0.
   -5000001    2    3    3    0    0 -0.13166100283E+03  0.93091203735E+02  0.15681283747E+02  0.27699579907E+03  0.22467794320E+03 0.  0.
     200001    1    1    2    0    0  0.12129181966E+03  0.28958112742E+03 -0.17128758373E+04  0.18461531813E+04  0.61300000000E+03 0.  1.
         13    1    4    4    0    0 -0.13469557669E+03  0.14677637507E+03  0.51498201993E+02  0.20576267551E+03  0.10566000000E+00 0.  1.
    -200003    1    4    4    0    0  0.30345738627E+01 -0.53685171334E+02 -0.35816918247E+02  0.71233123562E+02  0.30000000000E+02 0.  1.
    -200000    1    3    3    0    0  0.10369183171E+02 -0.38267233115E+03  0.27455090033E+03  0.48179334768E+03  0.10100000000E+03 0.  1.
<mgrwt>
<rscale>  0 0.21821571E+04</rscale>
<asrwt>0</asrwt>
<pdfrwt beam="1">  1        2 0.28768471E+00 0.21821571E+04</pdfrwt>
<pdfrwt beam="2">  1       -2 0.84449906E-01 0.21821571E+04</pdfrwt>
<totfact> 0.88751232E+00</totfact>
</mgrwt>
</event>
<event>
 8    2  0.4480234E-052  0.2452717E+04  0.7818608E-02  0.8420027E-01
         -2   -1    0    0    0  501 -0.00000000000E+00  0.00000000000E+00  0.38260522643E+03  0.38260522644E+03  0.25500000000E-02 0.  1.
          2   -1    0    0  501    0  0.00000000000E+00 -0.00000000000E+00 -0.39308269866E+04  0.39308269866E+04  0.25500000000E-02 0. -1.
    -200001    2    1    2    0    0 -0.99298364254E+02 -0.28040654124E+03  0.20063604891E+02  0.68067603625E+03  0.61190630375E+03 0.  0.
   -5000001    2    3    3    0    0 -0.25744383304E+03 -0.75929508761E+02 -0.18246169943E+03  0.33710894673E+03  0.91145777384E+02 0.  0.
     200001    1    1    2    0    0  0.99298364254E+02  0.28040654124E+03 -0.35682853651E+04  0.36327561768E+04  0.61300000000E+03 0. -1.
         13    1    4    4    0    0 -0.15253290578E+03 -0.43202362057E+02 -0.59092267975E+02  0.16918817551E+03  0.10566000000E+00 0.  1.
    -200003    1    4    4    0    0 -0.10491092726E+03 -0.32727146704E+02 -0.12336943146E+03  0.16792077122E+03  0.30000000000E+02 0.  1.
    -200000    1    3    3    0    0  0.15814546879E+03 -0.20447703248E+03  0.20252530433E+03  0.34356708952E+03  0.10100000000E+03 0.  1.
<mgrwt>
<rscale>  0 0.24527168E+04</rscale>
<asrwt>0</asrwt>
<pdfrwt beam="1">  1        2 0.56154669E+00 0.24527168E+04</pdfrwt>
<pdfrwt beam="2">  1       -2 0.54657892E-01 0.24527168E+04</pdfrwt>
<totfact> 0.18025895E+00</totfact>
</mgrwt>
</event>
<event>
 8    2  0.4480234E-052  0.1988756E+04  0.7818608E-02  0.8611896E-01
          2   -1    0    0  501    0  0.00000000000E+00  0.00000000000E+00  0.21579320131E+04  0.21579320131E+04  0.25500000000E-02 0.  1.
         -2   -1    0    0    0  501 -0.00000000000E+00 -0.00000000000E+00 -0.45821051128E+03  0.45821051129E+03  0.25500000000E-02 0. -1.
    -200001    2    1    2    0    0 -0.45728437211E+03  0.56172785443E+03  0.12352105137E+04  0.15596451806E+04  0.61814310369E+03 0.  0.
   -5000001    2    3    3    0    0  0.13319112389E+03  0.74672580624E+02  0.14492940979E+03  0.22368184398E+03  0.75585472960E+02 0.  0.
     200001    1    1    2    0    0  0.45728437211E+03 -0.56172785443E+03  0.46451098809E+03  0.10564973438E+04  0.61300000000E+03 0. -1.
         13    1    4    4    0    0  0.21610936340E+01 -0.99211614616E+01  0.27618388419E+01  0.10523245140E+02  0.10566000000E+00 0.  1.
    -200003    1    4    4    0    0  0.13103003026E+03  0.84593742085E+02  0.14216757095E+03  0.21315859884E+03  0.30000000000E+02 0.  1.
    -200000    1    3    3    0    0 -0.59047549600E+03  0.48705527380E+03  0.10902811039E+04  0.13359633366E+04  0.10100000000E+03 0. -1.
<mgrwt>
<rscale>  0 0.19887555E+04</rscale>
<asrwt>0</asrwt>
<pdfrwt beam="1">  1        2 0.30827600E+00 0.19887555E+04</pdfrwt>
<pdfrwt beam="2">  1       -2 0.65458645E-01 0.19887555E+04</pdfrwt>
<totfact> 0.13344395E+01</totfact>
</mgrwt>
</event>
<event>
 8    2  0.4480234E-052  0.1638449E+04  0.7818608E-02  0.8797269E-01
          2   -1    0    0  501    0  0.00000000000E+00  0.00000000000E+00  0.84422773061E+03  0.84422773061E+03  0.25500000000E-02 0.  1.
         -2   -1    0    0    0  501 -0.00000000000E+00 -0.00000000000E+00 -0.79496192710E+03  0.79496192710E+03  0.25500000000E-02 0. -1.
    -200001    2    1    2    0    0  0.48224886827E+03  0.13029904960E+03  0.23329344252E+03  0.82729250586E+03  0.61680243730E+03 0.  0.
   -5000001    2    3    3    0    0  0.60531444856E+03  0.47671542505E+02  0.15310757053E+03  0.63081549436E+03  0.76210905881E+02 0.  0.
     200001    1    1    2    0    0 -0.48224886827E+03 -0.13029904960E+03 -0.18402763901E+03  0.81189715186E+03  0.61300000000E+03 0. -1.
         13    1    4    4    0    0  0.44735842704E+03  0.51740409606E+02  0.98689190554E+02  0.46102733078E+03  0.10566000000E+00 0.  1.
    -200003    1    4    4    0    0  0.15795602152E+03 -0.40688671010E+01  0.54418379974E+02  0.16978816358E+03  0.30000000000E+02 0. -1.
    -200000    1    3    3    0    0 -0.12306558029E+03  0.82627507099E+02  0.80185871991E+02  0.19647701150E+03  0.10100000000E+03 0.  1.
<mgrwt>
<rscale>  0 0.16384491E+04</rscale>
<asrwt>0</asrwt>
<pdfrwt beam="1">  1        2 0.12060396E+00 0.16384491E+04</pdfrwt>
<pdfrwt beam="2">  1       -2 0.11356599E+00 0.16384491E+04</pdfrwt>
<totfact> 0.20646878E+01</totfact>
</mgrwt>
</event>
<event>
 8    2  0.4480234E-052  0.1268090E+04  0.7818608E-02  0.9055260E-01
          2   -1    0    0  501    0  0.00000000000E+00  0.00000000000E+00  0.12736769343E+04  0.12736769343E+04  0.25500000000E-02 0.  1.
         -2   -1    0    0    0  501 -0.00000000000E+00 -0.00000000000E+00 -0.31563198506E+03  0.31563198507E+03  0.25500000000E-02 0. -1.
    -200001    2    1    2    0    0 -0.69141027967E+02  0.33041220652E+02  0.34841611093E+03  0.72138696177E+03  0.62700331597E+03 0.  0.
   -5000001    2    3    3    0    0 -0.53518766101E+02 -0.26113471070E+03  0.57154028462E+02  0.29498558474E+03  0.11266905865E+03 0.  0.
     200001    1    1    2    0    0  0.69141027967E+02 -0.33041220652E+02  0.60962883833E+03  0.86792195763E+03  0.61300000000E+03 0.  1.
         13    1    4    4    0    0 -0.14665288882E+02 -0.84805204119E+02 -0.31453223360E+02  0.91631379818E+02  0.10566000000E+00 0.  1.
    -200003    1    4    4    0    0 -0.38853477218E+02 -0.17632950658E+03  0.88607251822E+02  0.20335420492E+03  0.30000000000E+02 0.  1.
    -200000    1    3    3    0    0 -0.15622261867E+02  0.29417593135E+03  0.29126208246E+03  0.42640137703E+03  0.10100000000E+03 0.  1.
<mgrwt>
<rscale>  0 0.12680902E+04</rscale>
<asrwt>0</asrwt>
<pdfrwt beam="1">  1        2 0.18195385E+00 0.12680902E+04</pdfrwt>
<pdfrwt beam="2">  1       -2 0.45090283E-01 0.12680902E+04</pdfrwt>
<totfact> 0.88965685E+01</totfact>
</mgrwt>
</event>
<event>
 8    2  0.4480234E-052  0.1460220E+04  0.7818608E-02  0.8911346E-01
         -2   -1    0    0    0  501 -0.00000000000E+00  0.00000000000E+00  0.23379041275E+03  0.23379041276E+03  0.25500000000E-02 0. -1.
          2   -1    0    0  501    0  0.00000000000E+00 -0.00000000000E+00 -0.22800791280E+04  0.22800791280E+04  0.25500000000E-02 0.  1.
    -200001    2    1    2    0    0 -0.36819192919E+03  0.66502420215E+02 -0.12497231523E+04  0.14413614687E+04  0.61296578809E+03 0.  0.
   -5000001    2    3    3    0    0 -0.39177350513E+03  0.19488046929E+03 -0.11821235440E+04  0.12630142757E+04  0.79524277280E+02 0.  0.
     200001    1    1    2    0    0  0.36819192919E+03 -0.66502420215E+02 -0.79656556296E+03  0.10725080721E+04  0.61300000000E+03 0. -1.
         13    1    4    4    0    0 -0.24710882229E+03  0.15479819150E+03 -0.76520636748E+03  0.81888097191E+03  0.10566000000E+00 0.  1.
    -200003    1    4    4    0    0 -0.14466468284E+03  0.40082277784E+02 -0.41691717649E+03  0.44413330376E+03  0.30000000000E+02 0. -1.
    -200000    1    3    3    0    0  0.23581575937E+02 -0.12837804907E+03 -0.67599608314E+02  0.17834719300E+03  0.10100000000E+03 0. -1.
<mgrwt>
<rscale>  0 0.14602200E+04</rscale>
<asrwt>0</asrwt>
<pdfrwt beam="1">  1        2 0.32572558E+00 0.14602200E+04</pdfrwt>
<pdfrwt beam="2">  1       -2 0.33398632E-01 0.14602200E+04</pdfrwt>
<totfact> 0.46750280E+01</totfact>
</mgrwt>
</event>
<event>
 8    2  0.4480234E-052  0.1342498E+04  0.7818608E-02  0.8996527E-01
          2   -1    0    0  501    0  0.00000000000E+00  0.00000000000E+00  0.71537893479E+03  0.71537893480E+03  0.25500000000E-02 0.  1.
         -2   -1    0    0    0  501 -0.00000000000E+00 -0.00000000000E+00 -0.62984119041E+03  0.62984119041E+03  0.25500000000E-02 0. -1.
    -200001    2    1    2    0    0  0.10729969053E+03  0.17371148223E+03  0.22541330860E+03  0.68414291632E+03  0.61282254170E+03 0.  0.
   -5000001    2    3    3    0    0 -0.17071290593E+03  0.27458603118E+02  0.29568659533E+03  0.34677035777E+03  0.54057813819E+02 0.  0.
     200001    1    1    2    0    0 -0.10729969053E+03 -0.17371148223E+03 -0.13987556422E+03  0.66107720889E+03  0.61300000000E+03 0. -1.
         13    1    4    4    0    0 -0.26793518990E+02 -0.11050147748E+02  0.41534125372E+02  0.50646748756E+02  0.10566000000E+00 0.  1.
    -200003    1    4    4    0    0 -0.14391938694E+03  0.38508750866E+02  0.25415246996E+03  0.29612360902E+03  0.30000000000E+02 0.  1.
    -200000    1    3    3    0    0  0.27801259645E+03  0.14625287911E+03 -0.70273286729E+02  0.33737255855E+03  0.10100000000E+03 0. -1.
<mgrwt>
<rscale>  0 0.13424979E+04</rscale>
<asrwt>0</asrwt>
<pdfrwt beam="1">  1        2 0.10219699E+00 0.13424979E+04</pdfrwt>
<pdfrwt beam="2">  1       -2 0.89977312E-01 0.13424979E+04</pdfrwt>
<totfact> 0.45351857E+01</totfact>
</mgrwt>
</event>
<event>
 8    2  0.4480234E-052  0.1705079E+04  0.7818608E-02  0.8758473E-01
         -2   -1    0    0    0  501 -0.00000000000E+00  0.00000000000E+00  0.22007688668E+03  0.22007688670E+03  0.25500000000E-02 0. -1.
          2   -1    0    0  501    0  0.00000000000E+00 -0.00000000000E+00 -0.33025887083E+04  0.33025887083E+04  0.25500000000E-02 0.  1.
    -200001    2    1    2    0    0  0.10145734422E+03 -0.38010794398E+03 -0.62664885966E+03  0.96106306344E+03  0.61333333256E+03 0.  0.
   -5000001    2    3    3    0    0  0.12481275546E+03 -0.34902456419E+03 -0.62717952709E+02  0.38684122517E+03  0.91193319725E+02 0.  0.
     200001    1    1    2    0    0 -0.10145734422E+03  0.38010794398E+03 -0.24558629620E+04  0.25616025316E+04  0.61300000000E+03 0. -1.
         13    1    4    4    0    0  0.10082386654E+03 -0.27859122290E+03 -0.75150604388E+02  0.30565690904E+03  0.10566000000E+00 0.  1.
    -200003    1    4    4    0    0  0.23988888924E+02 -0.70433341299E+02  0.12432651679E+02  0.81184316134E+02  0.30000000000E+02 0. -1.
    -200000    1    3    3    0    0 -0.23355411245E+02 -0.31083379781E+02 -0.56393090695E+03  0.57422183827E+03  0.10100000000E+03 0.  1.
<mgrwt>
<rscale>  0 0.17050788E+04</rscale>
<asrwt>0</asrwt>
<pdfrwt beam="1">  1        2 0.47179836E+00 0.17050788E+04</pdfrwt>
<pdfrwt beam="2">  1       -2 0.31439557E-01 0.17050788E+04</pdfrwt>
<totfact> 0.14217822E+01</totfact>
</mgrwt>
</event>
<event>
 8    2  0.4480234E-052  0.2179284E+04  0.7818608E-02  0.8527100E-01
          2   -1    0    0  501    0  0.00000000000E+00  0.00000000000E+00  0.37317063328E+04  0.37317063328E+04  0.25500000000E-02 0.  1.
         -2   -1    0    0    0  501 -0.00000000000E+00 -0.00000000000E+00 -0.31817074198E+03  0.31817074199E+03  0.25500000000E-02 0. -1.
    -200001    2    1    2    0    0 -0.20259517995E+03  0.83553611657E+02  0.84118574098E+02  0.65741297268E+03  0.61407643594E+03 0.  0.
   -5000001    2    3    3    0    0 -0.32573464664E+03  0.24795268154E+03  0.93637578567E+01  0.41662330307E+03  0.76835567267E+02 0.  0.
     200001    1    1    2    0    0  0.20259517995E+03 -0.83553611657E+02  0.33294170167E+04  0.33924641021E+04  0.61300000000E+03 0.  1.
         13    1    4    4    0    0 -0.16129094545E+03  0.13248071863E+03 -0.26226541683E+02  0.21036575897E+03  0.10566000000E+00 0.  1.
    -200003    1    4    4    0    0 -0.16444370119E+03  0.11547196291E+03  0.35590299540E+02  0.20625754411E+03  0.30000000000E+02 0. -1.
    -200000    1    3    3    0    0  0.12313946669E+03 -0.16439906988E+03  0.74754816241E+02  0.24078966960E+03  0.10100000000E+03 0.  1.
<mgrwt>
<rscale>  0 0.21792841E+04</rscale>
<asrwt>0</asrwt>
<pdfrwt beam="1">  1        2 0.53310089E+00 0.21792841E+04</pdfrwt>
<pdfrwt beam="2">  1       -2 0.45452964E-01 0.21792841E+04</pdfrwt>
<totfact> 0.36382067E+00</totfact>
</mgrwt>
</event>
<event>
 8    2  0.4480234E-052  0.2013974E+04  0.7818608E-02  0.8600115E-01
          2   -1    0    0  501    0  0.00000000000E+00  0.00000000000E+00  0.51691406137E+04  0.51691406137E+04  0.25500000000E-02 0.  1.
         -2   -1    0    0    0  501 -0.00000000000E+00 -0.00000000000E+00 -0.19616853935E+03  0.19616853937E+03  0.25500000000E-02 0. -1.
    -200001    2    1    2    0    0 -0.34498822801E+03  0.32984133429E+03  0.41922395652E+04  0.42638898714E+04  0.61487566207E+03 0.  0.
   -5000001    2    3    3    0    0 -0.73153853333E+02  0.18395880445E+03  0.94134449794E+03  0.99682767757E+03  0.26142614057E+03 0.  0.
     200001    1    1    2    0    0  0.34498822801E+03 -0.32984133429E+03  0.78073250912E+03  0.11014192817E+04  0.61300000000E+03 0. -1.
         13    1    4    4    0    0 -0.16987795930E+03  0.11041846814E+03  0.56656613509E+03  0.60170420953E+03  0.10566000000E+00 0.  1.
    -200003    1    4    4    0    0  0.96724105970E+02  0.73540336313E+02  0.37477836285E+03  0.39512346805E+03  0.30000000000E+02 0.  1.
    -200000    1    3    3    0    0 -0.27183437467E+03  0.14588252984E+03  0.32508950673E+04  0.32670621938E+04  0.10100000000E+03 0.  1.
<mgrwt>
<rscale>  0 0.20139739E+04</rscale>
<asrwt>0</asrwt>
<pdfrwt beam="1">  1        2 0.73844860E+00 0.20139739E+04</pdfrwt>
<pdfrwt beam="2">  1       -2 0.28024079E-01 0.20139739E+04</pdfrwt>
<totfact> 0.65824256E-01</totfact>
</mgrwt>
</event>
<event>
 8    2  0.4480234E-052  0.1276124E+04  0.7818608E-02  0.9048716E-01
          2   -1    0    0  501    0  0.00000000000E+00  0.00000000000E+00  0.65931145880E+03  0.65931145881E+03  0.25500000000E-02 0.  1.
         -2   -1    0    0    0  501 -0.00000000000E+00 -0.00000000000E+00 -0.61749769604E+03  0.61749769604E+03  0.25500000000E-02 0. -1.
    -200001    2    1    2    0    0  0.94900736379E+02 -0.16089083140E+02 -0.12823115523E+03  0.63342025030E+03  0.61279113567E+03 0.  0.
   -5000001    2    3    3    0    0 -0.44829446777E+02 -0.25171508726E+03  0.74284004930E+02  0.27809289701E+03  0.80295588433E+02 0.  0.
     200001    1    1    2    0    0 -0.94900736379E+02  0.16089083140E+02  0.17004491799E+03  0.64338890455E+03  0.61300000000E+03 0.  1.
         13    1    4    4    0    0 -0.21382835406E+02 -0.14807037621E+03  0.75696878202E+02  0.16766660519E+03  0.10566000000E+00 0.  1.
    -200003    1    4    4    0    0 -0.23446611371E+02 -0.10364471105E+03 -0.14128732713E+01  0.11042629182E+03  0.30000000000E+02 0.  1.
    -200000    1    3    3    0    0  0.13973018316E+03  0.23562600412E+03 -0.20251516016E+03  0.35532735329E+03  0.10100000000E+03 0. -1.
<mgrwt>
<rscale>  0 0.12761243E+04</rscale>
<asrwt>0</asrwt>
<pdfrwt beam="1">  1        2 0.94187352E-01 0.12761243E+04</pdfrwt>
<pdfrwt beam="2">  1       -2 0.88213956E-01 0.12761243E+04</pdfrwt>
<totfact> 0.52720883E+01</totfact>
</mgrwt>
</event>
<event>
 8    2  0.4480234E-052  0.1368070E+04  0.7818608E-02  0.8977261E-01
         -2   -1    0    0    0  501 -0.00000000000E+00  0.00000000000E+00  0.37373607495E+03  0.37373607496E+03  0.25500000000E-02 0. -1.
          2   -1    0    0  501    0  0.00000000000E+00 -0.00000000000E+00 -0.12519635743E+04  0.12519635743E+04  0.25500000000E-02 0.  1.
    -200001    2    1    2    0    0  0.51931549736E+02  0.19566444807E+03 -0.17150804190E+03  0.66851479061E+03  0.61360863319E+03 0.  0.
   -5000001    2    3    3    0    0  0.23469155175E+02 -0.32698547600E+02  0.20206015130E+03  0.21827711930E+03  0.72087445536E+02 0.  0.
     200001    1    1    2    0    0 -0.51931549736E+02 -0.19566444807E+03 -0.70671945747E+03  0.95718485867E+03  0.61300000000E+03 0.  1.
         13    1    4    4    0    0  0.58897612503E+01 -0.36600206688E+02  0.15650491098E+03  0.16083551456E+03  0.10566000000E+00 0.  1.
    -200003    1    4    4    0    0  0.17579393925E+02  0.39016590878E+01  0.45555240323E+02  0.57441604742E+02  0.30000000000E+02 0.  1.
    -200000    1    3    3    0    0  0.28462394561E+02  0.22836299567E+03 -0.37356819320E+03  0.45023767131E+03  0.10100000000E+03 0.  1.
<mgrwt>
<rscale>  0 0.13680701E+04</rscale>
<asrwt>0</asrwt>
<pdfrwt beam="1">  1        2 0.17885194E+00 0.13680701E+04</pdfrwt>
<pdfrwt beam="2">  1       -2 0.53390868E-01 0.13680701E+04</pdfrwt>
<totfact> 0.64469222E+01</totfact>
</mgrwt>
</event>
<event>
 8    2  0.4480234E-052  0.1583080E+04  0.7818608E-02  0.8831010E-01
         -2   -1    0    0    0  501 -0.00000000000E+00  0.00000000000E+00  0.45987586017E+03  0.45987586018E+03  0.25500000000E-02 0. -1.
          2   -1    0    0  501    0  0.00000000000E+00 -0.00000000000E+00 -0.13624021967E+04  0.13624021967E+04  0.25500000000E-02 0.  1.
    -200001    2    1    2    0    0  0.19140805564E+03  0.41448760248E+03 -0.68683495021E+03  0.10280937014E+04  0.61383824710E+03 0.  0.
   -5000001    2    3    3    0    0 -0.16693572640E+03  0.23145973225E+03 -0.42399440768E+03  0.53697699610E+03  0.16471761348E+03 0.  0.
     200001    1    1    2    0    0 -0.19140805564E+03 -0.41448760248E+03 -0.21569138630E+03  0.79418435549E+03  0.61300000000E+03 0. -1.
         13    1    4    4    0    0  0.26517452866E+02  0.55292646033E+01 -0.60890836405E+02  0.66644228525E+02  0.10566000000E+00 0.  1.
    -200003    1    4    4    0    0 -0.19345317927E+03  0.22593046764E+03 -0.36310357128E+03  0.47033276757E+03  0.30000000000E+02 0.  1.
    -200000    1    3    3    0    0  0.35834378204E+03  0.18302787024E+03 -0.26284054252E+03  0.49111670528E+03  0.10100000000E+03 0.  1.
<mgrwt>
<rscale>  0 0.15830804E+04</rscale>
<asrwt>0</asrwt>
<pdfrwt beam="1">  1        2 0.19462888E+00 0.15830804E+04</pdfrwt>
<pdfrwt beam="2">  1       -2 0.65696552E-01 0.15830804E+04</pdfrwt>
<totfact> 0.35603536E+01</totfact>
</mgrwt>
</event>
<event>
 8    2  0.4480234E-052  0.1267099E+04  0.7818608E-02  0.9056070E-01
         -2   -1    0    0    0  501 -0.00000000000E+00  0.00000000000E+00  0.35665356230E+03  0.35665356231E+03  0.25500000000E-02 0. -1.
          2   -1    0    0  501    0  0.00000000000E+00 -0.00000000000E+00 -0.11254202285E+04  0.11254202285E+04  0.25500000000E-02 0.  1.
    -200001    2    1    2    0    0 -0.10824750510E+03 -0.89149306543E+02 -0.29170132482E+03  0.69275417167E+03  0.61249780264E+03 0.  0.
   -5000001    2    3    3    0    0 -0.26029349562E+03  0.15784965917E+03 -0.19502598957E+03  0.37077033240E+03  0.82257425305E+02 0.  0.
     200001    1    1    2    0    0  0.10824750510E+03  0.89149306543E+02 -0.47706534137E+03  0.78931961914E+03  0.61300000000E+03 0.  1.
         13    1    4    4    0    0 -0.33176205240E+02  0.54116454100E+02 -0.46712039055E+02  0.78811654945E+02  0.10566000000E+00 0.  1.
    -200003    1    4    4    0    0 -0.22711729038E+03  0.10373320507E+03 -0.14831395051E+03  0.29195867746E+03  0.30000000000E+02 0.  1.
    -200000    1    3    3    0    0  0.15204599053E+03 -0.24699896572E+03 -0.96675335255E+02  0.32198383926E+03  0.10100000000E+03 0. -1.
<mgrwt>
<rscale>  0 0.12670993E+04</rscale>
<asrwt>0</asrwt>
<pdfrwt beam="1">  1        2 0.16077432E+00 0.12670993E+04</pdfrwt>
<pdfrwt beam="2">  1       -2 0.50950509E-01 0.12670993E+04</pdfrwt>
<totfact> 0.84456170E+01</totfact>
</mgrwt>
</event>
<event>
 8    2  0.4480234E-052  0.1933741E+04  0.7818608E-02  0.8638241E-01
         -2   -1    0    0    0  501 -0.00000000000E+00  0.00000000000E+00  0.64545757422E+03  0.64545757423E+03  0.25500000000E-02 0. -1.
          2   -1    0    0  501    0  0.00000000000E+00 -0.00000000000E+00 -0.14483341811E+04  0.14483341811E+04  0.25500000000E-02 0.  1.
    -200001    2    1    2    0    0  0.23214189135E+03 -0.34480677029E+03 -0.10734743948E+04  0.13052654530E+04  0.61529591257E+03 0.  0.
   -5000001    2    3    3    0    0 -0.48119477115E+01 -0.44210407854E+03 -0.69725418414E+03  0.83905033643E+03  0.14954229722E+03 0.  0.
     200001    1    1    2    0    0 -0.23214189135E+03  0.34480677029E+03  0.27059778794E+03  0.78852630228E+03  0.61300000000E+03 0. -1.
         13    1    4    4    0    0  0.31720061670E+02 -0.29299099813E+03 -0.55120650433E+03  0.62504280563E+03  0.10566000000E+00 0.  1.
    -200003    1    4    4    0    0 -0.36532009381E+02 -0.14911308041E+03 -0.14604767982E+03  0.21400753080E+03  0.30000000000E+02 0.  1.
    -200000    1    3    3    0    0  0.23695383907E+03  0.97297308249E+02 -0.37622021065E+03  0.46621511660E+03  0.10100000000E+03 0. -1.
<mgrwt>
<rscale>  0 0.19337407E+04</rscale>
<asrwt>0</asrwt>
<pdfrwt beam="1">  1        2 0.20690488E+00 0.19337407E+04</pdfrwt>
<pdfrwt beam="2">  1       -2 0.92208226E-01 0.19337407E+04</pdfrwt>
<totfact> 0.14594988E+01</totfact>
</mgrwt>
</event>
<event>
 8    2  0.4480234E-052  0.1394808E+04  0.7818608E-02  0.8957586E-01
          2   -1    0    0  501    0  0.00000000000E+00  0.00000000000E+00  0.97074981564E+03  0.97074981564E+03  0.25500000000E-02 0.  1.
         -2   -1    0    0    0  501 -0.00000000000E+00 -0.00000000000E+00 -0.50102734160E+03  0.50102734161E+03  0.25500000000E-02 0. -1.
    -200001    2    1    2    0    0 -0.51460537551E+01 -0.31268586416E+03  0.11588034922E+03  0.69797344777E+03  0.61313925575E+03 0.  0.
   -5000001    2    3    3    0    0 -0.93001745318E+02  0.11350518165E+03 -0.13283756391E+02  0.23295538764E+03  0.18044113598E+03 0.  0.
     200001    1    1    2    0    0  0.51460537551E+01  0.31268586416E+03  0.35384212482E+03  0.77380370948E+03  0.61300000000E+03 0.  1.
         13    1    4    4    0    0 -0.48932344502E+02  0.79873810838E+02 -0.92551048166E+02  0.13168108322E+03  0.10566000000E+00 0.  1.
    -200003    1    4    4    0    0 -0.44069400816E+02  0.33631370809E+02  0.79267291776E+02  0.10127430442E+03  0.30000000000E+02 0.  1.
    -200000    1    3    3    0    0  0.87855691563E+02 -0.42619104581E+03  0.12916410561E+03  0.46501806013E+03  0.10100000000E+03 0. -1.
<mgrwt>
<rscale>  0 0.13948078E+04</rscale>
<asrwt>0</asrwt>
<pdfrwt beam="1">  1        2 0.13867855E+00 0.13948078E+04</pdfrwt>
<pdfrwt beam="2">  1       -2 0.71575334E-01 0.13948078E+04</pdfrwt>
<totfact> 0.50572966E+01</totfact>
</mgrwt>
</event>
<event>
 8    2  0.4480234E-052  0.3455750E+04  0.7818608E-02  0.8124357E-01
         -2   -1    0    0    0  501 -0.00000000000E+00  0.00000000000E+00  0.94670858180E+03  0.94670858180E+03  0.25500000000E-02 0. -1.
          2   -1    0    0  501    0  0.00000000000E+00 -0.00000000000E+00 -0.31536133135E+04  0.31536133135E+04  0.25500000000E-02 0.  1.
    -200001    2    1    2    0    0  0.12245718862E+03  0.15973812884E+04 -0.85640323559E+03  0.19171485090E+04  0.61270642232E+03 0.  0.
   -5000001    2    3    3    0    0  0.46922057453E+02  0.33209944027E+03  0.61778311132E+02  0.34874101601E+03  0.72883597735E+02 0.  0.
     200001    1    1    2    0    0 -0.12245718862E+03 -0.15973812884E+04 -0.13505014961E+04  0.21831733863E+04  0.61300000000E+03 0.  1.
         13    1    4    4    0    0 -0.12194935306E+02  0.25160247183E+02 -0.29735021816E+01  0.28117741103E+02  0.10566000000E+00 0.  1.
    -200003    1    4    4    0    0  0.59116992760E+02  0.30693919308E+03  0.64751813313E+02  0.32062327490E+03  0.30000000000E+02 0.  1.
    -200000    1    3    3    0    0  0.75535131167E+02  0.12652818482E+04 -0.91818154672E+03  0.15684074930E+04  0.10100000000E+03 0. -1.
<mgrwt>
<rscale>  0 0.34557504E+04</rscale>
<asrwt>0</asrwt>
<pdfrwt beam="1">  1        2 0.45051618E+00 0.34557504E+04</pdfrwt>
<pdfrwt beam="2">  1       -2 0.13524408E+00 0.34557504E+04</pdfrwt>
<totfact> 0.62997295E-01</totfact>
</mgrwt>
</event>
<event>
 8    2  0.4480234E-052  0.1298712E+04  0.7818608E-02  0.9030587E-01
         -2   -1    0    0    0  501 -0.00000000000E+00  0.00000000000E+00  0.12500119743E+03  0.12500119746E+03  0.25500000000E-02 0.  1.
          2   -1    0    0  501    0  0.00000000000E+00 -0.00000000000E+00 -0.33732749717E+04  0.33732749717E+04  0.25500000000E-02 0. -1.
    -200001    2    1    2    0    0  0.15802454722E+03  0.24555351046E+02 -0.20099587395E+04  0.21073168426E+04  0.61259727216E+03 0.  0.
   -5000001    2    3    3    0    0  0.24337684412E+03 -0.58275916542E+02 -0.33647372145E+03  0.42657321578E+03  0.78241756705E+02 0.  0.
     200001    1    1    2    0    0 -0.15802454722E+03 -0.24555351046E+02 -0.12383150347E+04  0.13909593265E+04  0.61300000000E+03 0.  1.
         13    1    4    4    0    0  0.13314393382E+03 -0.17099826850E+01 -0.14857051747E+03  0.19950799728E+03  0.10566000000E+00 0.  1.
    -200003    1    4    4    0    0  0.11023291030E+03 -0.56565933857E+02 -0.18790320398E+03  0.22706521850E+03  0.30000000000E+02 0.  1.
    -200000    1    3    3    0    0 -0.85352296904E+02  0.82831267588E+02 -0.16734850181E+04  0.16807436268E+04  0.10100000000E+03 0. -1.
<mgrwt>
<rscale>  0 0.12987123E+04</rscale>
<asrwt>0</asrwt>
<pdfrwt beam="1">  1        2 0.48189637E+00 0.12987123E+04</pdfrwt>
<pdfrwt beam="2">  1       -2 0.17857316E-01 0.12987123E+04</pdfrwt>
<totfact> 0.37181917E+01</totfact>
</mgrwt>
</event>
<event>
 8    2  0.4480234E-052  0.1674970E+04  0.7818608E-02  0.8775770E-01
          2   -1    0    0  501    0  0.00000000000E+00  0.00000000000E+00  0.34567560755E+04  0.34567560755E+04  0.25500000000E-02 0.  1.
         -2   -1    0    0    0  501 -0.00000000000E+00 -0.00000000000E+00 -0.20290142252E+03  0.20290142253E+03  0.25500000000E-02 0. -1.
    -200001    2    1    2    0    0  0.14983701959E+03 -0.51362005741E+03  0.11920666868E+04  0.14431297375E+04  0.61265304831E+03 0.  0.
   -5000001    2    3    3    0    0 -0.16345148934E+02 -0.51235477244E+03  0.50021838818E+03  0.72446905093E+03  0.10891461402E+03 0.  0.
     200001    1    1    2    0    0 -0.14983701959E+03  0.51362005741E+03  0.20617879661E+04  0.22165277605E+04  0.61300000000E+03 0.  1.
         13    1    4    4    0    0  0.40244366473E+02 -0.28557499338E+03  0.27302195458E+03  0.39713182286E+03  0.10566000000E+00 0.  1.
    -200003    1    4    4    0    0 -0.56589515406E+02 -0.22677977906E+03  0.22719643359E+03  0.32733722807E+03  0.30000000000E+02 0.  1.
    -200000    1    3    3    0    0  0.16618216852E+03 -0.12652849681E+01  0.69184829862E+03  0.71866068655E+03  0.10100000000E+03 0.  1.
<mgrwt>
<rscale>  0 0.16749695E+04</rscale>
<asrwt>0</asrwt>
<pdfrwt beam="1">  1        2 0.49382231E+00 0.16749695E+04</pdfrwt>
<pdfrwt beam="2">  1       -2 0.28985917E-01 0.16749695E+04</pdfrwt>
<totfact> 0.13434925E+01</totfact>
</mgrwt>
</event>
<event>
 8    2  0.4480234E-052  0.1662636E+04  0.7818608E-02  0.8782966E-01
         -2   -1    0    0    0  501 -0.00000000000E+00  0.00000000000E+00  0.34910078651E+03  0.34910078652E+03  0.25500000000E-02 0. -1.
          2   -1    0    0  501    0  0.00000000000E+00 -0.00000000000E+00 -0.19796282568E+04  0.19796282568E+04  0.25500000000E-02 0.  1.
    -200001    2    1    2    0    0 -0.46575742776E+03  0.13341482437E+03 -0.12123602932E+04  0.14425223604E+04  0.61345234767E+03 0.  0.
   -5000001    2    3    3    0    0 -0.69666785336E+02  0.17239590687E+03 -0.69595239213E+02  0.22822408963E+03  0.11255633292E+03 0.  0.
     200001    1    1    2    0    0  0.46575742776E+03 -0.13341482437E+03 -0.41816717714E+03  0.88620668296E+03  0.61300000000E+03 0. -1.
         13    1    4    4    0    0 -0.79009056165E+02  0.56205488893E+02 -0.32892515541E+02  0.10238855737E+03  0.10566000000E+00 0.  1.
    -200003    1    4    4    0    0  0.93422708289E+01  0.11619041797E+03 -0.36702723672E+02  0.12583553226E+03  0.30000000000E+02 0.  1.
    -200000    1    3    3    0    0 -0.39609064242E+03 -0.38981082496E+02 -0.11427650539E+04  0.12142982707E+04  0.10100000000E+03 0.  1.
<mgrwt>
<rscale>  0 0.16626362E+04</rscale>
<asrwt>0</asrwt>
<pdfrwt beam="1">  1        2 0.28280403E+00 0.16626362E+04</pdfrwt>
<pdfrwt beam="2">  1       -2 0.49871542E-01 0.16626362E+04</pdfrwt>
<totfact> 0.29903654E+01</totfact>
</mgrwt>
</event>
<event>
 8    2  0.4480234E-052  0.1279844E+04  0.7818608E-02  0.9045704E-01
         -2   -1    0    0    0  501 -0.00000000000E+00  0.00000000000E+00  0.31591604756E+03  0.31591604757E+03  0.25500000000E-02 0. -1.
          2   -1    0    0  501    0  0.00000000000E+00 -0.00000000000E+00 -0.12962310201E+04  0.12962310201E+04  0.25500000000E-02 0.  1.
    -200001    2    1    2    0    0 -0.99850678241E+02 -0.15185882082E+03 -0.52139174741E+03  0.82512052049E+03  0.61314212027E+03 0.  0.
   -5000001    2    3    3    0    0 -0.25609516633E+03 -0.23108682363E+03 -0.12274658403E+03  0.37812121090E+03  0.94462013332E+02 0.  0.
     200001    1    1    2    0    0  0.99850678241E+02  0.15185882082E+03 -0.45892322510E+03  0.78702654717E+03  0.61300000000E+03 0. -1.
         13    1    4    4    0    0 -0.83584576447E+02 -0.27251461564E+02 -0.18173292884E+02  0.89773622604E+02  0.10566000000E+00 0.  1.
    -200003    1    4    4    0    0 -0.17251058988E+03 -0.20383536207E+03 -0.10457329115E+03  0.28834758829E+03  0.30000000000E+02 0.  1.
    -200000    1    3    3    0    0  0.15624448809E+03  0.79228002817E+02 -0.39864516338E+03  0.44699930959E+03  0.10100000000E+03 0.  1.
<mgrwt>
<rscale>  0 0.12798440E+04</rscale>
<asrwt>0</asrwt>
<pdfrwt beam="1">  1        2 0.18517586E+00 0.12798440E+04</pdfrwt>
<pdfrwt beam="2">  1       -2 0.45130865E-01 0.12798440E+04</pdfrwt>
<totfact> 0.86208519E+01</totfact>
</mgrwt>
</event>
<event>
 8    2  0.4480234E-052  0.1276016E+04  0.7818608E-02  0.9048804E-01
          2   -1    0    0  501    0  0.00000000000E+00  0.00000000000E+00  0.17061871516E+04  0.17061871516E+04  0.25500000000E-02 0.  1.
         -2   -1    0    0    0  501 -0.00000000000E+00 -0.00000000000E+00 -0.23857545031E+03  0.23857545032E+03  0.25500000000E-02 0. -1.
    -200001    2    1    2    0    0 -0.16835652990E+03  0.41681576449E+02  0.77816585375E+03  0.10060476017E+04  0.61360280794E+03 0.  0.
   -5000001    2    3    3    0    0 -0.10384575852E+03  0.81900340790E+02 -0.59110072141E+02  0.15928248388E+03  0.66221610223E+02 0.  0.
     200001    1    1    2    0    0  0.16835652990E+03 -0.41681576449E+02  0.68944584751E+03  0.93871500022E+03  0.61300000000E+03 0.  1.
         13    1    4    4    0    0 -0.84500813369E+02  0.68123706002E+02 -0.34945360486E+02  0.11402813759E+03  0.10566000000E+00 0.  1.
    -200003    1    4    4    0    0 -0.19344945147E+02  0.13776634787E+02 -0.24164711655E+02  0.45254346290E+02  0.30000000000E+02 0.  1.
    -200000    1    3    3    0    0 -0.64510771387E+02 -0.40218764341E+02  0.83727592589E+03  0.84676511779E+03  0.10100000000E+03 0.  1.
<mgrwt>
<rscale>  0 0.12760163E+04</rscale>
<asrwt>0</asrwt>
<pdfrwt beam="1">  1        2 0.24374103E+00 0.12760163E+04</pdfrwt>
<pdfrwt beam="2">  1       -2 0.34082206E-01 0.12760163E+04</pdfrwt>
<totfact> 0.90078366E+01</totfact>
</mgrwt>
</event>
<event>
 8    2  0.4480234E-052  0.1390470E+04  0.7818608E-02  0.8960746E-01
         -2   -1    0    0    0  501 -0.00000000000E+00  0.00000000000E+00  0.13454864883E+03  0.13454864886E+03  0.25500000000E-02 0. -1.
          2   -1    0    0  501    0  0.00000000000E+00 -0.00000000000E+00 -0.35923942835E+04  0.35923942835E+04  0.25500000000E-02 0.  1.
    -200001    2    1    2    0    0  0.10157657913E+03  0.25621363742E+03 -0.22052607171E+04  0.23054292303E+04  0.61307901294E+03 0.  0.
   -5000001    2    3    3    0    0  0.11581444803E+03  0.40094757865E+03 -0.11478504103E+04  0.12332966883E+04  0.17113798465E+03 0.  0.
     200001    1    1    2    0    0 -0.10157657913E+03 -0.25621363742E+03 -0.12525849176E+04  0.14215137021E+04  0.61300000000E+03 0. -1.
         13    1    4    4    0    0 -0.18841041572E+02  0.13644814920E+03 -0.22900717947E+03  0.26724030699E+03  0.10566000000E+00 0.  1.
    -200003    1    4    4    0    0  0.13465548960E+03  0.26449942945E+03 -0.91884323084E+03  0.96605638133E+03  0.30000000000E+02 0.  1.
    -200000    1    3    3    0    0 -0.14237868900E+02 -0.14473394123E+03 -0.10574103068E+04  0.10721325420E+04  0.10100000000E+03 0. -1.
<mgrwt>
<rscale>  0 0.13904701E+04</rscale>
<asrwt>0</asrwt>
<pdfrwt beam="1">  1        2 0.51319912E+00 0.13904701E+04</pdfrwt>
<pdfrwt beam="2">  1       -2 0.19221238E-01 0.13904701E+04</pdfrwt>
<totfact> 0.23900305E+01</totfact>
</mgrwt>
</event>
<event>
 8    2  0.4480234E-052  0.1978813E+04  0.7818608E-02  0.8616591E-01
          2   -1    0    0  501    0  0.00000000000E+00  0.00000000000E+00  0.20734515533E+04  0.20734515533E+04  0.25500000000E-02 0.  1.
         -2   -1    0    0    0  501 -0.00000000000E+00 -0.00000000000E+00 -0.47212353741E+03  0.47212353742E+03  0.25500000000E-02 0. -1.
    -200001    2    1    2    0    0  0.19738887017E+03  0.22703891533E+03 -0.12023666622E+03  0.69353216741E+03  0.61320549263E+03 0.  0.
   -5000001    2    3    3    0    0 -0.60447975153E+02 -0.12404260483E+03 -0.17196746687E+03  0.24340424300E+03  0.10311299791E+03 0.  0.
     200001    1    1    2    0    0 -0.19738887017E+03 -0.22703891533E+03  0.17215646821E+04  0.18520429233E+04  0.61300000000E+03 0.  1.
         13    1    4    4    0    0 -0.17694320422E+02  0.72353649919E+01  0.20799368932E+01  0.19229580944E+02  0.10566000000E+00 0.  1.
    -200003    1    4    4    0    0 -0.42753654731E+02 -0.13127796982E+03 -0.17404740376E+03  0.22417466206E+03  0.30000000000E+02 0.  1.
    -200000    1    3    3    0    0  0.25783684532E+03  0.35108152015E+03  0.51730800650E+02  0.45012792441E+03  0.10100000000E+03 0.  1.
<mgrwt>
<rscale>  0 0.19788131E+04</rscale>
<asrwt>0</asrwt>
<pdfrwt beam="1">  1        2 0.29620737E+00 0.19788131E+04</pdfrwt>
<pdfrwt beam="2">  1       -2 0.67446219E-01 0.19788131E+04</pdfrwt>
<totfact> 0.13841752E+01</totfact>
</mgrwt>
</event>
<event>
 8    2  0.4480234E-052  0.1342707E+04  0.7818608E-02  0.8996367E-01
          2   -1    0    0  501    0  0.00000000000E+00  0.00000000000E+00  0.17201881900E+04  0.17201881900E+04  0.25500000000E-02 0.  1.
         -2   -1    0    0    0  501 -0.00000000000E+00 -0.00000000000E+00 -0.26201524994E+03  0.26201524995E+03  0.25500000000E-02 0. -1.
    -200001    2    1    2    0    0  0.23935333827E+03 -0.11344968070E+03  0.83752820370E+03  0.10705402678E+04  0.61191676108E+03 0.  0.
   -5000001    2    3    3    0    0  0.38931943558E+03 -0.16733361677E+02  0.74474477796E+03  0.84547663063E+03  0.91303451826E+02 0.  0.
     200001    1    1    2    0    0 -0.23935333827E+03  0.11344968070E+03  0.62064473635E+03  0.91166317210E+03  0.61300000000E+03 0. -1.
         13    1    4    4    0    0  0.23125242509E+03  0.26691741816E+02  0.40746383295E+03  0.46927275599E+03  0.10566000000E+00 0.  1.
    -200003    1    4    4    0    0  0.15806701049E+03 -0.43425103493E+02  0.33728094501E+03  0.37620387463E+03  0.30000000000E+02 0.  1.
    -200000    1    3    3    0    0 -0.14996609731E+03 -0.96716319024E+02  0.92783425739E+02  0.22506363722E+03  0.10100000000E+03 0. -1.
<mgrwt>
<rscale>  0 0.13427070E+04</rscale>
<asrwt>0</asrwt>
<pdfrwt beam="1">  1        2 0.24574118E+00 0.13427070E+04</pdfrwt>
<pdfrwt beam="2">  1       -2 0.37430749E-01 0.13427070E+04</pdfrwt>
<totfact> 0.73669500E+01</totfact>
</mgrwt>
</event>
<event>
 8    2  0.4480234E-052  0.1983756E+04  0.7818608E-02  0.8614253E-01
          2   -1    0    0  501    0  0.00000000000E+00  0.00000000000E+00  0.24821605804E+04  0.24821605804E+04  0.25500000000E-02 0.  1.
         -2   -1    0    0    0  501 -0.00000000000E+00 -0.00000000000E+00 -0.39635696654E+03  0.39635696655E+03  0.25500000000E-02 0. -1.
    -200001    2    1    2    0    0 -0.28452617069E+03  0.71653683950E+03  0.87251281285E+03  0.13157559682E+04  0.61282540344E+03 0.  0.
   -5000001    2    3    3    0    0 -0.13793838354E+03  0.73774288876E+03  0.84637947820E+03  0.11345885676E+04  0.87415267629E+02 0.  0.
     200001    1    1    2    0    0  0.28452617069E+03 -0.71653683950E+03  0.12132908010E+04  0.15627615787E+04  0.61300000000E+03 0. -1.
         13    1    4    4    0    0 -0.23451937926E+02  0.20489171264E+03  0.18491326005E+03  0.27699013016E+03  0.10566000000E+00 0.  1.
    -200003    1    4    4    0    0 -0.11448644562E+03  0.53285117612E+03  0.66146621815E+03  0.85759843743E+03  0.30000000000E+02 0.  1.
    -200000    1    3    3    0    0 -0.14658778715E+03 -0.21206049261E+02  0.26133334655E+02  0.18116740062E+03  0.10100000000E+03 0.  1.
<mgrwt>
<rscale>  0 0.19837557E+04</rscale>
<asrwt>0</asrwt>
<pdfrwt beam="1">  1        2 0.35459438E+00 0.19837557E+04</pdfrwt>
<pdfrwt beam="2">  1       -2 0.56622422E-01 0.19837557E+04</pdfrwt>
<totfact> 0.12306455E+01</totfact>
</mgrwt>
</event>
<event>
 8    2  0.4480234E-052  0.1821877E+04  0.7818608E-02  0.8694751E-01
          2   -1    0    0  501    0  0.00000000000E+00  0.00000000000E+00  0.18388250422E+04  0.18388250422E+04  0.25500000000E-02 0.  1.
         -2   -1    0    0    0  501 -0.00000000000E+00 -0.00000000000E+00 -0.45127116065E+03  0.45127116066E+03  0.25500000000E-02 0. -1.
    -200001    2    1    2    0    0  0.29339195518E+03  0.59847217947E+03  0.56712874360E+03  0.10681656828E+04  0.61245010007E+03 0.  0.
   -5000001    2    3    3    0    0  0.43232456750E+03  0.56854966473E+03  0.52134827493E+03  0.88790343224E+03  0.80095120206E+02 0.  0.
     200001    1    1    2    0    0 -0.29339195518E+03 -0.59847217947E+03  0.82042513798E+03  0.12219305201E+04  0.61300000000E+03 0.  1.
         13    1    4    4    0    0  0.28274029246E+03  0.34103695572E+03  0.35234311702E+03  0.56603353383E+03  0.10566000000E+00 0.  1.
    -200003    1    4    4    0    0  0.14958427504E+03  0.22751270901E+03  0.16900515791E+03  0.32186989841E+03  0.30000000000E+02 0.  1.
    -200000    1    3    3    0    0 -0.13893261233E+03  0.29922514741E+02  0.45780468666E+02  0.18026225053E+03  0.10100000000E+03 0.  1.
<mgrwt>
<rscale>  0 0.18218767E+04</rscale>
<asrwt>0</asrwt>
<pdfrwt beam="1">  1        2 0.26268930E+00 0.18218767E+04</pdfrwt>
<pdfrwt beam="2">  1       -2 0.64467308E-01 0.18218767E+04</pdfrwt>
<totfact> 0.20408622E+01</totfact>
</mgrwt>
</event>
<event>
 8    2  0.4480234E-052  0.1377613E+04  0.7818608E-02  0.8970185E-01
         -2   -1    0    0    0  501 -0.00000000000E+00  0.00000000000E+00  0.21852310510E+03  0.21852310512E+03  0.25500000000E-02 0. -1.
          2   -1    0    0  501    0  0.00000000000E+00 -0.00000000000E+00 -0.21711857614E+04  0.21711857614E+04  0.25500000000E-02 0.  1.
    -200001    2    1    2    0    0  0.19290297262E+03 -0.23794920386E+03 -0.86146016336E+03  0.11011735503E+04  0.61370855823E+03 0.  0.
   -5000001    2    3    3    0    0  0.28405273766E+03 -0.36479460226E+01 -0.74546421313E+03  0.80645093573E+03  0.11809722015E+03 0.  0.
     200001    1    1    2    0    0 -0.19290297262E+03  0.23794920386E+03 -0.10912024930E+04  0.12885353162E+04  0.61300000000E+03 0. -1.
         13    1    4    4    0    0  0.19962604231E+03 -0.20337807269E+02 -0.61796458192E+03  0.64972641846E+03  0.10566000000E+00 0.  1.
    -200003    1    4    4    0    0  0.84426695351E+02  0.16689861246E+02 -0.12749963120E+03  0.15672451727E+03  0.30000000000E+02 0.  1.
    -200000    1    3    3    0    0 -0.91149765038E+02 -0.23430125784E+03 -0.11599595024E+03  0.29472261461E+03  0.10100000000E+03 0.  1.
<mgrwt>
<rscale>  0 0.13776128E+04</rscale>
<asrwt>0</asrwt>
<pdfrwt beam="1">  1        2 0.31016938E+00 0.13776128E+04</pdfrwt>
<pdfrwt beam="2">  1       -2 0.31217588E-01 0.13776128E+04</pdfrwt>
<totfact> 0.60824553E+01</totfact>
</mgrwt>
</event>
<event>
 8    2  0.4480234E-052  0.1442447E+04  0.7818608E-02  0.8923654E-01
         -2   -1    0    0    0  501 -0.00000000000E+00  0.00000000000E+00  0.32621394961E+03  0.32621394962E+03  0.25500000000E-02 0. -1.
          2   -1    0    0  501    0  0.00000000000E+00 -0.00000000000E+00 -0.15945463464E+04  0.15945463464E+04  0.25500000000E-02 0.  1.
    -200001    2    1    2    0    0  0.24450177045E+03 -0.43605862139E+01 -0.10215987190E+04  0.12161706010E+04  0.61286773267E+03 0.  0.
   -5000001    2    3    3    0    0 -0.56702858671E+02 -0.95622870417E+02 -0.81427703165E+03  0.82599587715E+03  0.82844174656E+02 0.  0.
     200001    1    1    2    0    0 -0.24450177045E+03  0.43605862139E+01 -0.24673367778E+03  0.70458969494E+03  0.61300000000E+03 0. -1.
         13    1    4    4    0    0 -0.16248983670E+02 -0.72409515581E+02 -0.60349988045E+03  0.60804546234E+03  0.10566000000E+00 0.  1.
    -200003    1    4    4    0    0 -0.40453875002E+02 -0.23213354836E+02 -0.21077715121E+03  0.21795041481E+03  0.30000000000E+02 0.  1.
    -200000    1    3    3    0    0  0.30120462913E+03  0.91262284203E+02 -0.20732168733E+03  0.39017472389E+03  0.10100000000E+03 0. -1.
<mgrwt>
<rscale>  0 0.14424469E+04</rscale>
<asrwt>0</asrwt>
<pdfrwt beam="1">  1        2 0.22779233E+00 0.14424469E+04</pdfrwt>
<pdfrwt beam="2">  1       -2 0.46601993E-01 0.14424469E+04</pdfrwt>
<totfact> 0.55224493E+01</totfact>
</mgrwt>
</event>
<event>
 8    2  0.4480234E-052  0.1475958E+04  0.7818608E-02  0.8900600E-01
          2   -1    0    0  501    0  0.00000000000E+00  0.00000000000E+00  0.20417164652E+04  0.20417164652E+04  0.25500000000E-02 0.  1.
         -2   -1    0    0    0  501 -0.00000000000E+00 -0.00000000000E+00 -0.26674287035E+03  0.26674287036E+03  0.25500000000E-02 0. -1.
    -200001    2    1    2    0    0 -0.27464877314E+03  0.24571587398E+03  0.11758989377E+04  0.13754707589E+04  0.61104276252E+03 0.  0.
   -5000001    2    3    3    0    0 -0.35656610334E+03  0.17366098620E+03  0.34595781434E+03  0.53231856382E+03  0.79866888681E+02 0.  0.
     200001    1    1    2    0    0  0.27464877314E+03 -0.24571587398E+03  0.59907465713E+03  0.93298857663E+03  0.61300000000E+03 0. -1.
         13    1    4    4    0    0 -0.13050918104E+03  0.28892147404E+02  0.99108899463E+02  0.16640308781E+03  0.10566000000E+00 0.  1.
    -200003    1    4    4    0    0 -0.22605692230E+03  0.14476883880E+03  0.24684891488E+03  0.36591547601E+03  0.30000000000E+02 0.  1.
    -200000    1    3    3    0    0  0.81917330204E+02  0.72054887773E+02  0.82994112334E+03  0.84315219507E+03  0.10100000000E+03 0.  1.
<mgrwt>
<rscale>  0 0.14759584E+04</rscale>
<asrwt>0</asrwt>
<pdfrwt beam="1">  1        2 0.29167378E+00 0.14759584E+04</pdfrwt>
<pdfrwt beam="2">  1       -2 0.38106124E-01 0.14759584E+04</pdfrwt>
<totfact> 0.48115310E+01</totfact>
</mgrwt>
</event>
<event>
 8    2  0.4480234E-052  0.1381905E+04  0.7818608E-02  0.8967022E-01
          2   -1    0    0  501    0  0.00000000000E+00  0.00000000000E+00  0.22449751444E+04  0.22449751444E+04  0.25500000000E-02 0.  1.
         -2   -1    0    0    0  501 -0.00000000000E+00 -0.00000000000E+00 -0.21265956025E+03  0.21265956027E+03  0.25500000000E-02 0. -1.
    -200001    2    1    2    0    0 -0.15187273335E+03  0.24711959192E+03  0.77542414362E+03  0.10294615663E+04  0.61186198948E+03 0.  0.
   -5000001    2    3    3    0    0  0.20735728954E+03  0.58162784304E+02  0.14510533683E+03  0.27298705737E+03  0.84180874958E+02 0.  0.
     200001    1    1    2    0    0  0.15187273335E+03 -0.24711959192E+03  0.12568914405E+04  0.14281731383E+04  0.61300000000E+03 0.  1.
         13    1    4    4    0    0  0.98478855447E+02 -0.51178619285E+01  0.85293611834E+02  0.13038132100E+03  0.10566000000E+00 0.  1.
    -200003    1    4    4    0    0  0.10887843410E+03  0.63280646233E+02  0.59811724992E+02  0.14260573637E+03  0.30000000000E+02 0.  1.
    -200000    1    3    3    0    0 -0.35923002289E+03  0.18895680761E+03  0.63031880680E+03  0.75647450895E+03  0.10100000000E+03 0.  1.
<mgrwt>
<rscale>  0 0.13819051E+04</rscale>
<asrwt>0</asrwt>
<pdfrwt beam="1">  1        2 0.32071072E+00 0.13819051E+04</pdfrwt>
<pdfrwt beam="2">  1       -2 0.30379939E-01 0.13819051E+04</pdfrwt>
<totfact> 0.58614754E+01</totfact>
</mgrwt>
</event>
<event>
 8    2  0.4480234E-052  0.1592469E+04  0.7818608E-02  0.8825188E-01
         -2   -1    0    0    0  501 -0.00000000000E+00  0.00000000000E+00  0.39582817700E+03  0.39582817701E+03  0.25500000000E-02 0. -1.
          2   -1    0    0  501    0  0.00000000000E+00 -0.00000000000E+00 -0.16016776943E+04  0.16016776943E+04  0.25500000000E-02 0.  1.
    -200001    2    1    2    0    0  0.21018634584E+03  0.41416481558E+03 -0.34548569065E+03  0.84351033031E+03  0.61354585848E+03 0.  0.
   -5000001    2    3    3    0    0  0.32291653095E+03  0.44770782112E+02 -0.27753277419E+03  0.43856756219E+03  0.95066066301E+02 0.  0.
     200001    1    1    2    0    0 -0.21018634584E+03 -0.41416481558E+03 -0.86036382668E+03  0.11539955410E+04  0.61300000000E+03 0. -1.
         13    1    4    4    0    0  0.10239632694E+03  0.55338301474E+02 -0.10528984200E+03  0.15694998366E+03  0.10566000000E+00 0.  1.
    -200003    1    4    4    0    0  0.22052020401E+03 -0.10567519362E+02 -0.17224293220E+03  0.28161757853E+03  0.30000000000E+02 0.  1.
    -200000    1    3    3    0    0 -0.11273018511E+03  0.36939403347E+03 -0.67952916454E+02  0.40494276812E+03  0.10100000000E+03 0. -1.
<mgrwt>
<rscale>  0 0.15924687E+04</rscale>
<asrwt>0</asrwt>
<pdfrwt beam="1">  1        2 0.22881110E+00 0.15924687E+04</pdfrwt>
<pdfrwt beam="2">  1       -2 0.56546883E-01 0.15924687E+04</pdfrwt>
<totfact> 0.36421962E+01</totfact>
</mgrwt>
</event>
<event>
 8    2  0.4480234E-052  0.1315025E+04  0.7818608E-02  0.9017734E-01
          2   -1    0    0  501    0  0.00000000000E+00  0.00000000000E+00  0.96468988825E+03  0.96468988825E+03  0.25500000000E-02 0.  1.
         -2   -1    0    0    0  501 -0.00000000000E+00 -0.00000000000E+00 -0.44814693125E+03  0.44814693125E+03  0.25500000000E-02 0. -1.
    -200001    2    1    2    0    0 -0.78482476061E+02 -0.15946529267E+03  0.90504929077E+02  0.64546071885E+03  0.61387272197E+03 0.  0.
   -5000001    2    3    3    0    0 -0.24540256021E+03 -0.10757935262E+03 -0.16173402912E+03  0.32238184721E+03  0.77307344877E+02 0.  0.
     200001    1    1    2    0    0  0.78482476061E+02  0.15946529267E+03  0.42603802793E+03  0.76737610066E+03  0.61300000000E+03 0. -1.
         13    1    4    4    0    0 -0.52344589019E+02 -0.26275368816E+02 -0.71246668905E+02  0.92230417976E+02  0.10566000000E+00 0.  1.
    -200003    1    4    4    0    0 -0.19305797119E+03 -0.81303983800E+02 -0.90487360213E+02  0.23015142924E+03  0.30000000000E+02 0. -1.
    -200000    1    3    3    0    0  0.16692008415E+03 -0.51885940056E+02  0.25223895819E+03  0.32307887164E+03  0.10100000000E+03 0.  1.
<mgrwt>
<rscale>  0 0.13150252E+04</rscale>
<asrwt>0</asrwt>
<pdfrwt beam="1">  1        2 0.13781284E+00 0.13150252E+04</pdfrwt>
<pdfrwt beam="2">  1       -2 0.64020990E-01 0.13150252E+04</pdfrwt>
<totfact> 0.65336724E+01</totfact>
</mgrwt>
</event>
<event>
 8    2  0.4480234E-052  0.2173028E+04  0.7818608E-02  0.8529739E-01
          2   -1    0    0  501    0  0.00000000000E+00  0.00000000000E+00  0.86854971459E+03  0.86854971460E+03  0.25500000000E-02 0.  1.
         -2   -1    0    0    0  501 -0.00000000000E+00 -0.00000000000E+00 -0.13591770458E+04  0.13591770458E+04  0.25500000000E-02 0. -1.
    -200001    2    1    2    0    0 -0.63036783955E+03 -0.44259714871E+03  0.22628359832E+03  0.10099475809E+04  0.61280828983E+03 0.  0.
   -5000001    2    3    3    0    0 -0.21084214670E+03 -0.40549793385E+03 -0.89967423930E+02  0.47366979114E+03  0.85941541088E+02 0.  0.
     200001    1    1    2    0    0  0.63036783955E+03  0.44259714871E+03 -0.71691092952E+03  0.12177791795E+04  0.61300000000E+03 0. -1.
         13    1    4    4    0    0 -0.15461353441E+03 -0.23639487468E+03 -0.75467385092E+02  0.29237513433E+03  0.10566000000E+00 0.  1.
    -200003    1    4    4    0    0 -0.56228612299E+02 -0.16910305917E+03 -0.14500038838E+02  0.18129465681E+03  0.30000000000E+02 0.  1.
    -200000    1    3    3    0    0 -0.41952569284E+03 -0.37099214853E+02  0.31625102225E+03  0.53627778974E+03  0.10100000000E+03 0. -1.
<mgrwt>
<rscale>  0 0.21730282E+04</rscale>
<asrwt>0</asrwt>
<pdfrwt beam="1">  1        2 0.12407853E+00 0.21730282E+04</pdfrwt>
<pdfrwt beam="2">  1       -2 0.19416815E+00 0.21730282E+04</pdfrwt>
<totfact> 0.45603567E+00</totfact>
</mgrwt>
</event>
<event>
 8    2  0.4480234E-052  0.1970699E+04  0.7818608E-02  0.8620444E-01
          2   -1    0    0  501    0  0.00000000000E+00  0.00000000000E+00  0.23148096202E+04  0.23148096202E+04  0.25500000000E-02 0.  1.
         -2   -1    0    0    0  501 -0.00000000000E+00 -0.00000000000E+00 -0.41943565679E+03  0.41943565680E+03  0.25500000000E-02 0. -1.
    -200001    2    1    2    0    0 -0.37920311848E+03 -0.44294739611E+03  0.16482972693E+04  0.18528751541E+04  0.61340447343E+03 0.  0.
   -5000001    2    3    3    0    0 -0.43346407315E+03 -0.30360249328E+03  0.69389645002E+03  0.88156512279E+03  0.12489678032E+03 0.  0.
     200001    1    1    2    0    0  0.37920311848E+03  0.44294739611E+03  0.24707669417E+03  0.88137012293E+03  0.61300000000E+03 0. -1.
         13    1    4    4    0    0 -0.27403827102E+03 -0.21426023952E+03  0.53170215704E+03  0.63538304918E+03  0.10566000000E+00 0.  1.
    -200003    1    4    4    0    0 -0.15942580212E+03 -0.89342253763E+02  0.16219429297E+03  0.24618207360E+03  0.30000000000E+02 0.  1.
    -200000    1    3    3    0    0  0.54260954663E+02 -0.13934490283E+03  0.95440081924E+03  0.97131003130E+03  0.10100000000E+03 0.  1.
<mgrwt>
<rscale>  0 0.19706991E+04</rscale>
<asrwt>0</asrwt>
<pdfrwt beam="1">  1        2 0.33068709E+00 0.19706991E+04</pdfrwt>
<pdfrwt beam="2">  1       -2 0.59919379E-01 0.19706991E+04</pdfrwt>
<totfact> 0.13381667E+01</totfact>
</mgrwt>
</event>
<event>
 8    2  0.4480234E-052  0.1459343E+04  0.7818608E-02  0.8911949E-01
          2   -1    0    0  501    0  0.00000000000E+00  0.00000000000E+00  0.12747540658E+04  0.12747540658E+04  0.25500000000E-02 0.  1.
         -2   -1    0    0    0  501 -0.00000000000E+00 -0.00000000000E+00 -0.41766503894E+03  0.41766503894E+03  0.25500000000E-02 0. -1.
    -200001    2    1    2    0    0 -0.14380437026E+03  0.35716245122E+03  0.53695269945E+03  0.90090095486E+03  0.61242110966E+03 0.  0.
   -5000001    2    3    3    0    0  0.63413017431E+02  0.13889220598E+03 -0.72867021608E+02  0.21339674548E+03  0.13006272519E+03 0.  0.
     200001    1    1    2    0    0  0.14380437026E+03 -0.35716245122E+03  0.32013632741E+03  0.79151814988E+03  0.61300000000E+03 0.  1.
         13    1    4    4    0    0  0.38509169566E+02  0.11792806348E+03 -0.10182850575E+03  0.16049623062E+03  0.10566000000E+00 0.  1.
    -200003    1    4    4    0    0  0.24903847865E+02  0.20964142498E+02  0.28961484140E+02  0.52900514863E+02  0.30000000000E+02 0. -1.
    -200000    1    3    3    0    0 -0.20721738769E+03  0.21827024524E+03  0.60981972106E+03  0.68750420938E+03  0.10100000000E+03 0.  1.
<mgrwt>
<rscale>  0 0.14593426E+04</rscale>
<asrwt>0</asrwt>
<pdfrwt beam="1">  1        2 0.18210772E+00 0.14593426E+04</pdfrwt>
<pdfrwt beam="2">  1       -2 0.59666434E-01 0.14593426E+04</pdfrwt>
<totfact> 0.49316794E+01</totfact>
</mgrwt>
</event>
<event>
 8    2  0.4480234E-052  0.1292420E+04  0.7818608E-02  0.9035598E-01
          2   -1    0    0  501    0  0.00000000000E+00  0.00000000000E+00  0.14163275545E+04  0.14163275545E+04  0.25500000000E-02 0.  1.
         -2   -1    0    0    0  501 -0.00000000000E+00 -0.00000000000E+00 -0.29483824230E+03  0.29483824232E+03  0.25500000000E-02 0. -1.
    -200001    2    1    2    0    0 -0.70707254498E+02  0.15144556757E+03  0.40449637733E+03  0.75315580501E+03  0.61293643355E+03 0.  0.
   -5000001    2    3    3    0    0 -0.88760804426E+02 -0.95175821955E+02 -0.81330355806E+02  0.19874020722E+03  0.12627796999E+03 0.  0.
     200001    1    1    2    0    0  0.70707254498E+02 -0.15144556757E+03  0.71699293490E+03  0.95800999184E+03  0.61300000000E+03 0. -1.
         13    1    4    4    0    0 -0.26081274456E+02 -0.48097437419E+02  0.27553445061E+02  0.61260100084E+02  0.10566000000E+00 0.  1.
    -200003    1    4    4    0    0 -0.62679529969E+02 -0.47078384537E+02 -0.10888380087E+03  0.13748010714E+03  0.30000000000E+02 0.  1.
    -200000    1    3    3    0    0  0.18053549927E+02  0.24662138953E+03  0.48582673314E+03  0.55441559779E+03  0.10100000000E+03 0.  1.
<mgrwt>
<rscale>  0 0.12924203E+04</rscale>
<asrwt>0</asrwt>
<pdfrwt beam="1">  1        2 0.20233251E+00 0.12924203E+04</pdfrwt>
<pdfrwt beam="2">  1       -2 0.42119748E-01 0.12924203E+04</pdfrwt>
<totfact> 0.84928834E+01</totfact>
</mgrwt>
</event>
<event>
 8    2  0.4480234E-052  0.1439444E+04  0.7818608E-02  0.8925751E-01
         -2   -1    0    0    0  501 -0.00000000000E+00  0.00000000000E+00  0.16634299032E+03  0.16634299034E+03  0.25500000000E-02 0. -1.
          2   -1    0    0  501    0  0.00000000000E+00 -0.00000000000E+00 -0.31140471120E+04  0.31140471120E+04  0.25500000000E-02 0.  1.
    -200001    2    1    2    0    0 -0.16835603117E+03 -0.33779913844E+03 -0.14691003355E+04  0.16358566829E+04  0.61263307130E+03 0.  0.
   -5000001    2    3    3    0    0 -0.25158157071E+03 -0.32667549783E+02 -0.11085654073E+04  0.11457360740E+04  0.13940385020E+03 0.  0.
     200001    1    1    2    0    0  0.16835603117E+03  0.33779913844E+03 -0.14786037862E+04  0.16445334195E+04  0.61300000000E+03 0.  1.
         13    1    4    4    0    0 -0.10901915706E+03  0.41729639981E+02 -0.32634796072E+03  0.34659708898E+03  0.10566000000E+00 0.  1.
    -200003    1    4    4    0    0 -0.14256241365E+03 -0.74397189764E+02 -0.78221744655E+03  0.79913898498E+03  0.30000000000E+02 0.  1.
    -200000    1    3    3    0    0  0.83225539537E+02 -0.30513158865E+03 -0.36053492821E+03  0.49012060892E+03  0.10100000000E+03 0. -1.
<mgrwt>
<rscale>  0 0.14394442E+04</rscale>
<asrwt>0</asrwt>
<pdfrwt beam="1">  1        2 0.44486384E+00 0.14394442E+04</pdfrwt>
<pdfrwt beam="2">  1       -2 0.23763286E-01 0.14394442E+04</pdfrwt>
<totfact> 0.31282065E+01</totfact>
</mgrwt>
</event>
<event>
 8    2  0.4480234E-052  0.1637137E+04  0.7818608E-02  0.8798053E-01
          2   -1    0    0  501    0  0.00000000000E+00  0.00000000000E+00  0.12202352201E+04  0.12202352201E+04  0.25500000000E-02 0.  1.
         -2   -1    0    0    0  501 -0.00000000000E+00 -0.00000000000E+00 -0.54911887926E+03  0.54911887927E+03  0.25500000000E-02 0. -1.
    -200001    2    1    2    0    0  0.19070495410E+03  0.18830129489E+03 -0.17422884274E+03  0.69129879627E+03  0.61295397781E+03 0.  0.
   -5000001    2    3    3    0    0  0.16472643455E+03 -0.39464491050E+02 -0.38096787182E+01  0.38832053272E+03  0.34940818276E+03 0.  0.
     200001    1    1    2    0    0 -0.19070495410E+03 -0.18830129489E+03  0.84534518362E+03  0.10780553031E+04  0.61300000000E+03 0.  1.
         13    1    4    4    0    0  0.14065925476E+03 -0.18791387689E+03 -0.87560669883E+01  0.23489004013E+03  0.10566000000E+00 0.  1.
    -200003    1    4    4    0    0  0.24067179795E+02  0.14844938584E+03  0.49463882701E+01  0.15343049259E+03  0.30000000000E+02 0.  1.
    -200000    1    3    3    0    0  0.25978519544E+02  0.22776578594E+03 -0.17041916402E+03  0.30297826356E+03  0.10100000000E+03 0. -1.
<mgrwt>
<rscale>  0 0.16371368E+04</rscale>
<asrwt>0</asrwt>
<pdfrwt beam="1">  1        2 0.17431931E+00 0.16371368E+04</pdfrwt>
<pdfrwt beam="2">  1       -2 0.78445555E-01 0.16371368E+04</pdfrwt>
<totfact> 0.28819026E+01</totfact>
</mgrwt>
</event>
<event>
 8    2  0.4480234E-052  0.3290619E+04  0.7818608E-02  0.8165286E-01
         -2   -1    0    0    0  501 -0.00000000000E+00  0.00000000000E+00  0.33165936120E+04  0.33165936120E+04  0.25500000000E-02 0. -1.
          2   -1    0    0  501    0  0.00000000000E+00 -0.00000000000E+00 -0.81621198764E+03  0.81621198764E+03  0.25500000000E-02 0.  1.
    -200001    2    1    2    0    0  0.66638496780E+03 -0.12850948347E+04  0.18599049385E+04  0.24353024200E+04  0.61311812672E+03 0.  0.
   -5000001    2    3    3    0    0  0.34631549494E+03 -0.34043901448E+03  0.28509142008E+03  0.56847149467E+03  0.77779032082E+02 0.  0.
     200001    1    1    2    0    0 -0.66638496780E+03  0.12850948347E+04  0.64047668586E+03  0.16975031796E+04  0.61300000000E+03 0.  1.
         13    1    4    4    0    0  0.17864284314E+03 -0.21861314380E+03  0.15867916711E+03  0.32385808819E+03  0.10566000000E+00 0.  1.
    -200003    1    4    4    0    0  0.16767265180E+03 -0.12182587068E+03  0.12641225297E+03  0.24461340648E+03  0.30000000000E+02 0.  1.
    -200000    1    3    3    0    0  0.32006947286E+03 -0.94465582025E+03  0.15748135184E+04  0.18668309254E+04  0.10100000000E+03 0. -1.
<mgrwt>
<rscale>  0 0.32906191E+04</rscale>
<asrwt>0</asrwt>
<pdfrwt beam="1">  1        2 0.11660171E+00 0.32906191E+04</pdfrwt>
<pdfrwt beam="2">  1       -2 0.47379910E+00 0.32906191E+04</pdfrwt>
<totfact> 0.75331271E-02</totfact>
</mgrwt>
</event>
<event>
 8    2  0.4480234E-052  0.1658925E+04  0.7818608E-02  0.8785144E-01
         -2   -1    0    0    0  501 -0.00000000000E+00  0.00000000000E+00  0.54622205658E+03  0.54622205658E+03  0.25500000000E-02 0. -1.
          2   -1    0    0  501    0  0.00000000000E+00 -0.00000000000E+00 -0.12595763653E+04  0.12595763653E+04  0.25500000000E-02 0.  1.
    -200001    2    1    2    0    0  0.30072069572E+03 -0.74888108908E+02  0.15055017217E+03  0.70210411739E+03  0.61175458448E+03 0.  0.
   -5000001    2    3    3    0    0  0.30750439648E+03  0.10154398940E+03 -0.12788845147E+03  0.35728043630E+03  0.80148103572E+02 0.  0.
     200001    1    1    2    0    0 -0.30072069572E+03  0.74888108908E+02 -0.86390448090E+03  0.11036943045E+04  0.61300000000E+03 0.  1.
         13    1    4    4    0    0  0.20013783230E+03  0.95894279578E+02 -0.81890022719E+02  0.23655200645E+03  0.10566000000E+00 0.  1.
    -200003    1    4    4    0    0  0.10736656418E+03  0.56497098174E+01 -0.45998428753E+02  0.12072842984E+03  0.30000000000E+02 0.  1.
    -200000    1    3    3    0    0 -0.67837007623E+01 -0.17643209830E+03  0.27843862364E+03  0.34482368109E+03  0.10100000000E+03 0. -1.
<mgrwt>
<rscale>  0 0.16589254E+04</rscale>
<asrwt>0</asrwt>
<pdfrwt beam="1">  1        2 0.17993948E+00 0.16589254E+04</pdfrwt>
<pdfrwt beam="2">  1       -2 0.78031723E-01 0.16589254E+04</pdfrwt>
<totfact> 0.27664508E+01</totfact>
</mgrwt>
</event>
<event>
 8    2  0.4480234E-052  0.1308528E+04  0.7818608E-02  0.9022830E-01
         -2   -1    0    0    0  501 -0.00000000000E+00  0.00000000000E+00  0.13379590397E+03  0.13379590400E+03  0.25500000000E-02 0. -1.
          2   -1    0    0  501    0  0.00000000000E+00 -0.00000000000E+00 -0.31993613397E+04  0.31993613397E+04  0.25500000000E-02 0.  1.
    -200001    2    1    2    0    0 -0.22077068623E+03 -0.27355097227E+02 -0.14050525272E+04  0.15491841171E+04  0.61344178782E+03 0.  0.
   -5000001    2    3    3    0    0  0.81930939718E+02 -0.12482232152E+03 -0.39463055271E+03  0.48509685525E+03  0.23935829839E+03 0.  0.
     200001    1    1    2    0    0  0.22077068623E+03  0.27355097227E+02 -0.16605129085E+04  0.17839731266E+04  0.61300000000E+03 0. -1.
         13    1    4    4    0    0  0.13774184891E+03 -0.14952184830E+03 -0.22997439969E+03  0.30694923967E+03  0.10566000000E+00 0.  1.
    -200003    1    4    4    0    0 -0.55810909193E+02  0.24699526776E+02 -0.16465615303E+03  0.17814761558E+03  0.30000000000E+02 0.  1.
    -200000    1    3    3    0    0 -0.30270162595E+03  0.97467224294E+02 -0.10104219745E+04  0.10640872618E+04  0.10100000000E+03 0.  1.
<mgrwt>
<rscale>  0 0.13085281E+04</rscale>
<asrwt>0</asrwt>
<pdfrwt beam="1">  1        2 0.45705157E+00 0.13085281E+04</pdfrwt>
<pdfrwt beam="2">  1       -2 0.19113703E-01 0.13085281E+04</pdfrwt>
<totfact> 0.41655055E+01</totfact>
</mgrwt>
</event>
<event>
 8    2  0.4480234E-052  0.1488797E+04  0.7818608E-02  0.8891937E-01
          2   -1    0    0  501    0  0.00000000000E+00  0.00000000000E+00  0.70607378229E+03  0.70607378229E+03  0.25500000000E-02 0.  1.
         -2   -1    0    0    0  501 -0.00000000000E+00 -0.00000000000E+00 -0.78480351154E+03  0.78480351155E+03  0.25500000000E-02 0. -1.
    -200001    2    1    2    0    0 -0.11980663306E+03  0.12966067603E+03  0.34402013255E+03  0.72559828205E+03  0.61398493066E+03 0.  0.
   -5000001    2    3    3    0    0 -0.29190717906E+02 -0.51577706035E+02 -0.14926198764E+03  0.18283973047E+03  0.87400619640E+02 0.  0.
     200001    1    1    2    0    0  0.11980663306E+03 -0.12966067603E+03 -0.42274986180E+03  0.76527901179E+03  0.61300000000E+03 0. -1.
         13    1    4    4    0    0 -0.52447706745E+02 -0.20104335116E+02 -0.83830257528E+02  0.10090822303E+03  0.10566000000E+00 0.  1.
    -200003    1    4    4    0    0  0.23256988839E+02 -0.31473370919E+02 -0.65431730111E+02  0.81931507445E+02  0.30000000000E+02 0. -1.
    -200000    1    3    3    0    0 -0.90615915152E+02  0.18123838207E+03  0.49328212019E+03  0.54275855158E+03  0.10100000000E+03 0.  1.
<mgrwt>
<rscale>  0 0.14887971E+04</rscale>
<asrwt>0</asrwt>
<pdfrwt beam="1">  1        2 0.10086768E+00 0.14887971E+04</pdfrwt>
<pdfrwt beam="2">  1       -2 0.11211479E+00 0.14887971E+04</pdfrwt>
<totfact> 0.27066922E+01</totfact>
</mgrwt>
</event>
<event>
 8    2  0.4480234E-052  0.1462916E+04  0.7818608E-02  0.8909495E-01
          2   -1    0    0  501    0  0.00000000000E+00  0.00000000000E+00  0.11294875545E+04  0.11294875545E+04  0.25500000000E-02 0.  1.
         -2   -1    0    0    0  501 -0.00000000000E+00 -0.00000000000E+00 -0.47369352640E+03  0.47369352641E+03  0.25500000000E-02 0. -1.
    -200001    2    1    2    0    0 -0.19040057583E+03 -0.18468592576E+03  0.13996234294E+01  0.66810765744E+03  0.61319214977E+03 0.  0.
   -5000001    2    3    3    0    0 -0.18092916759E+03  0.53448865417E+02  0.24151654763E+03  0.31504247418E+03  0.73002553797E+02 0.  0.
     200001    1    1    2    0    0  0.19040057583E+03  0.18468592576E+03  0.65439440470E+03  0.93507342351E+03  0.61300000000E+03 0. -1.
         13    1    4    4    0    0 -0.10029987713E+03  0.87743467862E+01  0.15658850585E+03  0.18616397568E+03  0.10566000000E+00 0.  1.
    -200003    1    4    4    0    0 -0.80629290461E+02  0.44674518630E+02  0.84928041782E+02  0.12887849850E+03  0.30000000000E+02 0.  1.
    -200000    1    3    3    0    0 -0.94714082397E+01 -0.23813479117E+03 -0.24011692420E+03  0.35306518326E+03  0.10100000000E+03 0. -1.
<mgrwt>
<rscale>  0 0.14629162E+04</rscale>
<asrwt>0</asrwt>
<pdfrwt beam="1">  1        2 0.16135537E+00 0.14629162E+04</pdfrwt>
<pdfrwt beam="2">  1       -2 0.67670504E-01 0.14629162E+04</pdfrwt>
<totfact> 0.45589729E+01</totfact>
</mgrwt>
</event>
<event>
 8    2  0.4480234E-052  0.1510208E+04  0.7818608E-02  0.8877693E-01
          2   -1    0    0  501    0  0.00000000000E+00  0.00000000000E+00  0.18920292371E+04  0.18920292371E+04  0.25500000000E-02 0.  1.
         -2   -1    0    0    0  501 -0.00000000000E+00 -0.00000000000E+00 -0.30136015355E+03  0.30136015356E+03  0.25500000000E-02 0. -1.
    -200001    2    1    2    0    0 -0.39550738392E+03  0.70491045776E+02  0.10593222012E+04  0.12881305395E+04  0.61296140376E+03 0.  0.
   -5000001    2    3    3    0    0 -0.34166015877E+02 -0.16107510306E+03  0.48131510391E+02  0.18499950522E+03  0.69250770208E+02 0.  0.
     200001    1    1    2    0    0  0.39550738392E+03 -0.70491045776E+02  0.53134688234E+03  0.90525885118E+03  0.61300000000E+03 0. -1.
         13    1    4    4    0    0 -0.59289876192E+01 -0.11944063066E+03  0.38554568184E+02  0.12564904711E+03  0.10566000000E+00 0.  1.
    -200003    1    4    4    0    0 -0.28237028257E+02 -0.41634472394E+02  0.95769422063E+01  0.59350458114E+02  0.30000000000E+02 0.  1.
    -200000    1    3    3    0    0 -0.36134136804E+03  0.23156614883E+03  0.10111906908E+04  0.11031310343E+04  0.10100000000E+03 0.  1.
<mgrwt>
<rscale>  0 0.15102082E+04</rscale>
<asrwt>0</asrwt>
<pdfrwt beam="1">  1        2 0.27028988E+00 0.15102082E+04</pdfrwt>
<pdfrwt beam="2">  1       -2 0.43051451E-01 0.15102082E+04</pdfrwt>
<totfact> 0.45106697E+01</totfact>
</mgrwt>
</event>
<event>
 8    2  0.4480234E-052  0.1406377E+04  0.7818608E-02  0.8949216E-01
          2   -1    0    0  501    0  0.00000000000E+00  0.00000000000E+00  0.16923702528E+03  0.16923702530E+03  0.25500000000E-02 0.  1.
         -2   -1    0    0    0  501 -0.00000000000E+00 -0.00000000000E+00 -0.29217828229E+04  0.29217828229E+04  0.25500000000E-02 0. -1.
    -200001    2    1    2    0    0  0.33337595296E+03 -0.82942841617E+02 -0.14219319732E+04  0.15862536901E+04  0.61342578345E+03 0.  0.
   -5000001    2    3    3    0    0  0.30111478754E+03  0.20049753898E+03 -0.60321948901E+03  0.71340183325E+03  0.11915974722E+03 0.  0.
     200001    1    1    2    0    0 -0.33337595296E+03  0.82942841617E+02 -0.13306138244E+04  0.15047661581E+04  0.61300000000E+03 0. -1.
         13    1    4    4    0    0  0.36186153894E+02  0.41990398070E+02 -0.33641505481E+02  0.64841293315E+02  0.10566000000E+00 0.  1.
    -200003    1    4    4    0    0  0.26492863364E+03  0.15850714091E+03 -0.56957798353E+03  0.64856053993E+03  0.30000000000E+02 0.  1.
    -200000    1    3    3    0    0  0.32261165423E+02 -0.28344038059E+03 -0.81871248423E+03  0.87285185684E+03  0.10100000000E+03 0.  1.
<mgrwt>
<rscale>  0 0.14063767E+04</rscale>
<asrwt>0</asrwt>
<pdfrwt beam="1">  1        2 0.24176720E-01 0.14063767E+04</pdfrwt>
<pdfrwt beam="2">  1       -2 0.41739752E+00 0.14063767E+04</pdfrwt>
<totfact> 0.12834551E+00</totfact>
</mgrwt>
</event>
<event>
 8    2  0.4480234E-052  0.1638890E+04  0.7818608E-02  0.8797006E-01
         -2   -1    0    0    0  501 -0.00000000000E+00  0.00000000000E+00  0.98608192179E+03  0.98608192180E+03  0.25500000000E-02 0. -1.
          2   -1    0    0  501    0  0.00000000000E+00 -0.00000000000E+00 -0.68096767967E+03  0.68096767968E+03  0.25500000000E-02 0.  1.
    -200001    2    1    2    0    0 -0.52669121739E+03 -0.13167942487E+03  0.11954354443E+03  0.82743743312E+03  0.61287758754E+03 0.  0.
   -5000001    2    3    3    0    0 -0.58553660139E+03 -0.22231538529E+03  0.10398053757E+03  0.67870658991E+03  0.23990298227E+03 0.  0.
     200001    1    1    2    0    0  0.52669121739E+03  0.13167942487E+03  0.18557069769E+03  0.83961216835E+03  0.61300000000E+03 0.  1.
         13    1    4    4    0    0 -0.43756443838E+03 -0.57852134442E+02  0.11180162727E+03  0.45531211516E+03  0.10566000000E+00 0.  1.
    -200003    1    4    4    0    0 -0.14797216301E+03 -0.16446325085E+03 -0.78210896975E+01  0.22339447475E+03  0.30000000000E+02 0.  1.
    -200000    1    3    3    0    0  0.58845383997E+02  0.90635960418E+02  0.15563006859E+02  0.14873084321E+03  0.10100000000E+03 0.  1.
<mgrwt>
<rscale>  0 0.16388898E+04</rscale>
<asrwt>0</asrwt>
<pdfrwt beam="1">  1        2 0.97281098E-01 0.16388898E+04</pdfrwt>
<pdfrwt beam="2">  1       -2 0.14086884E+00 0.16388898E+04</pdfrwt>
<totfact> 0.15767117E+01</totfact>
</mgrwt>
</event>
<event>
 8    2  0.4480234E-052  0.1281073E+04  0.7818608E-02  0.9044711E-01
         -2   -1    0    0    0  501 -0.00000000000E+00  0.00000000000E+00  0.18753496004E+03  0.18753496006E+03  0.25500000000E-02 0.  1.
          2   -1    0    0  501    0  0.00000000000E+00 -0.00000000000E+00 -0.21877882504E+04  0.21877882504E+04  0.25500000000E-02 0. -1.
    -200001    2    1    2    0    0  0.13553691226E+03  0.21997407409E+02 -0.12318546460E+04  0.13828215141E+04  0.61308672356E+03 0.  0.
   -5000001    2    3    3    0    0 -0.39217775292E+02 -0.25651284542E+03 -0.69173449306E+03  0.74247946386E+03  0.73771753485E+02 0.  0.
     200001    1    1    2    0    0 -0.13553691226E+03 -0.21997407409E+02 -0.76839864434E+03  0.99250169629E+03  0.61300000000E+03 0.  1.
         13    1    4    4    0    0 -0.51628208649E+01 -0.15099816358E+03 -0.45340763246E+03  0.47791797671E+03  0.10566000000E+00 0.  1.
    -200003    1    4    4    0    0 -0.34054954427E+02 -0.10551468183E+03 -0.23832686060E+03  0.26456148715E+03  0.30000000000E+02 0.  1.
    -200000    1    3    3    0    0  0.17475468756E+03  0.27851025282E+03 -0.54012015292E+03  0.64034205027E+03  0.10100000000E+03 0.  1.
<mgrwt>
<rscale>  0 0.12810726E+04</rscale>
<asrwt>0</asrwt>
<pdfrwt beam="1">  1        2 0.31254116E+00 0.12810726E+04</pdfrwt>
<pdfrwt beam="2">  1       -2 0.26790710E-01 0.12810726E+04</pdfrwt>
<totfact> 0.79759862E+01</totfact>
</mgrwt>
</event>
<event>
 8    2  0.4480234E-052  0.2040175E+04  0.7818608E-02  0.8588064E-01
          2   -1    0    0  501    0  0.00000000000E+00  0.00000000000E+00  0.36074368760E+04  0.36074368760E+04  0.25500000000E-02 0.  1.
         -2   -1    0    0    0  501 -0.00000000000E+00 -0.00000000000E+00 -0.28845382578E+03  0.28845382579E+03  0.25500000000E-02 0. -1.
    -200001    2    1    2    0    0 -0.15488058200E+03 -0.39995117218E+03  0.33506032046E+03  0.81960840136E+03  0.61281610490E+03 0.  0.
   -5000001    2    3    3    0    0  0.16750083049E+03  0.19126078105E+02  0.10019322510E+03  0.23231029196E+03  0.12452732356E+03 0.  0.
     200001    1    1    2    0    0  0.15488058200E+03  0.39995117218E+03  0.29839227297E+04  0.30762823004E+04  0.61300000000E+03 0.  1.
         13    1    4    4    0    0  0.10484860827E+03  0.53375380785E+02  0.10069462643E+03  0.15485987500E+03  0.10566000000E+00 0.  1.
    -200003    1    4    4    0    0  0.62652222216E+02 -0.34249302680E+02 -0.50140132753E+00  0.77450416952E+02  0.30000000000E+02 0.  1.
    -200000    1    3    3    0    0 -0.32238141249E+03 -0.41907725029E+03  0.23486709536E+03  0.58729810940E+03  0.10100000000E+03 0. -1.
<mgrwt>
<rscale>  0 0.20401755E+04</rscale>
<asrwt>0</asrwt>
<pdfrwt beam="1">  1        2 0.51534807E+00 0.20401755E+04</pdfrwt>
<pdfrwt beam="2">  1       -2 0.41207694E-01 0.20401755E+04</pdfrwt>
<totfact> 0.53652296E+00</totfact>
</mgrwt>
</event>
<event>
 8    2  0.4480234E-052  0.1428208E+04  0.7818608E-02  0.8933649E-01
          2   -1    0    0  501    0  0.00000000000E+00  0.00000000000E+00  0.22079937452E+04  0.22079937452E+04  0.25500000000E-02 0.  1.
         -2   -1    0    0    0  501 -0.00000000000E+00 -0.00000000000E+00 -0.23095379472E+03  0.23095379473E+03  0.25500000000E-02 0. -1.
    -200001    2    1    2    0    0  0.14663330064E+03  0.41451435741E+01  0.41360530475E+03  0.75323837209E+03  0.61219293528E+03 0.  0.
   -5000001    2    3    3    0    0  0.21012208501E+03  0.11193704074E+03 -0.58208957597E+02  0.25478113522E+03  0.69598508755E+02 0.  0.
     200001    1    1    2    0    0 -0.14663330064E+03 -0.41451435741E+01  0.15634346457E+04  0.16857091678E+04  0.61300000000E+03 0.  1.
         13    1    4    4    0    0  0.55452601650E+02  0.24076716708E+02 -0.42100418861E+02  0.73669096299E+02  0.10566000000E+00 0.  1.
    -200003    1    4    4    0    0  0.15466948336E+03  0.87860324029E+02 -0.16108538736E+02  0.18111203892E+03  0.30000000000E+02 0.  1.
    -200000    1    3    3    0    0 -0.63488784375E+02 -0.10779189716E+03  0.47181426235E+03  0.49845723687E+03  0.10100000000E+03 0.  1.
<mgrwt>
<rscale>  0 0.14282080E+04</rscale>
<asrwt>0</asrwt>
<pdfrwt beam="1">  1        2 0.31542770E+00 0.14282080E+04</pdfrwt>
<pdfrwt beam="2">  1       -2 0.32993397E-01 0.14282080E+04</pdfrwt>
<totfact> 0.52258093E+01</totfact>
</mgrwt>
</event>
<event>
 8    2  0.4480234E-052  0.1572371E+04  0.7818608E-02  0.8837704E-01
          2   -1    0    0  501    0  0.00000000000E+00  0.00000000000E+00  0.27652027447E+04  0.27652027447E+04  0.25500000000E-02 0.  1.
         -2   -1    0    0    0  501 -0.00000000000E+00 -0.00000000000E+00 -0.22352330969E+03  0.22352330971E+03  0.25500000000E-02 0. -1.
    -200001    2    1    2    0    0  0.36576831558E+03 -0.90109834075E+02  0.18722035298E+04  0.20059375571E+04  0.61378594226E+03 0.  0.
   -5000001    2    3    3    0    0  0.44766282724E+03 -0.87884635272E+02  0.17943689859E+04  0.18543760884E+04  0.10404279742E+03 0.  0.
     200001    1    1    2    0    0 -0.36576831558E+03  0.90109834075E+02  0.66947590518E+03  0.98278849734E+03  0.61300000000E+03 0. -1.
         13    1    4    4    0    0  0.28138146907E+03 -0.61129817927E+02  0.12913364385E+04  0.13230503371E+04  0.10566000000E+00 0.  1.
    -200003    1    4    4    0    0  0.16628135816E+03 -0.26754817346E+02  0.50303254738E+03  0.53132575135E+03  0.30000000000E+02 0.  1.
    -200000    1    3    3    0    0 -0.81894511660E+02 -0.22251988024E+01  0.77834543874E+02  0.15156146862E+03  0.10100000000E+03 0. -1.
<mgrwt>
<rscale>  0 0.15723705E+04</rscale>
<asrwt>0</asrwt>
<pdfrwt beam="1">  1        2 0.39502892E+00 0.15723705E+04</pdfrwt>
<pdfrwt beam="2">  1       -2 0.31931905E-01 0.15723705E+04</pdfrwt>
<totfact> 0.27979125E+01</totfact>
</mgrwt>
</event>
<event>
 8    2  0.4480234E-052  0.1776865E+04  0.7818608E-02  0.8718700E-01
          2   -1    0    0  501    0  0.00000000000E+00  0.00000000000E+00  0.32570447354E+04  0.32570447354E+04  0.25500000000E-02 0.  1.
         -2   -1    0    0    0  501 -0.00000000000E+00 -0.00000000000E+00 -0.24233994184E+03  0.24233994186E+03  0.25500000000E-02 0. -1.
    -200001    2    1    2    0    0  0.39754126359E+03 -0.44430998656E+03  0.19808860698E+04  0.21577436769E+04  0.61359411092E+03 0.  0.
   -5000001    2    3    3    0    0  0.15786984698E+03 -0.68000718253E+02  0.76986753073E+02  0.19966179356E+03  0.66263756230E+02 0.  0.
     200001    1    1    2    0    0 -0.39754126359E+03  0.44430998656E+03  0.10338187237E+04  0.13416410004E+04  0.61300000000E+03 0. -1.
         13    1    4    4    0    0  0.97986177683E+02 -0.38149797756E+02  0.20575652986E+02  0.10714507336E+03  0.10566000000E+00 0.  1.
    -200003    1    4    4    0    0  0.59883669298E+02 -0.29850920497E+02  0.56411100087E+02  0.92516720197E+02  0.30000000000E+02 0.  1.
    -200000    1    3    3    0    0  0.23967141661E+03 -0.37630926831E+03  0.19038993168E+04  0.19580818833E+04  0.10100000000E+03 0.  1.
<mgrwt>
<rscale>  0 0.17768647E+04</rscale>
<asrwt>0</asrwt>
<pdfrwt beam="1">  1        2 0.46529208E+00 0.17768647E+04</pdfrwt>
<pdfrwt beam="2">  1       -2 0.34619994E-01 0.17768647E+04</pdfrwt>
<totfact> 0.12513748E+01</totfact>
</mgrwt>
</event>
<event>
 8    2  0.4480234E-052  0.3153849E+04  0.7818608E-02  0.8201113E-01
          2   -1    0    0  501    0  0.00000000000E+00  0.00000000000E+00  0.34415879912E+04  0.34415879912E+04  0.25500000000E-02 0.  1.
         -2   -1    0    0    0  501 -0.00000000000E+00 -0.00000000000E+00 -0.72254187160E+03  0.72254187161E+03  0.25500000000E-02 0. -1.
    -200001    2    1    2    0    0 -0.55758641359E+03 -0.81143865004E+03 -0.50696795652E+02  0.11613677830E+04  0.61389711753E+03 0.  0.
   -5000001    2    3    3    0    0 -0.46887819765E+03 -0.20111274852E+03 -0.12224400982E+03  0.53233133136E+03  0.90221652399E+02 0.  0.
     200001    1    1    2    0    0  0.55758641359E+03  0.81143865004E+03  0.27697429153E+04  0.30027620799E+04  0.61300000000E+03 0.  1.
         13    1    4    4    0    0 -0.32993033197E+03 -0.10572381330E+03 -0.71217850820E+02  0.35369979091E+03  0.10566000000E+00 0.  1.
    -200003    1    4    4    0    0 -0.13894786567E+03 -0.95388935222E+02 -0.51026159005E+02  0.17863154044E+03  0.30000000000E+02 0.  1.
    -200000    1    3    3    0    0 -0.88708215940E+02 -0.61032590152E+03  0.71547214173E+02  0.62903645164E+03  0.10100000000E+03 0.  1.
<mgrwt>
<rscale>  0 0.31538493E+04</rscale>
<asrwt>0</asrwt>
<pdfrwt beam="1">  1        2 0.49165543E+00 0.31538493E+04</pdfrwt>
<pdfrwt beam="2">  1       -2 0.10322027E+00 0.31538493E+04</pdfrwt>
<totfact> 0.85011626E-01</totfact>
</mgrwt>
</event>
<event>
 8    2  0.4480234E-052  0.1356138E+04  0.7818608E-02  0.8986195E-01
         -2   -1    0    0    0  501 -0.00000000000E+00  0.00000000000E+00  0.47681818619E+03  0.47681818620E+03  0.25500000000E-02 0. -1.
          2   -1    0    0  501    0  0.00000000000E+00 -0.00000000000E+00 -0.96426143195E+03  0.96426143196E+03  0.25500000000E-02 0.  1.
    -200001    2    1    2    0    0  0.21841181688E+03 -0.98697456990E+01 -0.44757624721E+03  0.78903704960E+03  0.61192633131E+03 0.  0.
   -5000001    2    3    3    0    0  0.29985905401E+03  0.84327737659E+02 -0.76496483127E+01  0.32080288733E+03  0.76350218005E+02 0.  0.
     200001    1    1    2    0    0 -0.21841181688E+03  0.98697456990E+01 -0.39866998555E+02  0.65204256855E+03  0.61300000000E+03 0. -1.
         13    1    4    4    0    0  0.24753365572E+03  0.56528596844E+02  0.37396323479E+00  0.25390656547E+03  0.10566000000E+00 0.  1.
    -200003    1    4    4    0    0  0.52325398284E+02  0.27799140814E+02 -0.80236115475E+01  0.66896321856E+02  0.30000000000E+02 0. -1.
    -200000    1    3    3    0    0 -0.81447237127E+02 -0.94197483358E+02 -0.43992659889E+03  0.46823416227E+03  0.10100000000E+03 0.  1.
<mgrwt>
<rscale>  0 0.13561377E+04</rscale>
<asrwt>0</asrwt>
<pdfrwt beam="1">  1        2 0.13775163E+00 0.13561377E+04</pdfrwt>
<pdfrwt beam="2">  1       -2 0.68116884E-01 0.13561377E+04</pdfrwt>
<totfact> 0.57032382E+01</totfact>
</mgrwt>
</event>
<event>
 8    2  0.4480234E-052  0.1295357E+04  0.7818608E-02  0.9033255E-01
         -2   -1    0    0    0  501 -0.00000000000E+00  0.00000000000E+00  0.44669895933E+03  0.44669895934E+03  0.25500000000E-02 0. -1.
          2   -1    0    0  501    0  0.00000000000E+00 -0.00000000000E+00 -0.93908264063E+03  0.93908264064E+03  0.25500000000E-02 0.  1.
    -200001    2    1    2    0    0 -0.15524217818E+03 -0.13736433822E+03 -0.27323656992E+03  0.70258063999E+03  0.61318205881E+03 0.  0.
   -5000001    2    3    3    0    0 -0.24362885643E+03 -0.16182042385E+03 -0.40949583346E+03  0.50976494581E+03  0.81440733659E+02 0.  0.
     200001    1    1    2    0    0  0.15524217818E+03  0.13736433822E+03 -0.21914711138E+03  0.68320095999E+03  0.61300000000E+03 0.  1.
         13    1    4    4    0    0 -0.15634055441E+03 -0.67691320302E+02 -0.20633267181E+03  0.26757740266E+03  0.10566000000E+00 0.  1.
    -200003    1    4    4    0    0 -0.87288302023E+02 -0.94129103543E+02 -0.20316316166E+03  0.24218754315E+03  0.30000000000E+02 0. -1.
    -200000    1    3    3    0    0  0.88386678254E+02  0.24456085626E+02  0.13625926355E+03  0.19281569417E+03  0.10100000000E+03 0.  1.
<mgrwt>
<rscale>  0 0.12953567E+04</rscale>
<asrwt>0</asrwt>
<pdfrwt beam="1">  1        2 0.13415466E+00 0.12953567E+04</pdfrwt>
<pdfrwt beam="2">  1       -2 0.63814137E-01 0.12953567E+04</pdfrwt>
<totfact> 0.68392490E+01</totfact>
</mgrwt>
</event>
<event>
 8    2  0.4480234E-052  0.1328855E+04  0.7818608E-02  0.9006991E-01
          2   -1    0    0  501    0  0.00000000000E+00  0.00000000000E+00  0.30486926984E+03  0.30486926985E+03  0.25500000000E-02 0.  1.
         -2   -1    0    0    0  501 -0.00000000000E+00 -0.00000000000E+00 -0.14480433351E+04  0.14480433351E+04  0.25500000000E-02 0. -1.
    -200001    2    1    2    0    0 -0.10833616598E+03  0.79734653718E+02 -0.85761583971E+03  0.10634150777E+04  0.61420872600E+03 0.  0.
   -5000001    2    3    3    0    0  0.73651557218E+02 -0.15897617514E+03 -0.60067157036E+02  0.20528496376E+03  0.88520488299E+02 0.  0.
     200001    1    1    2    0    0  0.10833616598E+03 -0.79734653718E+02 -0.28555822551E+03  0.68949752720E+03  0.61300000000E+03 0.  1.
         13    1    4    4    0    0  0.14779202007E+02  0.20296569971E+01 -0.22888837118E+02  0.27321316735E+02  0.10566000000E+00 0.  1.
    -200003    1    4    4    0    0  0.58872355212E+02 -0.16100583214E+03 -0.37178319918E+02  0.17796364703E+03  0.30000000000E+02 0.  1.
    -200000    1    3    3    0    0 -0.18198772320E+03  0.23871082886E+03 -0.79754868268E+03  0.85813011394E+03  0.10100000000E+03 0. -1.
<mgrwt>
<rscale>  0 0.13288550E+04</rscale>
<asrwt>0</asrwt>
<pdfrwt beam="1">  1        2 0.43552753E-01 0.13288550E+04</pdfrwt>
<pdfrwt beam="2">  1       -2 0.20686333E+00 0.13288550E+04</pdfrwt>
<totfact> 0.13760180E+01</totfact>
</mgrwt>
</event>
<event>
 8    2  0.4480234E-052  0.1281634E+04  0.7818608E-02  0.9044257E-01
          2   -1    0    0  501    0  0.00000000000E+00  0.00000000000E+00  0.15897716414E+04  0.15897716414E+04  0.25500000000E-02 0.  1.
         -2   -1    0    0    0  501 -0.00000000000E+00 -0.00000000000E+00 -0.25830542343E+03  0.25830542344E+03  0.25500000000E-02 0. -1.
    -200001    2    1    2    0    0 -0.14209789841E+03  0.10997219873E+03  0.73735840900E+03  0.97571315803E+03  0.61321533427E+03 0.  0.
   -5000001    2    3    3    0    0  0.98373440413E+01 -0.19968302256E+03  0.49699869804E+03  0.54334240898E+03  0.90791985900E+02 0.  0.
     200001    1    1    2    0    0  0.14209789841E+03 -0.10997219873E+03  0.59410780893E+03  0.87236390679E+03  0.61300000000E+03 0. -1.
         13    1    4    4    0    0 -0.23947968588E+02 -0.14252997436E+02  0.48744097458E+02  0.56148475816E+02  0.10566000000E+00 0.  1.
    -200003    1    4    4    0    0  0.33785312629E+02 -0.18543002513E+03  0.44825460058E+03  0.48719393317E+03  0.30000000000E+02 0.  1.
    -200000    1    3    3    0    0 -0.15193524246E+03  0.30965522130E+03  0.24035971096E+03  0.43237074904E+03  0.10100000000E+03 0.  1.
<mgrwt>
<rscale>  0 0.12816343E+04</rscale>
<asrwt>0</asrwt>
<pdfrwt beam="1">  1        2 0.22711023E+00 0.12816343E+04</pdfrwt>
<pdfrwt beam="2">  1       -2 0.36900775E-01 0.12816343E+04</pdfrwt>
<totfact> 0.88950669E+01</totfact>
</mgrwt>
</event>
<event>
 8    2  0.4480234E-052  0.1522211E+04  0.7818608E-02  0.8869816E-01
          2   -1    0    0  501    0  0.00000000000E+00  0.00000000000E+00  0.16089412774E+04  0.16089412774E+04  0.25500000000E-02 0.  1.
         -2   -1    0    0    0  501 -0.00000000000E+00 -0.00000000000E+00 -0.36003896330E+03  0.36003896331E+03  0.25500000000E-02 0. -1.
    -200001    2    1    2    0    0 -0.10308356478E+03  0.41683881847E+03  0.80280340861E+03  0.10976857696E+04  0.61322093404E+03 0.  0.
   -5000001    2    3    3    0    0  0.11977753313E+03  0.25419220007E+03  0.74139522594E+03  0.79753088233E+03  0.86187558307E+02 0.  0.
     200001    1    1    2    0    0  0.10308356478E+03 -0.41683881847E+03  0.44609890544E+03  0.87129447109E+03  0.61300000000E+03 0. -1.
         13    1    4    4    0    0  0.11610378450E+03  0.20288220686E+03  0.61070797520E+03  0.65391553031E+03  0.10566000000E+00 0.  1.
    -200003    1    4    4    0    0  0.36737486337E+01  0.51309993208E+02  0.13068725073E+03  0.14361535202E+03  0.30000000000E+02 0. -1.
    -200000    1    3    3    0    0 -0.22286109791E+03  0.16264661840E+03  0.61408182670E+02  0.30015488725E+03  0.10100000000E+03 0. -1.
<mgrwt>
<rscale>  0 0.15222110E+04</rscale>
<asrwt>0</asrwt>
<pdfrwt beam="1">  1        2 0.22984875E+00 0.15222110E+04</pdfrwt>
<pdfrwt beam="2">  1       -2 0.51434138E-01 0.15222110E+04</pdfrwt>
<totfact> 0.44157576E+01</totfact>
</mgrwt>
</event>
<event>
 8    2  0.4480234E-052  0.1463910E+04  0.7818608E-02  0.8908813E-01
          2   -1    0    0  501    0  0.00000000000E+00  0.00000000000E+00  0.24480767782E+03  0.24480767783E+03  0.25500000000E-02 0.  1.
         -2   -1    0    0    0  501 -0.00000000000E+00 -0.00000000000E+00 -0.21884865132E+04  0.21884865132E+04  0.25500000000E-02 0. -1.
    -200001    2    1    2    0    0 -0.39724198401E+03  0.35041671830E+02 -0.92073915832E+03  0.11758349688E+04  0.61302378712E+03 0.  0.
   -5000001    2    3    3    0    0  0.12322617669E+03 -0.64469514751E+02 -0.14252194741E+03  0.22893866513E+03  0.11295750503E+03 0.  0.
     200001    1    1    2    0    0  0.39724198401E+03 -0.35041671830E+02 -0.10229396770E+04  0.12574592222E+04  0.61300000000E+03 0.  1.
         13    1    4    4    0    0  0.11136011958E+03 -0.60396060615E+02 -0.59866817467E+02  0.14011712019E+03  0.10566000000E+00 0.  1.
    -200003    1    4    4    0    0  0.11866057109E+02 -0.40734541353E+01 -0.82655129943E+02  0.88821544942E+02  0.30000000000E+02 0.  1.
    -200000    1    3    3    0    0 -0.52046816070E+03  0.99511186581E+02 -0.77821721091E+03  0.94689630368E+03  0.10100000000E+03 0. -1.
<mgrwt>
<rscale>  0 0.14639102E+04</rscale>
<asrwt>0</asrwt>
<pdfrwt beam="1">  1        2 0.34972527E-01 0.14639102E+04</pdfrwt>
<pdfrwt beam="2">  1       -2 0.31264092E+00 0.14639102E+04</pdfrwt>
<totfact> 0.38832481E+00</totfact>
</mgrwt>
</event>
<event>
 8    2  0.4480234E-052  0.1249287E+04  0.7818608E-02  0.9070777E-01
         -2   -1    0    0    0  501 -0.00000000000E+00  0.00000000000E+00  0.18796535352E+03  0.18796535354E+03  0.25500000000E-02 0. -1.
          2   -1    0    0  501    0  0.00000000000E+00 -0.00000000000E+00 -0.20758064406E+04  0.20758064406E+04  0.25500000000E-02 0.  1.
    -200001    2    1    2    0    0  0.10374372990E+03 -0.42257917406E+02 -0.86142033901E+03  0.10629982746E+04  0.61267596520E+03 0.  0.
   -5000001    2    3    3    0    0 -0.23542806460E+03 -0.17476466527E+02 -0.24708919949E+03  0.35359333000E+03  0.90793006497E+02 0.  0.
     200001    1    1    2    0    0 -0.10374372990E+03  0.42257917406E+02 -0.10264207481E+04  0.12007735195E+04  0.61300000000E+03 0.  1.
         13    1    4    4    0    0 -0.13111999123E+03  0.18070045807E+01 -0.18595173656E+03  0.22753851731E+03  0.10566000000E+00 0.  1.
    -200003    1    4    4    0    0 -0.10430807337E+03 -0.19283471108E+02 -0.61137462939E+02  0.12605481269E+03  0.30000000000E+02 0.  1.
    -200000    1    3    3    0    0  0.33917179450E+03 -0.24781450879E+02 -0.61433113952E+03  0.70940494464E+03  0.10100000000E+03 0. -1.
<mgrwt>
<rscale>  0 0.12492873E+04</rscale>
<asrwt>0</asrwt>
<pdfrwt beam="1">  1        2 0.29654376E+00 0.12492873E+04</pdfrwt>
<pdfrwt beam="2">  1       -2 0.26852195E-01 0.12492873E+04</pdfrwt>
<totfact> 0.90886534E+01</totfact>
</mgrwt>
</event>
<event>
 8    2  0.4480234E-052  0.1905595E+04  0.7818608E-02  0.8652076E-01
         -2   -1    0    0    0  501 -0.00000000000E+00  0.00000000000E+00  0.85754892443E+03  0.85754892444E+03  0.25500000000E-02 0. -1.
          2   -1    0    0  501    0  0.00000000000E+00 -0.00000000000E+00 -0.10586258545E+04  0.10586258545E+04  0.25500000000E-02 0.  1.
    -200001    2    1    2    0    0  0.46442087318E+03 -0.16290712797E+03  0.44075633356E+03  0.90131300606E+03  0.61308523840E+03 0.  0.
   -5000001    2    3    3    0    0  0.12406240531E+03 -0.97389666508E+01  0.48952021298E+03  0.51159094071E+03  0.81295287750E+02 0.  0.
     200001    1    1    2    0    0 -0.46442087318E+03  0.16290712797E+03 -0.64183326367E+03  0.10148617729E+04  0.61300000000E+03 0.  1.
         13    1    4    4    0    0  0.52741908522E+02 -0.23514779460E+02  0.11237051023E+03  0.12634000357E+03  0.10566000000E+00 0.  1.
    -200003    1    4    4    0    0  0.71320496791E+02  0.13775812809E+02  0.37714970275E+03  0.38525093714E+03  0.30000000000E+02 0.  1.
    -200000    1    3    3    0    0  0.34035846786E+03 -0.15316816132E+03 -0.48763879428E+02  0.38972206535E+03  0.10100000000E+03 0. -1.
<mgrwt>
<rscale>  0 0.19055954E+04</rscale>
<asrwt>0</asrwt>
<pdfrwt beam="1">  1        2 0.15123226E+00 0.19055954E+04</pdfrwt>
<pdfrwt beam="2">  1       -2 0.12250699E+00 0.19055954E+04</pdfrwt>
<totfact> 0.12254474E+01</totfact>
</mgrwt>
</event>
<event>
 8    2  0.4480234E-052  0.1774786E+04  0.7818608E-02  0.8719824E-01
         -2   -1    0    0    0  501 -0.00000000000E+00  0.00000000000E+00  0.47400849726E+03  0.47400849726E+03  0.25500000000E-02 0. -1.
          2   -1    0    0  501    0  0.00000000000E+00 -0.00000000000E+00 -0.16612910522E+04  0.16612910522E+04  0.25500000000E-02 0.  1.
    -200001    2    1    2    0    0  0.23021853712E+03  0.54617632534E+03 -0.29569904758E+03  0.90160619055E+03  0.61167527571E+03 0.  0.
   -5000001    2    3    3    0    0  0.38597092235E+03  0.46127883845E+03 -0.18168492869E+03  0.66779727693E+03  0.22625664643E+03 0.  0.
     200001    1    1    2    0    0 -0.23021853712E+03 -0.54617632534E+03 -0.89158350732E+03  0.12336933589E+04  0.61300000000E+03 0.  1.
         13    1    4    4    0    0  0.24555136913E+03  0.38846134146E+03 -0.20838576682E+03  0.50460115702E+03  0.10566000000E+00 0.  1.
    -200003    1    4    4    0    0  0.14041955322E+03  0.72817496991E+02  0.26700838128E+02  0.16319611990E+03  0.30000000000E+02 0.  1.
    -200000    1    3    3    0    0 -0.15575238523E+03  0.84897486886E+02 -0.11401411889E+03  0.23380891363E+03  0.10100000000E+03 0.  1.
<mgrwt>
<rscale>  0 0.17747857E+04</rscale>
<asrwt>0</asrwt>
<pdfrwt beam="1">  1        2 0.23732729E+00 0.17747857E+04</pdfrwt>
<pdfrwt beam="2">  1       -2 0.67715501E-01 0.17747857E+04</pdfrwt>
<totfact> 0.22779211E+01</totfact>
</mgrwt>
</event>
<event>
 8    2  0.4480234E-052  0.1272108E+04  0.7818608E-02  0.9051981E-01
         -2   -1    0    0    0  501 -0.00000000000E+00  0.00000000000E+00  0.34010750251E+03  0.34010750252E+03  0.25500000000E-02 0. -1.
          2   -1    0    0  501    0  0.00000000000E+00 -0.00000000000E+00 -0.11895193657E+04  0.11895193657E+04  0.25500000000E-02 0.  1.
    -200001    2    1    2    0    0 -0.13832250565E+03  0.84378289909E+02 -0.37407506358E+03  0.73718325227E+03  0.61421021064E+03 0.  0.
   -5000001    2    3    3    0    0 -0.19310512322E+03  0.22484210977E+03  0.18068461580E+02  0.30508515669E+03  0.70049415360E+02 0.  0.
     200001    1    1    2    0    0  0.13832250565E+03 -0.84378289909E+02 -0.47533679960E+03  0.79244361593E+03  0.61300000000E+03 0.  1.
         13    1    4    4    0    0 -0.10010171803E+03  0.14179368210E+03 -0.98117210589E+01  0.17384499783E+03  0.10566000000E+00 0.  1.
    -200003    1    4    4    0    0 -0.93003405190E+02  0.83048427671E+02  0.27880182639E+02  0.13124015887E+03  0.30000000000E+02 0. -1.
    -200000    1    3    3    0    0  0.54782617569E+02 -0.14046381986E+03 -0.39214352516E+03  0.43209809558E+03  0.10100000000E+03 0.  1.
<mgrwt>
<rscale>  0 0.12721076E+04</rscale>
<asrwt>0</asrwt>
<pdfrwt beam="1">  1        2 0.16993134E+00 0.12721076E+04</pdfrwt>
<pdfrwt beam="2">  1       -2 0.48586787E-01 0.12721076E+04</pdfrwt>
<totfact> 0.85385367E+01</totfact>
</mgrwt>
</event>
<event>
 8    2  0.4480234E-052  0.3513810E+04  0.7818608E-02  0.8110525E-01
          2   -1    0    0  501    0  0.00000000000E+00  0.00000000000E+00  0.18338806355E+04  0.18338806355E+04  0.25500000000E-02 0.  1.
         -2   -1    0    0    0  501 -0.00000000000E+00 -0.00000000000E+00 -0.16831605370E+04  0.16831605370E+04  0.25500000000E-02 0. -1.
    -200001    2    1    2    0    0 -0.14258420004E+04 -0.44286892530E+02  0.89826742399E+03  0.17937934415E+04  0.61304470210E+03 0.  0.
   -5000001    2    3    3    0    0 -0.35983100793E+03  0.16298716634E+03  0.45305884283E+02  0.40920456397E+03  0.96708744996E+02 0.  0.
     200001    1    1    2    0    0  0.14258420004E+04  0.44286892530E+02 -0.74754732551E+03  0.17232477311E+04  0.61300000000E+03 0. -1.
         13    1    4    4    0    0 -0.30836484899E+03  0.14104152354E+03  0.59195820156E+02  0.34421758779E+03  0.10566000000E+00 0.  1.
    -200003    1    4    4    0    0 -0.51466158943E+02  0.21945642804E+02 -0.13889935872E+02  0.64986976180E+02  0.30000000000E+02 0.  1.
    -200000    1    3    3    0    0 -0.10660109924E+04 -0.20727405887E+03  0.85296153971E+03  0.13845888775E+04  0.10100000000E+03 0.  1.
<mgrwt>
<rscale>  0 0.35138102E+04</rscale>
<asrwt>0</asrwt>
<pdfrwt beam="1">  1        2 0.26198295E+00 0.35138102E+04</pdfrwt>
<pdfrwt beam="2">  1       -2 0.24045151E+00 0.35138102E+04</pdfrwt>
<totfact> 0.59615917E-01</totfact>
</mgrwt>
</event>
<event>
 8    2  0.4480234E-052  0.1406337E+04  0.7818608E-02  0.8949244E-01
          2   -1    0    0  501    0  0.00000000000E+00  0.00000000000E+00  0.16237655974E+04  0.16237655974E+04  0.25500000000E-02 0.  1.
         -2   -1    0    0    0  501 -0.00000000000E+00 -0.00000000000E+00 -0.30450566001E+03  0.30450566002E+03  0.25500000000E-02 0. -1.
    -200001    2    1    2    0    0 -0.58299513131E+02  0.28073799329E+03  0.39725562534E+03  0.78456080213E+03  0.61278949588E+03 0.  0.
   -5000001    2    3    3    0    0 -0.26114202114E+03  0.24241042485E+03  0.41673220292E+03  0.55392164103E+03  0.78774908288E+02 0.  0.
     200001    1    1    2    0    0  0.58299513131E+02 -0.28073799329E+03  0.92200431210E+03  0.11437104553E+04  0.61300000000E+03 0.  1.
         13    1    4    4    0    0 -0.66777114897E+02  0.10132771806E+03  0.16361902440E+03  0.20370980789E+03  0.10566000000E+00 0.  1.
    -200003    1    4    4    0    0 -0.19436490624E+03  0.14108270679E+03  0.25311317851E+03  0.35021183314E+03  0.30000000000E+02 0.  1.
    -200000    1    3    3    0    0  0.20284250800E+03  0.38327568445E+02 -0.19476577580E+02  0.23063916110E+03  0.10100000000E+03 0. -1.
<mgrwt>
<rscale>  0 0.14063368E+04</rscale>
<asrwt>0</asrwt>
<pdfrwt beam="1">  1        2 0.23196651E+00 0.14063368E+04</pdfrwt>
<pdfrwt beam="2">  1       -2 0.43500809E-01 0.14063368E+04</pdfrwt>
<totfact> 0.61335194E+01</totfact>
</mgrwt>
</event>
<event>
 8    2  0.4480234E-052  0.1436511E+04  0.7818608E-02  0.8927806E-01
         -2   -1    0    0    0  501 -0.00000000000E+00  0.00000000000E+00  0.47795311015E+03  0.47795311016E+03  0.25500000000E-02 0.  1.
          2   -1    0    0  501    0  0.00000000000E+00 -0.00000000000E+00 -0.10793754765E+04  0.10793754765E+04  0.25500000000E-02 0. -1.
    -200001    2    1    2    0    0 -0.10778141169E+03  0.29637823233E+03 -0.84823411645E+02  0.69587611014E+03  0.61448487386E+03 0.  0.
   -5000001    2    3    3    0    0 -0.31095592629E+03  0.32398883965E+03 -0.92227496525E+02  0.46718844215E+03  0.89982070719E+02 0.  0.
     200001    1    1    2    0    0  0.10778141169E+03 -0.29637823233E+03 -0.51659895471E+03  0.86145247653E+03  0.61300000000E+03 0. -1.
         13    1    4    4    0    0 -0.15472765913E+03  0.14826182108E+03 -0.42100881351E+01  0.21433607278E+03  0.10566000000E+00 0.  1.
    -200003    1    4    4    0    0 -0.15622826717E+03  0.17572701857E+03 -0.88017408390E+02  0.25285236937E+03  0.30000000000E+02 0.  1.
    -200000    1    3    3    0    0  0.20317451460E+03 -0.27610607311E+02  0.74040848801E+01  0.22868766799E+03  0.10100000000E+03 0. -1.
<mgrwt>
<rscale>  0 0.14365109E+04</rscale>
<asrwt>0</asrwt>
<pdfrwt beam="1">  1        2 0.15419650E+00 0.14365109E+04</pdfrwt>
<pdfrwt beam="2">  1       -2 0.68279016E-01 0.14365109E+04</pdfrwt>
<totfact> 0.47958192E+01</totfact>
</mgrwt>
</event>
<event>
 8    2  0.4480234E-052  0.1328310E+04  0.7818608E-02  0.9007411E-01
          2   -1    0    0  501    0  0.00000000000E+00  0.00000000000E+00  0.12688937701E+04  0.12688937701E+04  0.25500000000E-02 0.  1.
         -2   -1    0    0    0  501 -0.00000000000E+00 -0.00000000000E+00 -0.34762712336E+03  0.34762712337E+03  0.25500000000E-02 0. -1.
    -200001    2    1    2    0    0  0.16513983445E+03 -0.76189000151E+02  0.24541781628E+03  0.68613572038E+03  0.61439107543E+03 0.  0.
   -5000001    2    3    3    0    0  0.10020315285E+03  0.22272672647E+03 -0.35041119177E+02  0.25902262211E+03  0.78847778701E+02 0.  0.
     200001    1    1    2    0    0 -0.16513983445E+03  0.76189000151E+02  0.67584883047E+03  0.93038517310E+03  0.61300000000E+03 0.  1.
         13    1    4    4    0    0  0.71144485468E+02  0.16360939830E+03 -0.49632888896E+02  0.18518371378E+03  0.10566000000E+00 0.  1.
    -200003    1    4    4    0    0  0.29058667377E+02  0.59117328170E+02  0.14591769719E+02  0.73838908329E+02  0.30000000000E+02 0. -1.
    -200000    1    3    3    0    0  0.64936681604E+02 -0.29891572662E+03  0.28045893546E+03  0.42711309827E+03  0.10100000000E+03 0.  1.
<mgrwt>
<rscale>  0 0.13283100E+04</rscale>
<asrwt>0</asrwt>
<pdfrwt beam="1">  1        2 0.18127054E+00 0.13283100E+04</pdfrwt>
<pdfrwt beam="2">  1       -2 0.49661017E-01 0.13283100E+04</pdfrwt>
<totfact> 0.73375080E+01</totfact>
</mgrwt>
</event>
<event>
 8    2  0.4480234E-052  0.2125759E+04  0.7818608E-02  0.8549981E-01
          2   -1    0    0  501    0  0.00000000000E+00  0.00000000000E+00  0.33088419434E+04  0.33088419434E+04  0.25500000000E-02 0.  1.
         -2   -1    0    0    0  501 -0.00000000000E+00 -0.00000000000E+00 -0.34142236478E+03  0.34142236479E+03  0.25500000000E-02 0. -1.
    -200001    2    1    2    0    0  0.81914472721E+02  0.71771155049E+03  0.23116593508E+04  0.24980445692E+04  0.61207668219E+03 0.  0.
   -5000001    2    3    3    0    0 -0.53792569755E+02 -0.75115050497E+02  0.24756616717E+03  0.28046208111E+03  0.93989682656E+02 0.  0.
     200001    1    1    2    0    0 -0.81914472721E+02 -0.71771155049E+03  0.65576022777E+03  0.11522197390E+04  0.61300000000E+03 0. -1.
         13    1    4    4    0    0  0.10480150559E+02 -0.39633300171E+02  0.14572911544E+03  0.15138566078E+03  0.10566000000E+00 0.  1.
    -200003    1    4    4    0    0 -0.64272720314E+02 -0.35481750327E+02  0.10183705173E+03  0.12907642034E+03  0.30000000000E+02 0.  1.
    -200000    1    3    3    0    0  0.13570704248E+03  0.79282660099E+03  0.20640931837E+04  0.22175824881E+04  0.10100000000E+03 0.  1.
<mgrwt>
<rscale>  0 0.21257588E+04</rscale>
<asrwt>0</asrwt>
<pdfrwt beam="1">  1        2 0.47269173E+00 0.21257588E+04</pdfrwt>
<pdfrwt beam="2">  1       -2 0.48774621E-01 0.21257588E+04</pdfrwt>
<totfact> 0.57664149E+00</totfact>
</mgrwt>
</event>
<event>
 8    2  0.4480234E-052  0.1372455E+04  0.7818608E-02  0.8974002E-01
          2   -1    0    0  501    0  0.00000000000E+00  0.00000000000E+00  0.23832341323E+04  0.23832341323E+04  0.25500000000E-02 0.  1.
         -2   -1    0    0    0  501 -0.00000000000E+00 -0.00000000000E+00 -0.19759214848E+03  0.19759214850E+03  0.25500000000E-02 0. -1.
    -200001    2    1    2    0    0  0.23751227285E+03  0.60976640984E+02  0.74168131539E+03  0.99308523060E+03  0.61318583737E+03 0.  0.
   -5000001    2    3    3    0    0  0.14564548754E+03  0.98731233161E+02 -0.39388093634E+02  0.19927458745E+03  0.84843826186E+02 0.  0.
     200001    1    1    2    0    0 -0.23751227285E+03 -0.60976640984E+02  0.14439606684E+04  0.15877410502E+04  0.61300000000E+03 0.  1.
         13    1    4    4    0    0  0.84797622933E+02  0.72267121429E+02  0.91039183560E+01  0.11178580495E+03  0.10566000000E+00 0.  1.
    -200003    1    4    4    0    0  0.60847864608E+02  0.26464111732E+02 -0.48492011990E+02  0.87488782504E+02  0.30000000000E+02 0.  1.
    -200000    1    3    3    0    0  0.91866785306E+02 -0.37754592177E+02  0.78106940902E+03  0.79381064315E+03  0.10100000000E+03 0.  1.
<mgrwt>
<rscale>  0 0.13724552E+04</rscale>
<asrwt>0</asrwt>
<pdfrwt beam="1">  1        2 0.34046200E+00 0.13724552E+04</pdfrwt>
<pdfrwt beam="2">  1       -2 0.28227451E-01 0.13724552E+04</pdfrwt>
<totfact> 0.57012185E+01</totfact>
</mgrwt>
</event>
<event>
 8    2  0.4480234E-052  0.1572054E+04  0.7818608E-02  0.8837903E-01
          2   -1    0    0  501    0  0.00000000000E+00  0.00000000000E+00  0.62912502481E+03  0.62912502481E+03  0.25500000000E-02 0.  1.
         -2   -1    0    0    0  501 -0.00000000000E+00 -0.00000000000E+00 -0.98205952698E+03  0.98205952698E+03  0.25500000000E-02 0. -1.
    -200001    2    1    2    0    0  0.22143846156E+03 -0.36443627883E+03  0.74236333905E+02  0.75089813625E+03  0.61358632983E+03 0.  0.
   -5000001    2    3    3    0    0  0.24877645414E+03  0.42137730293E+02 -0.16495932611E+02  0.32138313660E+03  0.19836756854E+03 0.  0.
     200001    1    1    2    0    0 -0.22143846156E+03  0.36443627883E+03 -0.42717083608E+03  0.86028641555E+03  0.61300000000E+03 0. -1.
         13    1    4    4    0    0  0.36521567277E+02 -0.13530421675E+02  0.72816550661E+02  0.82578195677E+02  0.10566000000E+00 0.  1.
    -200003    1    4    4    0    0  0.21225488686E+03  0.55668151968E+02 -0.89312483272E+02  0.23880494092E+03  0.30000000000E+02 0.  1.
    -200000    1    3    3    0    0 -0.27337992578E+02 -0.40657400913E+03  0.90732266516E+02  0.42951499965E+03  0.10100000000E+03 0. -1.
<mgrwt>
<rscale>  0 0.15720537E+04</rscale>
<asrwt>0</asrwt>
<pdfrwt beam="1">  1        2 0.89875004E-01 0.15720537E+04</pdfrwt>
<pdfrwt beam="2">  1       -2 0.14029422E+00 0.15720537E+04</pdfrwt>
<totfact> 0.17630749E+01</totfact>
</mgrwt>
</event>
<event>
 8    2  0.4480234E-052  0.1528939E+04  0.7818608E-02  0.8865434E-01
         -2   -1    0    0    0  501 -0.00000000000E+00  0.00000000000E+00  0.61092982948E+03  0.61092982948E+03  0.25500000000E-02 0. -1.
          2   -1    0    0  501    0  0.00000000000E+00 -0.00000000000E+00 -0.95659696897E+03  0.95659696897E+03  0.25500000000E-02 0.  1.
    -200001    2    1    2    0    0 -0.28802297785E+02 -0.61450596123E+01 -0.63987649231E+03  0.88694213994E+03  0.61347950257E+03 0.  0.
   -5000001    2    3    3    0    0 -0.12127638414E+03 -0.13487898158E+03 -0.66855042993E+03  0.69681830132E+03  0.75470303216E+02 0.  0.
     200001    1    1    2    0    0  0.28802297785E+02  0.61450596123E+01  0.29420935282E+03  0.68058465851E+03  0.61300000000E+03 0. -1.
         13    1    4    4    0    0 -0.70243872805E+02 -0.30980420937E+02 -0.25025471602E+03  0.26176596839E+03  0.10566000000E+00 0.  1.
    -200003    1    4    4    0    0 -0.51032511332E+02 -0.10389856065E+03 -0.41829571391E+03  0.43505233294E+03  0.30000000000E+02 0.  1.
    -200000    1    3    3    0    0  0.92474086351E+02  0.12873392197E+03  0.28673937628E+02  0.19012383862E+03  0.10100000000E+03 0. -1.
<mgrwt>
<rscale>  0 0.15289390E+04</rscale>
<asrwt>0</asrwt>
<pdfrwt beam="1">  1        2 0.13665671E+00 0.15289390E+04</pdfrwt>
<pdfrwt beam="2">  1       -2 0.87275690E-01 0.15289390E+04</pdfrwt>
<totfact> 0.32770791E+01</totfact>
</mgrwt>
</event>
<event>
 8    2  0.4480234E-052  0.2297554E+04  0.7818608E-02  0.8478886E-01
         -2   -1    0    0    0  501 -0.00000000000E+00  0.00000000000E+00  0.11117078740E+04  0.11117078740E+04  0.25500000000E-02 0. -1.
          2   -1    0    0  501    0  0.00000000000E+00 -0.00000000000E+00 -0.11870825661E+04  0.11870825661E+04  0.25500000000E-02 0.  1.
    -200001    2    1    2    0    0 -0.15159338244E+03 -0.12583536217E+03  0.91415091918E+03  0.11182206509E+04  0.61313165714E+03 0.  0.
   -5000001    2    3    3    0    0 -0.18342811693E+03 -0.25099795843E+03  0.89633743496E+03  0.95330416883E+03  0.93392675206E+02 0.  0.
     200001    1    1    2    0    0  0.15159338244E+03  0.12583536217E+03 -0.98952561130E+03  0.11805697893E+04  0.61300000000E+03 0.  1.
         13    1    4    4    0    0  0.11537247372E+01 -0.32283121044E+02  0.51392075134E+02  0.60701627125E+02  0.10566000000E+00 0.  1.
    -200003    1    4    4    0    0 -0.18458184166E+03 -0.21871483739E+03  0.84494535983E+03  0.89260254171E+03  0.30000000000E+02 0.  1.
    -200000    1    3    3    0    0  0.31834734484E+02  0.12516259626E+03  0.17813484218E+02  0.16491648202E+03  0.10100000000E+03 0. -1.
<mgrwt>
<rscale>  0 0.22975544E+04</rscale>
<asrwt>0</asrwt>
<pdfrwt beam="1">  1        2 0.16958322E+00 0.22975544E+04</pdfrwt>
<pdfrwt beam="2">  1       -2 0.15881541E+00 0.22975544E+04</pdfrwt>
<totfact> 0.50924689E+00</totfact>
</mgrwt>
</event>
<event>
 8    2  0.4480234E-052  0.1263998E+04  0.7818608E-02  0.9058612E-01
         -2   -1    0    0    0  501 -0.00000000000E+00  0.00000000000E+00  0.44334615287E+03  0.44334615288E+03  0.25500000000E-02 0. -1.
          2   -1    0    0  501    0  0.00000000000E+00 -0.00000000000E+00 -0.90092808153E+03  0.90092808154E+03  0.25500000000E-02 0.  1.
    -200001    2    1    2    0    0 -0.36979945192E+02 -0.14877255876E+03 -0.21369748365E+03  0.66696380846E+03  0.61292194992E+03 0.  0.
   -5000001    2    3    3    0    0 -0.26109743830E+02 -0.29069909135E+03 -0.33607158236E+03  0.45380255034E+03  0.88345717464E+02 0.  0.
     200001    1    1    2    0    0  0.36979945192E+02  0.14877255876E+03 -0.24388444501E+03  0.67731042595E+03  0.61300000000E+03 0. -1.
         13    1    4    4    0    0 -0.22712448908E+02 -0.23223120886E+03 -0.29541215578E+03  0.37645124870E+03  0.10566000000E+00 0.  1.
    -200003    1    4    4    0    0 -0.33972949224E+01 -0.58467882491E+02 -0.40659426581E+02  0.77351301642E+02  0.30000000000E+02 0.  1.
    -200000    1    3    3    0    0 -0.10870201362E+02  0.14192653258E+03  0.12237409871E+03  0.21316125812E+03  0.10100000000E+03 0. -1.
<mgrwt>
<rscale>  0 0.12639984E+04</rscale>
<asrwt>0</asrwt>
<pdfrwt beam="1">  1        2 0.12870401E+00 0.12639984E+04</pdfrwt>
<pdfrwt beam="2">  1       -2 0.63335165E-01 0.12639984E+04</pdfrwt>
<totfact> 0.73722921E+01</totfact>
</mgrwt>
</event>
<event>
 8    2  0.4480234E-052  0.1585829E+04  0.7818608E-02  0.8829301E-01
          2   -1    0    0  501    0  0.00000000000E+00  0.00000000000E+00  0.22835981169E+04  0.22835981169E+04  0.25500000000E-02 0.  1.
         -2   -1    0    0    0  501 -0.00000000000E+00 -0.00000000000E+00 -0.27531713817E+03  0.27531713818E+03  0.25500000000E-02 0. -1.
    -200001    2    1    2    0    0  0.20820444481E+02  0.27757536907E+03  0.31410953689E+03  0.73587728213E+03  0.60445760544E+03 0.  0.
   -5000001    2    3    3    0    0  0.14210950057E+03  0.22630879173E+03  0.44517019026E+03  0.52441288337E+03  0.73631478211E+02 0.  0.
     200001    1    1    2    0    0 -0.20820444481E+02 -0.27757536907E+03  0.16941714418E+04  0.18230379729E+04  0.61300000000E+03 0.  1.
         13    1    4    4    0    0  0.68657860016E+02  0.12168270021E+03  0.28414409528E+03  0.31663616237E+03  0.10566000000E+00 0.  1.
    -200003    1    4    4    0    0  0.73451640557E+02  0.10462609152E+03  0.16102609498E+03  0.20777672100E+03  0.30000000000E+02 0.  1.
    -200000    1    3    3    0    0 -0.12128905609E+03  0.51266577344E+02 -0.13106065337E+03  0.21146439876E+03  0.10100000000E+03 0. -1.
<mgrwt>
<rscale>  0 0.15858294E+04</rscale>
<asrwt>0</asrwt>
<pdfrwt beam="1">  1        2 0.32622829E+00 0.15858294E+04</pdfrwt>
<pdfrwt beam="2">  1       -2 0.39331021E-01 0.15858294E+04</pdfrwt>
<totfact> 0.33660412E+01</totfact>
</mgrwt>
</event>
<event>
 8    2  0.4480234E-052  0.2571579E+04  0.7818608E-02  0.8377920E-01
         -2   -1    0    0    0  501 -0.00000000000E+00  0.00000000000E+00  0.53249643373E+03  0.53249643374E+03  0.25500000000E-02 0. -1.
          2   -1    0    0  501    0  0.00000000000E+00 -0.00000000000E+00 -0.31047252955E+04  0.31047252955E+04  0.25500000000E-02 0.  1.
    -200001    2    1    2    0    0  0.57303206074E+03 -0.12412689007E+02  0.91042761487E+02  0.84485632393E+03  0.61398176372E+03 0.  0.
   -5000001    2    3    3    0    0  0.13269977947E+03 -0.11941551652E+03 -0.20701289495E+03  0.29314961076E+03  0.10589173035E+03 0.  0.
     200001    1    1    2    0    0 -0.57303206074E+03  0.12412689007E+02 -0.26632716232E+04  0.27923654053E+04  0.61300000000E+03 0.  1.
         13    1    4    4    0    0  0.42162484019E+02 -0.73246033287E+02 -0.15160998089E+03  0.17357492307E+03  0.10566000000E+00 0.  1.
    -200003    1    4    4    0    0  0.90537295449E+02 -0.46169483237E+02 -0.55402914062E+02  0.11957468769E+03  0.30000000000E+02 0.  1.
    -200000    1    3    3    0    0  0.44033228127E+03  0.10700282752E+03  0.29805565643E+03  0.55170671317E+03  0.10100000000E+03 0. -1.
<mgrwt>
<rscale>  0 0.25715794E+04</rscale>
<asrwt>0</asrwt>
<pdfrwt beam="1">  1        2 0.44353218E+00 0.25715794E+04</pdfrwt>
<pdfrwt beam="2">  1       -2 0.76070921E-01 0.25715794E+04</pdfrwt>
<totfact> 0.28380422E+00</totfact>
</mgrwt>
</event>
<event>
 8    2  0.4480234E-052  0.1243809E+04  0.7818608E-02  0.9075351E-01
         -2   -1    0    0    0  501 -0.00000000000E+00  0.00000000000E+00  0.33814560081E+03  0.33814560082E+03  0.25500000000E-02 0. -1.
          2   -1    0    0  501    0  0.00000000000E+00 -0.00000000000E+00 -0.11437838529E+04  0.11437838529E+04  0.25500000000E-02 0.  1.
    -200001    2    1    2    0    0 -0.32545668083E+02 -0.19910622402E+02 -0.52177143597E+03  0.80531654910E+03  0.61223660416E+03 0.  0.
   -5000001    2    3    3    0    0 -0.29221220783E+03  0.21705732987E+00 -0.39590008467E+03  0.49892393752E+03  0.82463306205E+02 0.  0.
     200001    1    1    2    0    0  0.32545668083E+02  0.19910622402E+02 -0.28386681611E+03  0.67661290461E+03  0.61300000000E+03 0. -1.
         13    1    4    4    0    0 -0.14914802378E+03  0.35165124657E+02 -0.19372178582E+03  0.24700174181E+03  0.10566000000E+00 0.  1.
    -200003    1    4    4    0    0 -0.14306418405E+03 -0.34948067327E+02 -0.20217829885E+03  0.25192219571E+03  0.30000000000E+02 0.  1.
    -200000    1    3    3    0    0  0.25966653975E+03 -0.20127679732E+02 -0.12587135130E+03  0.30639261158E+03  0.10100000000E+03 0.  1.
<mgrwt>
<rscale>  0 0.12438094E+04</rscale>
<asrwt>0</asrwt>
<pdfrwt beam="1">  1        2 0.16339769E+00 0.12438094E+04</pdfrwt>
<pdfrwt beam="2">  1       -2 0.48306515E-01 0.12438094E+04</pdfrwt>
<totfact> 0.91977388E+01</totfact>
</mgrwt>
</event>
<event>
 8    2  0.4480234E-052  0.1245561E+04  0.7818608E-02  0.9073886E-01
         -2   -1    0    0    0  501 -0.00000000000E+00  0.00000000000E+00  0.59004197178E+03  0.59004197178E+03  0.25500000000E-02 0. -1.
          2   -1    0    0  501    0  0.00000000000E+00 -0.00000000000E+00 -0.65733542352E+03  0.65733542352E+03  0.25500000000E-02 0.  1.
    -200001    2    1    2    0    0  0.54871704646E+02  0.11488886880E+02 -0.12735959502E+03  0.62889551193E+03  0.61330759003E+03 0.  0.
   -5000001    2    3    3    0    0 -0.14140201271E+03 -0.23230296510E+03 -0.68879673424E+02  0.29486147108E+03  0.90772688228E+02 0.  0.
     200001    1    1    2    0    0 -0.54871704646E+02 -0.11488886880E+02  0.60066143283E+02  0.61848188337E+03  0.61300000000E+03 0. -1.
         13    1    4    4    0    0 -0.12661984678E+03 -0.21352765103E+03 -0.62327398280E+02  0.25595186870E+03  0.10566000000E+00 0.  1.
    -200003    1    4    4    0    0 -0.14782165929E+02 -0.18775314069E+02 -0.65522751435E+01  0.38909602382E+02  0.30000000000E+02 0. -1.
    -200000    1    3    3    0    0  0.19627371735E+03  0.24379185198E+03 -0.58479921600E+02  0.33403404085E+03  0.10100000000E+03 0.  1.
<mgrwt>
<rscale>  0 0.12455609E+04</rscale>
<asrwt>0</asrwt>
<pdfrwt beam="1">  1        2 0.93905061E-01 0.12455609E+04</pdfrwt>
<pdfrwt beam="2">  1       -2 0.84291710E-01 0.12455609E+04</pdfrwt>
<totfact> 0.58830350E+01</totfact>
</mgrwt>
</event>
<event>
 8    2  0.4480234E-052  0.2671767E+04  0.7818608E-02  0.8344224E-01
          2   -1    0    0  501    0  0.00000000000E+00  0.00000000000E+00  0.32347123204E+04  0.32347123204E+04  0.25500000000E-02 0.  1.
         -2   -1    0    0    0  501 -0.00000000000E+00 -0.00000000000E+00 -0.55169805399E+03  0.55169805400E+03  0.25500000000E-02 0. -1.
    -200001    2    1    2    0    0 -0.58263019212E+03  0.67869048019E+03  0.23628644921E+03  0.11101583832E+04  0.61362988939E+03 0.  0.
   -5000001    2    3    3    0    0 -0.76068431895E+02 -0.17184366431E+02 -0.13138666132E+03  0.16875988352E+03  0.71664040733E+02 0.  0.
     200001    1    1    2    0    0  0.58263019212E+03 -0.67869048019E+03  0.24467278172E+04  0.26762519912E+04  0.61300000000E+03 0.  1.
         13    1    4    4    0    0 -0.37871251682E+02 -0.33465314300E+02 -0.41901788833E+02  0.65650057400E+02  0.10566000000E+00 0.  1.
    -200003    1    4    4    0    0 -0.38197180213E+02  0.16280947869E+02 -0.89484872484E+02  0.10310982612E+03  0.30000000000E+02 0.  1.
    -200000    1    3    3    0    0 -0.50656176022E+03  0.69587484662E+03  0.36767311053E+03  0.94139849972E+03  0.10100000000E+03 0. -1.
<mgrwt>
<rscale>  0 0.26717668E+04</rscale>
<asrwt>0</asrwt>
<pdfrwt beam="1">  1        2 0.46210177E+00 0.26717668E+04</pdfrwt>
<pdfrwt beam="2">  1       -2 0.78814007E-01 0.26717668E+04</pdfrwt>
<totfact> 0.21885990E+00</totfact>
</mgrwt>
</event>
<event>
 8    2  0.4480234E-052  0.1305427E+04  0.7818608E-02  0.9025272E-01
         -2   -1    0    0    0  501 -0.00000000000E+00  0.00000000000E+00  0.45000245669E+03  0.45000245670E+03  0.25500000000E-02 0. -1.
          2   -1    0    0  501    0  0.00000000000E+00 -0.00000000000E+00 -0.94673973343E+03  0.94673973343E+03  0.25500000000E-02 0.  1.
    -200001    2    1    2    0    0  0.15805045023E+03  0.41021092475E+02 -0.75615897779E+02  0.63531268541E+03  0.60929612620E+03 0.  0.
   -5000001    2    3    3    0    0  0.32458371869E+03  0.92203710736E+02 -0.18712344438E+03  0.40512162810E+03  0.12349994093E+03 0.  0.
     200001    1    1    2    0    0 -0.15805045023E+03 -0.41021092475E+02 -0.42112137896E+03  0.76142950472E+03  0.61300000000E+03 0. -1.
         13    1    4    4    0    0  0.15134707748E+03  0.94794213440E+02 -0.60932538405E+02  0.18869198754E+03  0.10566000000E+00 0.  1.
    -200003    1    4    4    0    0  0.17323664121E+03 -0.25905027041E+01 -0.12619090597E+03  0.21642964056E+03  0.30000000000E+02 0.  1.
    -200000    1    3    3    0    0 -0.16653326846E+03 -0.51182618260E+02  0.11150754660E+03  0.23019105731E+03  0.10100000000E+03 0. -1.
<mgrwt>
<rscale>  0 0.13054274E+04</rscale>
<asrwt>0</asrwt>
<pdfrwt beam="1">  1        2 0.13524853E+00 0.13054274E+04</pdfrwt>
<pdfrwt beam="2">  1       -2 0.64286066E-01 0.13054274E+04</pdfrwt>
<totfact> 0.66522697E+01</totfact>
</mgrwt>
</event>
<event>
 8    2  0.4480234E-052  0.1592841E+04  0.7818608E-02  0.8824958E-01
         -2   -1    0    0    0  501 -0.00000000000E+00  0.00000000000E+00  0.31908497826E+03  0.31908497827E+03  0.25500000000E-02 0. -1.
          2   -1    0    0  501    0  0.00000000000E+00 -0.00000000000E+00 -0.19878272164E+04  0.19878272164E+04  0.25500000000E-02 0.  1.
    -200001    2    1    2    0    0 -0.30517240018E+03 -0.40314009272E+03 -0.76033947685E+03  0.11000084268E+04  0.61339244435E+03 0.  0.
   -5000001    2    3    3    0    0 -0.28746920837E+02 -0.70682142175E+02  0.86511570277E+02  0.14381962195E+03  0.85892264987E+02 0.  0.
     200001    1    1    2    0    0  0.30517240018E+03  0.40314009272E+03 -0.90840276127E+03  0.12069037679E+04  0.61300000000E+03 0. -1.
         13    1    4    4    0    0  0.23092539932E+02 -0.32993350784E+02  0.49964078036E+02  0.64173568192E+02  0.10566000000E+00 0.  1.
    -200003    1    4    4    0    0 -0.51839460769E+02 -0.37688791390E+02  0.36547492242E+02  0.79646053753E+02  0.30000000000E+02 0.  1.
    -200000    1    3    3    0    0 -0.27642547935E+03 -0.33245795054E+03 -0.84685104713E+03  0.95618880486E+03  0.10100000000E+03 0.  1.
<mgrwt>
<rscale>  0 0.15928412E+04</rscale>
<asrwt>0</asrwt>
<pdfrwt beam="1">  1        2 0.28397531E+00 0.15928412E+04</pdfrwt>
<pdfrwt beam="2">  1       -2 0.45583570E-01 0.15928412E+04</pdfrwt>
<totfact> 0.35706258E+01</totfact>
</mgrwt>
</event>
<event>
 8    2  0.4480234E-052  0.1495186E+04  0.7818608E-02  0.8887661E-01
          2   -1    0    0  501    0  0.00000000000E+00  0.00000000000E+00  0.18989592173E+04  0.18989592173E+04  0.25500000000E-02 0.  1.
         -2   -1    0    0    0  501 -0.00000000000E+00 -0.00000000000E+00 -0.29431659756E+03  0.29431659757E+03  0.25500000000E-02 0. -1.
    -200001    2    1    2    0    0  0.60159578809E+02 -0.99595603630E+02  0.14064306356E+04  0.15386037979E+04  0.61295681324E+03 0.  0.
   -5000001    2    3    3    0    0  0.32384762479E+03 -0.69722500925E+02  0.76425195584E+03  0.83645121859E+03  0.76361494617E+02 0.  0.
     200001    1    1    2    0    0 -0.60159578809E+02  0.99595603630E+02  0.19821198416E+03  0.65467201700E+03  0.61300000000E+03 0. -1.
         13    1    4    4    0    0  0.19972646045E+03 -0.13428904731E+02  0.43526033738E+03  0.47908513539E+03  0.10566000000E+00 0.  1.
    -200003    1    4    4    0    0  0.12412116434E+03 -0.56293596194E+02  0.32899161846E+03  0.35736608320E+03  0.30000000000E+02 0.  1.
    -200000    1    3    3    0    0 -0.26368804598E+03 -0.29873102704E+02  0.64217867976E+03  0.70215257929E+03  0.10100000000E+03 0.  1.
<mgrwt>
<rscale>  0 0.14951859E+04</rscale>
<asrwt>0</asrwt>
<pdfrwt beam="1">  1        2 0.27127988E+00 0.14951859E+04</pdfrwt>
<pdfrwt beam="2">  1       -2 0.42045229E-01 0.14951859E+04</pdfrwt>
<totfact> 0.46933569E+01</totfact>
</mgrwt>
</event>
<event>
 8    2  0.4480234E-052  0.1344428E+04  0.7818608E-02  0.8995057E-01
         -2   -1    0    0    0  501 -0.00000000000E+00  0.00000000000E+00  0.11114847051E+03  0.11114847054E+03  0.25500000000E-02 0. -1.
          2   -1    0    0  501    0  0.00000000000E+00 -0.00000000000E+00 -0.40654764244E+04  0.40654764244E+04  0.25500000000E-02 0.  1.
    -200001    2    1    2    0    0  0.59450217778E+02 -0.17587733080E+03 -0.13327129504E+04  0.14779027176E+04  0.61123274674E+03 0.  0.
   -5000001    2    3    3    0    0  0.29109517189E+03 -0.77858293653E+02 -0.45719825639E+03  0.56139079962E+03  0.12381870320E+03 0.  0.
     200001    1    1    2    0    0 -0.59450217778E+02  0.17587733080E+03 -0.26216150035E+04  0.26987221773E+04  0.61300000000E+03 0.  1.
         13    1    4    4    0    0  0.40164626542E+02 -0.58855878837E+02 -0.12020759955E+03  0.13973936400E+03  0.10566000000E+00 0.  1.
    -200003    1    4    4    0    0  0.25093054535E+03 -0.19002414817E+02 -0.33699065685E+03  0.42165143562E+03  0.30000000000E+02 0.  1.
    -200000    1    3    3    0    0 -0.23164495411E+03 -0.98019037148E+02 -0.87551469398E+03  0.91651191797E+03  0.10100000000E+03 0.  1.
<mgrwt>
<rscale>  0 0.13444277E+04</rscale>
<asrwt>0</asrwt>
<pdfrwt beam="1">  1        2 0.58078225E+00 0.13444277E+04</pdfrwt>
<pdfrwt beam="2">  1       -2 0.15878356E-01 0.13444277E+04</pdfrwt>
<totfact> 0.16414412E+01</totfact>
</mgrwt>
</event>
<event>
 8    2  0.4480234E-052  0.1814736E+04  0.7818608E-02  0.8698502E-01
          2   -1    0    0  501    0  0.00000000000E+00  0.00000000000E+00  0.13338037878E+04  0.13338037878E+04  0.25500000000E-02 0.  1.
         -2   -1    0    0    0  501 -0.00000000000E+00 -0.00000000000E+00 -0.61726946762E+03  0.61726946762E+03  0.25500000000E-02 0. -1.
    -200001    2    1    2    0    0 -0.19494567167E+02 -0.30574099010E+03 -0.28120513664E+03  0.74065571800E+03  0.61289230095E+03 0.  0.
   -5000001    2    3    3    0    0  0.20402625580E+02 -0.43444689542E+03 -0.33912189196E+03  0.56257611052E+03  0.11103085361E+03 0.  0.
     200001    1    1    2    0    0  0.19494567167E+02  0.30574099010E+03  0.99773945678E+03  0.12104175374E+04  0.61300000000E+03 0.  1.
         13    1    4    4    0    0 -0.29348307109E+01  0.32270181581E+01  0.33812256953E+01  0.55200297764E+01  0.10566000000E+00 0.  1.
    -200003    1    4    4    0    0  0.23337456291E+02 -0.43767391358E+03 -0.34250311766E+03  0.55705608075E+03  0.30000000000E+02 0.  1.
    -200000    1    3    3    0    0 -0.39897192746E+02  0.12870590531E+03  0.57916755327E+02  0.17807960748E+03  0.10100000000E+03 0. -1.
<mgrwt>
<rscale>  0 0.18147356E+04</rscale>
<asrwt>0</asrwt>
<pdfrwt beam="1">  1        2 0.19054340E+00 0.18147356E+04</pdfrwt>
<pdfrwt beam="2">  1       -2 0.88181354E-01 0.18147356E+04</pdfrwt>
<totfact> 0.18845438E+01</totfact>
</mgrwt>
</event>
<event>
 8    2  0.4480234E-052  0.1280677E+04  0.7818608E-02  0.9045030E-01
          2   -1    0    0  501    0  0.00000000000E+00  0.00000000000E+00  0.23009498356E+04  0.23009498356E+04  0.25500000000E-02 0.  1.
         -2   -1    0    0    0  501 -0.00000000000E+00 -0.00000000000E+00 -0.17820187332E+03  0.17820187334E+03  0.25500000000E-02 0. -1.
    -200001    2    1    2    0    0 -0.12292210925E+02 -0.15099022423E+03  0.12692030230E+04  0.14174280586E+04  0.61259843418E+03 0.  0.
   -5000001    2    3    3    0    0 -0.62520527206E+01  0.18939377953E+03  0.66554287715E+03  0.71706791898E+03  0.18796272827E+03 0.  0.
     200001    1    1    2    0    0  0.12292210925E+02  0.15099022423E+03  0.85354493930E+03  0.10617236503E+04  0.61300000000E+03 0. -1.
         13    1    4    4    0    0  0.79012136287E+02  0.12584304195E+03  0.46416107098E+03  0.48736526329E+03  0.10566000000E+00 0.  1.
    -200003    1    4    4    0    0 -0.85264189008E+02  0.63550737582E+02  0.20138180617E+03  0.22970265569E+03  0.30000000000E+02 0.  1.
    -200000    1    3    3    0    0 -0.60401582042E+01 -0.34038400377E+03  0.60366014585E+03  0.70036013966E+03  0.10100000000E+03 0. -1.
<mgrwt>
<rscale>  0 0.12806773E+04</rscale>
<asrwt>0</asrwt>
<pdfrwt beam="1">  1        2 0.32870710E+00 0.12806773E+04</pdfrwt>
<pdfrwt beam="2">  1       -2 0.25457412E-01 0.12806773E+04</pdfrwt>
<totfact> 0.76539592E+01</totfact>
</mgrwt>
</event>
<event>
 8    2  0.4480234E-052  0.1809656E+04  0.7818608E-02  0.8701181E-01
          2   -1    0    0  501    0  0.00000000000E+00  0.00000000000E+00  0.12101143463E+04  0.12101143464E+04  0.25500000000E-02 0.  1.
         -2   -1    0    0    0  501 -0.00000000000E+00 -0.00000000000E+00 -0.67655900063E+03  0.67655900063E+03  0.25500000000E-02 0. -1.
    -200001    2    1    2    0    0  0.10118521003E+02 -0.43296396563E+03  0.79336836565E+03  0.10924240251E+04  0.61351178227E+03 0.  0.
   -5000001    2    3    3    0    0 -0.22798507154E+03 -0.23387183592E+03  0.65712382875E+03  0.73873691657E+03  0.85130940987E+02 0.  0.
     200001    1    1    2    0    0 -0.10118521003E+02  0.43296396563E+03 -0.25981301993E+03  0.79424932189E+03  0.61300000000E+03 0. -1.
         13    1    4    4    0    0 -0.17313808653E+03 -0.15572002474E+03  0.51180835782E+03  0.56229292136E+03  0.10566000000E+00 0.  1.
    -200003    1    4    4    0    0 -0.54846985016E+02 -0.78151811174E+02  0.14531547093E+03  0.17644399522E+03  0.30000000000E+02 0. -1.
    -200000    1    3    3    0    0  0.23810359255E+03 -0.19909212971E+03  0.13624453690E+03  0.35368710852E+03  0.10100000000E+03 0. -1.
<mgrwt>
<rscale>  0 0.18096560E+04</rscale>
<asrwt>0</asrwt>
<pdfrwt beam="1">  1        2 0.17287348E+00 0.18096560E+04</pdfrwt>
<pdfrwt beam="2">  1       -2 0.96651287E-01 0.18096560E+04</pdfrwt>
<totfact> 0.17867217E+01</totfact>
</mgrwt>
</event>
<event>
 8    2  0.4480234E-052  0.1793998E+04  0.7818608E-02  0.8709498E-01
         -2   -1    0    0    0  501 -0.00000000000E+00  0.00000000000E+00  0.73744370759E+03  0.73744370759E+03  0.25500000000E-02 0. -1.
          2   -1    0    0  501    0  0.00000000000E+00 -0.00000000000E+00 -0.10910755164E+04  0.10910755164E+04  0.25500000000E-02 0.  1.
    -200001    2    1    2    0    0  0.62784719003E+03 -0.21898681433E+02  0.10699764977E+02  0.87816237418E+03  0.61350063096E+03 0.  0.
   -5000001    2    3    3    0    0  0.61061955162E+03  0.23159497597E+02 -0.16855043977E+03  0.66683640104E+03  0.20704814863E+03 0.  0.
     200001    1    1    2    0    0 -0.62784719003E+03  0.21898681433E+02 -0.36433157375E+03  0.95035684977E+03  0.61300000000E+03 0. -1.
         13    1    4    4    0    0  0.52383979282E+03 -0.24056499520E+02 -0.19629283990E+03  0.55992654328E+03  0.10566000000E+00 0.  1.
    -200003    1    4    4    0    0  0.86779758804E+02  0.47215997117E+02  0.27742400126E+02  0.10690985776E+03  0.30000000000E+02 0.  1.
    -200000    1    3    3    0    0  0.17227638403E+02 -0.45058179030E+02  0.17925020475E+03  0.21132597314E+03  0.10100000000E+03 0. -1.
<mgrwt>
<rscale>  0 0.17939975E+04</rscale>
<asrwt>0</asrwt>
<pdfrwt beam="1">  1        2 0.15586793E+00 0.17939975E+04</pdfrwt>
<pdfrwt beam="2">  1       -2 0.10534910E+00 0.17939975E+04</pdfrwt>
<totfact> 0.17090673E+01</totfact>
</mgrwt>
</event>
<event>
 8    2  0.4480234E-052  0.1399145E+04  0.7818608E-02  0.8954438E-01
         -2   -1    0    0    0  501 -0.00000000000E+00  0.00000000000E+00  0.47193825571E+03  0.47193825572E+03  0.25500000000E-02 0.  1.
          2   -1    0    0  501    0  0.00000000000E+00 -0.00000000000E+00 -0.10370031610E+04  0.10370031610E+04  0.25500000000E-02 0. -1.
    -200001    2    1    2    0    0  0.30382136053E+03  0.15251375724E+02 -0.44035761084E+03  0.81334028617E+03  0.61242760560E+03 0.  0.
   -5000001    2    3    3    0    0  0.18111552183E+03  0.19686935578E+03  0.33822316016E+02  0.28127880799E+03  0.80083976354E+02 0.  0.
     200001    1    1    2    0    0 -0.30382136053E+03 -0.15251375724E+02 -0.12470729447E+03  0.69560113058E+03  0.61300000000E+03 0.  1.
         13    1    4    4    0    0  0.73915626608E+02  0.12953107902E+03  0.18037980291E+02  0.15022383362E+03  0.10566000000E+00 0.  1.
    -200003    1    4    4    0    0  0.10719989523E+03  0.67338276754E+02  0.15784335725E+02  0.13105497437E+03  0.30000000000E+02 0.  1.
    -200000    1    3    3    0    0  0.12270583869E+03 -0.18161798005E+03 -0.47417992686E+03  0.53206147818E+03  0.10100000000E+03 0. -1.
<mgrwt>
<rscale>  0 0.13991447E+04</rscale>
<asrwt>0</asrwt>
<pdfrwt beam="1">  1        2 0.14814331E+00 0.13991447E+04</pdfrwt>
<pdfrwt beam="2">  1       -2 0.67419751E-01 0.13991447E+04</pdfrwt>
<totfact> 0.52416765E+01</totfact>
</mgrwt>
</event>
<event>
 8    2  0.4480234E-052  0.2219602E+04  0.7818608E-02  0.8510313E-01
         -2   -1    0    0    0  501 -0.00000000000E+00  0.00000000000E+00  0.62841703006E+03  0.62841703007E+03  0.25500000000E-02 0. -1.
          2   -1    0    0  501    0  0.00000000000E+00 -0.00000000000E+00 -0.19599381238E+04  0.19599381238E+04  0.25500000000E-02 0.  1.
    -200001    2    1    2    0    0  0.87486053639E+03 -0.11796779884E+03 -0.34562305049E+03  0.11299103276E+04  0.61477206803E+03 0.  0.
   -5000001    2    3    3    0    0  0.77092539736E+03 -0.29362592284E+03 -0.35855758365E+03  0.90181694363E+03  0.64560887217E+02 0.  0.
     200001    1    1    2    0    0 -0.87486053639E+03  0.11796779884E+03 -0.98589804327E+03  0.14584448263E+04  0.61300000000E+03 0.  1.
         13    1    4    4    0    0  0.16924673205E+03 -0.48528284258E+02 -0.95061133176E+02  0.20009018188E+03  0.10566000000E+00 0.  1.
    -200003    1    4    4    0    0  0.60167866531E+03 -0.24509763858E+03 -0.26349645047E+03  0.70172676174E+03  0.30000000000E+02 0.  1.
    -200000    1    3    3    0    0  0.10393513903E+03  0.17565812400E+03  0.12934533160E+02  0.22809338394E+03  0.10100000000E+03 0. -1.
<mgrwt>
<rscale>  0 0.22196022E+04</rscale>
<asrwt>0</asrwt>
<pdfrwt beam="1">  1        2 0.27999116E+00 0.22196022E+04</pdfrwt>
<pdfrwt beam="2">  1       -2 0.89773862E-01 0.22196022E+04</pdfrwt>
<totfact> 0.82008546E+00</totfact>
</mgrwt>
</event>
<event>
 8    2  0.4480234E-052  0.1477987E+04  0.7818608E-02  0.8899225E-01
         -2   -1    0    0    0  501 -0.00000000000E+00  0.00000000000E+00  0.15850237877E+04  0.15850237877E+04  0.25500000000E-02 0. -1.
          2   -1    0    0  501    0  0.00000000000E+00 -0.00000000000E+00 -0.34454470205E+03  0.34454470206E+03  0.25500000000E-02 0.  1.
    -200001    2    1    2    0    0  0.34309941538E+03  0.19846350789E+03  0.48189219353E+03  0.87679688790E+03  0.61599328214E+03 0.  0.
   -5000001    2    3    3    0    0  0.27581717544E+03  0.10272055552E+03  0.60486702888E+03  0.67926860418E+03  0.94419739482E+02 0.  0.
     200001    1    1    2    0    0 -0.34309941538E+03 -0.19846350789E+03  0.75858689209E+03  0.10527716018E+04  0.61300000000E+03 0. -1.
         13    1    4    4    0    0  0.11453769987E+03  0.66816851998E+02  0.18993982833E+03  0.23164741733E+03  0.10566000000E+00 0.  1.
    -200003    1    4    4    0    0  0.16127947557E+03  0.35903703519E+02  0.41492720054E+03  0.44762118685E+03  0.30000000000E+02 0.  1.
    -200000    1    3    3    0    0  0.67282239941E+02  0.95742952377E+02 -0.12297483535E+03  0.19752828372E+03  0.10100000000E+03 0.  1.
<mgrwt>
<rscale>  0 0.14779872E+04</rscale>
<asrwt>0</asrwt>
<pdfrwt beam="1">  1        2 0.49220671E-01 0.14779872E+04</pdfrwt>
<pdfrwt beam="2">  1       -2 0.22643197E+00 0.14779872E+04</pdfrwt>
<totfact> 0.89181879E+00</totfact>
</mgrwt>
</event>
<event>
 8    2  0.4480234E-052  0.1567413E+04  0.7818608E-02  0.8840821E-01
         -2   -1    0    0    0  501 -0.00000000000E+00  0.00000000000E+00  0.13724760252E+04  0.13724760252E+04  0.25500000000E-02 0. -1.
          2   -1    0    0  501    0  0.00000000000E+00 -0.00000000000E+00 -0.44750925486E+03  0.44750925487E+03  0.25500000000E-02 0.  1.
    -200001    2    1    2    0    0  0.21233044556E+03  0.40513604915E+03  0.26571231399E+03  0.81023042138E+03  0.61371888148E+03 0.  0.
   -5000001    2    3    3    0    0  0.26726554300E+02  0.44529492667E+03  0.35131817805E+03  0.57873332884E+03  0.11182988536E+03 0.  0.
     200001    1    1    2    0    0 -0.21233044556E+03 -0.40513604915E+03  0.65925445634E+03  0.10097548587E+04  0.61300000000E+03 0. -1.
         13    1    4    4    0    0  0.33832801342E+02  0.13067806029E+03  0.56045045945E+02  0.14615906481E+03  0.10566000000E+00 0.  1.
    -200003    1    4    4    0    0 -0.71062470416E+01  0.31461686638E+03  0.29527313210E+03  0.43257426403E+03  0.30000000000E+02 0.  1.
    -200000    1    3    3    0    0  0.18560389126E+03 -0.40158877520E+02 -0.85605864055E+02  0.23149709254E+03  0.10100000000E+03 0.  1.
<mgrwt>
<rscale>  0 0.15674128E+04</rscale>
<asrwt>0</asrwt>
<pdfrwt beam="1">  1        2 0.63929894E-01 0.15674128E+04</pdfrwt>
<pdfrwt beam="2">  1       -2 0.19606800E+00 0.15674128E+04</pdfrwt>
<totfact> 0.10355063E+01</totfact>
</mgrwt>
</event>
<event>
 8    2  0.4480234E-052  0.1816167E+04  0.7818608E-02  0.8697749E-01
          2   -1    0    0  501    0  0.00000000000E+00  0.00000000000E+00  0.32292022253E+04  0.32292022253E+04  0.25500000000E-02 0.  1.
         -2   -1    0    0    0  501 -0.00000000000E+00 -0.00000000000E+00 -0.25536193596E+03  0.25536193597E+03  0.25500000000E-02 0. -1.
    -200001    2    1    2    0    0  0.42812503708E+03 -0.49737373161E+03  0.12264055590E+04  0.15198838277E+04  0.61262107238E+03 0.  0.
   -5000001    2    3    3    0    0 -0.48398218354E+02 -0.25835730100E+03  0.74403000436E+03  0.79387388096E+03  0.86972460966E+02 0.  0.
     200001    1    1    2    0    0 -0.42812503708E+03  0.49737373161E+03  0.17474347303E+04  0.19646803336E+04  0.61300000000E+03 0.  1.
         13    1    4    4    0    0 -0.55850061974E+02 -0.13130394168E+03  0.44997139404E+03  0.47205319736E+03  0.10566000000E+00 0.  1.
    -200003    1    4    4    0    0  0.74518436209E+01 -0.12705335933E+03  0.29405861031E+03  0.32182068359E+03  0.30000000000E+02 0.  1.
    -200000    1    3    3    0    0  0.47652325544E+03 -0.23901643060E+03  0.48237555466E+03  0.72600994676E+03  0.10100000000E+03 0. -1.
<mgrwt>
<rscale>  0 0.18161667E+04</rscale>
<asrwt>0</asrwt>
<pdfrwt beam="1">  1        2 0.46131460E+00 0.18161667E+04</pdfrwt>
<pdfrwt beam="2">  1       -2 0.36480277E-01 0.18161667E+04</pdfrwt>
<totfact> 0.11707211E+01</totfact>
</mgrwt>
</event>
<event>
 8    2  0.4480234E-052  0.1671353E+04  0.7818608E-02  0.8777874E-01
         -2   -1    0    0    0  501 -0.00000000000E+00  0.00000000000E+00  0.20441589461E+03  0.20441589463E+03  0.25500000000E-02 0. -1.
          2   -1    0    0  501    0  0.00000000000E+00 -0.00000000000E+00 -0.34163446362E+04  0.34163446362E+04  0.25500000000E-02 0.  1.
    -200001    2    1    2    0    0  0.29473931461E+03 -0.96670999490E+02 -0.26389598341E+04  0.27261774354E+04  0.60968668798E+03 0.  0.
   -5000001    2    3    3    0    0  0.11179851425E+03 -0.25308227004E+03 -0.20969447983E+04  0.21245852803E+04  0.20033867098E+03 0.  0.
     200001    1    1    2    0    0 -0.29473931461E+03  0.96670999490E+02 -0.57296890753E+03  0.89458309548E+03  0.61300000000E+03 0. -1.
         13    1    4    4    0    0  0.99431639232E+02 -0.67015829677E+02 -0.13020403174E+04  0.13075499117E+04  0.10566000000E+00 0.  1.
    -200003    1    4    4    0    0  0.12366875019E+02 -0.18606644036E+03 -0.79490448084E+03  0.81703536857E+03  0.30000000000E+02 0.  1.
    -200000    1    3    3    0    0  0.18294080036E+03  0.15641127055E+03 -0.54201503580E+03  0.60159215506E+03  0.10100000000E+03 0.  1.
<mgrwt>
<rscale>  0 0.16713529E+04</rscale>
<asrwt>0</asrwt>
<pdfrwt beam="1">  1        2 0.48804920E+00 0.16713529E+04</pdfrwt>
<pdfrwt beam="2">  1       -2 0.29202273E-01 0.16713529E+04</pdfrwt>
<totfact> 0.14017469E+01</totfact>
</mgrwt>
</event>
<event>
 8    2  0.4480234E-052  0.2014041E+04  0.7818608E-02  0.8600084E-01
         -2   -1    0    0    0  501 -0.00000000000E+00  0.00000000000E+00  0.12031099375E+04  0.12031099375E+04  0.25500000000E-02 0. -1.
          2   -1    0    0  501    0  0.00000000000E+00 -0.00000000000E+00 -0.84289086233E+03  0.84289086233E+03  0.25500000000E-02 0.  1.
    -200001    2    1    2    0    0 -0.17286358356E+03 -0.41671011040E+03 -0.48988990229E+03  0.90495592421E+03  0.61271851103E+03 0.  0.
   -5000001    2    3    3    0    0  0.45087710368E+02  0.66004615690E+02 -0.32357177928E+03  0.34070510112E+03  0.70652379047E+02 0.  0.
     200001    1    1    2    0    0  0.17286358356E+03  0.41671011040E+03  0.85010897742E+03  0.11410448756E+04  0.61300000000E+03 0. -1.
         13    1    4    4    0    0  0.46480294866E+01  0.40850355297E+02 -0.71983393754E+02  0.82897381421E+02  0.10566000000E+00 0.  1.
    -200003    1    4    4    0    0  0.40439680881E+02  0.25154260393E+02 -0.25158838553E+03  0.25780771970E+03  0.30000000000E+02 0.  1.
    -200000    1    3    3    0    0 -0.21795129393E+03 -0.48271472609E+03 -0.16631812301E+03  0.56425082309E+03  0.10100000000E+03 0. -1.
<mgrwt>
<rscale>  0 0.20140411E+04</rscale>
<asrwt>0</asrwt>
<pdfrwt beam="1">  1        2 0.12041298E+00 0.20140411E+04</pdfrwt>
<pdfrwt beam="2">  1       -2 0.17187285E+00 0.20140411E+04</pdfrwt>
<totfact> 0.68333564E+00</totfact>
</mgrwt>
</event>
<event>
 8    2  0.4480234E-052  0.1286070E+04  0.7818608E-02  0.9040685E-01
         -2   -1    0    0    0  501 -0.00000000000E+00  0.00000000000E+00  0.45041955451E+03  0.45041955452E+03  0.25500000000E-02 0.  1.
          2   -1    0    0  501    0  0.00000000000E+00 -0.00000000000E+00 -0.91802017300E+03  0.91802017300E+03  0.25500000000E-02 0. -1.
    -200001    2    1    2    0    0  0.36473303050E+02  0.19111148583E+03 -0.24246785979E+03  0.68703847944E+03  0.61268042840E+03 0.  0.
   -5000001    2    3    3    0    0 -0.19565148700E+03  0.29565106678E+03 -0.17489517945E+03  0.40494362080E+03  0.87760780425E+02 0.  0.
     200001    1    1    2    0    0 -0.36473303050E+02 -0.19111148583E+03 -0.22513275870E+03  0.68140124808E+03  0.61300000000E+03 0. -1.
         13    1    4    4    0    0  0.46047171300E+01  0.26191386375E+02 -0.35488443294E+01  0.26829043967E+02  0.10566000000E+00 0.  1.
    -200003    1    4    4    0    0 -0.20025620413E+03  0.26945968041E+03 -0.17134633512E+03  0.37811457684E+03  0.30000000000E+02 0.  1.
    -200000    1    3    3    0    0  0.23212479005E+03 -0.10453958096E+03 -0.67572680333E+02  0.28209485863E+03  0.10100000000E+03 0.  1.
<mgrwt>
<rscale>  0 0.12860704E+04</rscale>
<asrwt>0</asrwt>
<pdfrwt beam="1">  1        2 0.13114574E+00 0.12860704E+04</pdfrwt>
<pdfrwt beam="2">  1       -2 0.64345650E-01 0.12860704E+04</pdfrwt>
<totfact> 0.69361335E+01</totfact>
</mgrwt>
</event>
<event>
 8    2  0.4480234E-052  0.1606127E+04  0.7818608E-02  0.8816793E-01
          2   -1    0    0  501    0  0.00000000000E+00  0.00000000000E+00  0.17036253341E+04  0.17036253341E+04  0.25500000000E-02 0.  1.
         -2   -1    0    0    0  501 -0.00000000000E+00 -0.00000000000E+00 -0.37855216805E+03  0.37855216806E+03  0.25500000000E-02 0. -1.
    -200001    2    1    2    0    0  0.40105207110E+03 -0.32043040263E+03  0.75992195746E+03  0.11030537637E+04  0.61296640812E+03 0.  0.
   -5000001    2    3    3    0    0  0.53205549136E+03 -0.30748210536E+03  0.67569112064E+03  0.91697477940E+03  0.81584094839E+02 0.  0.
     200001    1    1    2    0    0 -0.40105207110E+03  0.32043040263E+03  0.56515120857E+03  0.97912373846E+03  0.61300000000E+03 0.  1.
         13    1    4    4    0    0  0.22598835139E+03 -0.94608324531E+02  0.29167498654E+03  0.38091439848E+03  0.10566000000E+00 0.  1.
    -200003    1    4    4    0    0  0.30606713998E+03 -0.21287378083E+03  0.38401613410E+03  0.53606038091E+03  0.30000000000E+02 0.  1.
    -200000    1    3    3    0    0 -0.13100342026E+03 -0.12948297276E+02  0.84230836820E+02  0.18607898429E+03  0.10100000000E+03 0. -1.
<mgrwt>
<rscale>  0 0.16061271E+04</rscale>
<asrwt>0</asrwt>
<pdfrwt beam="1">  1        2 0.24337505E+00 0.16061271E+04</pdfrwt>
<pdfrwt beam="2">  1       -2 0.54078880E-01 0.16061271E+04</pdfrwt>
<totfact> 0.35313239E+01</totfact>
</mgrwt>
</event>
<event>
 8    2  0.4480234E-052  0.1452585E+04  0.7818608E-02  0.8916610E-01
          2   -1    0    0  501    0  0.00000000000E+00  0.00000000000E+00  0.12626587380E+04  0.12626587380E+04  0.25500000000E-02 0.  1.
         -2   -1    0    0    0  501 -0.00000000000E+00 -0.00000000000E+00 -0.41776998101E+03  0.41776998101E+03  0.25500000000E-02 0. -1.
    -200001    2    1    2    0    0 -0.14175893771E+03 -0.35605714179E+03  0.34203941221E+03  0.79980465157E+03  0.61304505261E+03 0.  0.
   -5000001    2    3    3    0    0 -0.34329034385E+03 -0.34362942907E+03  0.27121090041E+03  0.56318885796E+03  0.87731935651E+02 0.  0.
     200001    1    1    2    0    0  0.14175893771E+03  0.35605714179E+03  0.50284934482E+03  0.88062406748E+03  0.61300000000E+03 0.  1.
         13    1    4    4    0    0 -0.70837082004E+02 -0.33504520358E+02  0.28519404180E+02  0.83389523623E+02  0.10566000000E+00 0.  1.
    -200003    1    4    4    0    0 -0.27245326184E+03 -0.31012490871E+03  0.24269149623E+03  0.47979933434E+03  0.30000000000E+02 0.  1.
    -200000    1    3    3    0    0  0.20153140613E+03 -0.12427712721E+02  0.70828511802E+02  0.23661579361E+03  0.10100000000E+03 0. -1.
<mgrwt>
<rscale>  0 0.14525852E+04</rscale>
<asrwt>0</asrwt>
<pdfrwt beam="1">  1        2 0.18037982E+00 0.14525852E+04</pdfrwt>
<pdfrwt beam="2">  1       -2 0.59681426E-01 0.14525852E+04</pdfrwt>
<totfact> 0.50088757E+01</totfact>
</mgrwt>
</event>
<event>
 8    2  0.4480234E-052  0.1728471E+04  0.7818608E-02  0.8745291E-01
         -2   -1    0    0    0  501 -0.00000000000E+00  0.00000000000E+00  0.83023943726E+03  0.83023943726E+03  0.25500000000E-02 0. -1.
          2   -1    0    0  501    0  0.00000000000E+00 -0.00000000000E+00 -0.89962358204E+03  0.89962358205E+03  0.25500000000E-02 0.  1.
    -200001    2    1    2    0    0 -0.14700940895E+01 -0.12204598762E+03  0.56268061616E+03  0.84094668674E+03  0.61293104822E+03 0.  0.
   -5000001    2    3    3    0    0 -0.26150682273E+03 -0.12691751068E+03  0.13650347043E+03  0.33156393132E+03  0.82508001195E+02 0.  0.
     200001    1    1    2    0    0  0.14700940895E+01  0.12204598762E+03 -0.63206476094E+03  0.88891633256E+03  0.61300000000E+03 0.  1.
         13    1    4    4    0    0 -0.44969260105E+02 -0.48157595638E+02  0.53323968093E+02  0.84763465652E+02  0.10566000000E+00 0.  1.
    -200003    1    4    4    0    0 -0.21653756263E+03 -0.78759915043E+02  0.83179502336E+02  0.24680046567E+03  0.30000000000E+02 0.  1.
    -200000    1    3    3    0    0  0.26003672864E+03  0.48715230598E+01  0.42617714573E+03  0.50938275542E+03  0.10100000000E+03 0. -1.
<mgrwt>
<rscale>  0 0.17284710E+04</rscale>
<asrwt>0</asrwt>
<pdfrwt beam="1">  1        2 0.12851765E+00 0.17284710E+04</pdfrwt>
<pdfrwt beam="2">  1       -2 0.11860563E+00 0.17284710E+04</pdfrwt>
<totfact> 0.16935043E+01</totfact>
</mgrwt>
</event>
<event>
 8    2  0.4480234E-052  0.1726543E+04  0.7818608E-02  0.8746369E-01
         -2   -1    0    0    0  501 -0.00000000000E+00  0.00000000000E+00  0.20514712139E+04  0.20514712139E+04  0.25500000000E-02 0. -1.
          2   -1    0    0  501    0  0.00000000000E+00 -0.00000000000E+00 -0.36326980116E+03  0.36326980117E+03  0.25500000000E-02 0.  1.
    -200001    2    1    2    0    0  0.19356312913E+03 -0.34345534336E+03  0.14912532019E+04  0.16597669389E+04  0.61283107103E+03 0.  0.
   -5000001    2    3    3    0    0 -0.79949666117E+02 -0.38246490549E+03  0.59130611403E+03  0.71296349786E+03  0.77476936894E+02 0.  0.
     200001    1    1    2    0    0 -0.19356312913E+03  0.34345534336E+03  0.19694821083E+03  0.75497407611E+03  0.61300000000E+03 0.  1.
         13    1    4    4    0    0 -0.54212155581E+02 -0.19412325025E+03  0.35482308667E+03  0.40807135172E+03  0.10566000000E+00 0.  1.
    -200003    1    4    4    0    0 -0.25737510536E+02 -0.18834165524E+03  0.23648302736E+03  0.30489214614E+03  0.30000000000E+02 0.  1.
    -200000    1    3    3    0    0  0.27351279525E+03  0.39009562127E+02  0.89994708785E+03  0.94680344107E+03  0.10100000000E+03 0. -1.
<mgrwt>
<rscale>  0 0.17265428E+04</rscale>
<asrwt>0</asrwt>
<pdfrwt beam="1">  1        2 0.51895686E-01 0.17265428E+04</pdfrwt>
<pdfrwt beam="2">  1       -2 0.29306731E+00 0.17265428E+04</pdfrwt>
<totfact> 0.32197112E+00</totfact>
</mgrwt>
</event>
<event>
 8    2  0.4480234E-052  0.1739053E+04  0.7818608E-02  0.8739399E-01
          2   -1    0    0  501    0  0.00000000000E+00  0.00000000000E+00  0.21273283886E+04  0.21273283886E+04  0.25500000000E-02 0.  1.
         -2   -1    0    0    0  501 -0.00000000000E+00 -0.00000000000E+00 -0.35541132342E+03  0.35541132343E+03  0.25500000000E-02 0. -1.
    -200001    2    1    2    0    0 -0.23495913030E+03 -0.30361543647E+03  0.20642854706E+03  0.75823647152E+03  0.62042056343E+03 0.  0.
   -5000001    2    3    3    0    0 -0.15210983748E+03 -0.42623321474E+03 -0.27129919115E+02  0.46387329110E+03  0.98133794742E+02 0.  0.
     200001    1    1    2    0    0  0.23495913030E+03  0.30361543647E+03  0.15654885181E+04  0.17245032405E+04  0.61300000000E+03 0.  1.
         13    1    4    4    0    0 -0.44253004075E+01 -0.82205931103E+02 -0.31810904380E+02  0.88257255757E+02  0.10566000000E+00 0.  1.
    -200003    1    4    4    0    0 -0.14768453707E+03 -0.34402728364E+03  0.46809852654E+01  0.37561603534E+03  0.30000000000E+02 0.  1.
    -200000    1    3    3    0    0 -0.82849292822E+02  0.12261777827E+03  0.23355846618E+03  0.29436318043E+03  0.10100000000E+03 0.  1.
<mgrwt>
<rscale>  0 0.17390533E+04</rscale>
<asrwt>0</asrwt>
<pdfrwt beam="1">  1        2 0.30390405E+00 0.17390533E+04</pdfrwt>
<pdfrwt beam="2">  1       -2 0.50773047E-01 0.17390533E+04</pdfrwt>
<totfact> 0.24053164E+01</totfact>
</mgrwt>
</event>
<event>
 8    2  0.4480234E-052  0.3034915E+04  0.7818608E-02  0.8233831E-01
         -2   -1    0    0    0  501 -0.00000000000E+00  0.00000000000E+00  0.97736596242E+03  0.97736596242E+03  0.25500000000E-02 0. -1.
          2   -1    0    0  501    0  0.00000000000E+00 -0.00000000000E+00 -0.23560024741E+04  0.23560024741E+04  0.25500000000E-02 0.  1.
    -200001    2    1    2    0    0  0.80583577784E+03  0.21837428095E+03  0.52848045329E+03  0.11631327937E+04  0.61361851241E+03 0.  0.
   -5000001    2    3    3    0    0  0.63834507539E+03  0.35172664850E+03  0.56105092362E+03  0.92418128210E+03  0.90204394332E+02 0.  0.
     200001    1    1    2    0    0 -0.80583577784E+03 -0.21837428095E+03 -0.19071169650E+04  0.21702356429E+04  0.61300000000E+03 0.  1.
         13    1    4    4    0    0  0.16755942718E+03  0.11963750475E+03  0.19486351927E+03  0.28348032822E+03  0.10566000000E+00 0.  1.
    -200003    1    4    4    0    0  0.47078564821E+03  0.23208914375E+03  0.36618740435E+03  0.64070095389E+03  0.30000000000E+02 0.  1.
    -200000    1    3    3    0    0  0.16749070245E+03 -0.13335236756E+03 -0.32570470332E+02  0.23895151156E+03  0.10100000000E+03 0.  1.
<mgrwt>
<rscale>  0 0.30349146E+04</rscale>
<asrwt>0</asrwt>
<pdfrwt beam="1">  1        2 0.33657178E+00 0.30349146E+04</pdfrwt>
<pdfrwt beam="2">  1       -2 0.13962371E+00 0.30349146E+04</pdfrwt>
<totfact> 0.16326771E+00</totfact>
</mgrwt>
</event>
<event>
 8    2  0.4480234E-052  0.1576685E+04  0.7818608E-02  0.8835001E-01
          2   -1    0    0  501    0  0.00000000000E+00  0.00000000000E+00  0.12175794509E+04  0.12175794509E+04  0.25500000000E-02 0.  1.
         -2   -1    0    0    0  501 -0.00000000000E+00 -0.00000000000E+00 -0.51042575348E+03  0.51042575349E+03  0.25500000000E-02 0. -1.
    -200001    2    1    2    0    0 -0.39036895639E+03 -0.24109456546E+03  0.55861958897E+03  0.94803988912E+03  0.61335900952E+03 0.  0.
   -5000001    2    3    3    0    0 -0.32129536894E+03 -0.40830705501E+03  0.50460640534E+03  0.73391468942E+03  0.11856551672E+03 0.  0.
     200001    1    1    2    0    0  0.39036895639E+03  0.24109456546E+03  0.14853410842E+03  0.77996531524E+03  0.61300000000E+03 0. -1.
         13    1    4    4    0    0  0.56215315576E+01 -0.14454802608E+02  0.15100372598E+01  0.15583141919E+02  0.10566000000E+00 0.  1.
    -200003    1    4    4    0    0 -0.32691690050E+03 -0.39385225240E+03  0.50309636808E+03  0.71833154750E+03  0.30000000000E+02 0.  1.
    -200000    1    3    3    0    0 -0.69073587448E+02  0.16721248954E+03  0.54013183632E+02  0.21412519970E+03  0.10100000000E+03 0. -1.
<mgrwt>
<rscale>  0 0.15766850E+04</rscale>
<asrwt>0</asrwt>
<pdfrwt beam="1">  1        2 0.17393992E+00 0.15766850E+04</pdfrwt>
<pdfrwt beam="2">  1       -2 0.72917965E-01 0.15766850E+04</pdfrwt>
<totfact> 0.34168132E+01</totfact>
</mgrwt>
</event>
<event>
 8    2  0.4480234E-052  0.1297294E+04  0.7818608E-02  0.9031714E-01
         -2   -1    0    0    0  501 -0.00000000000E+00  0.00000000000E+00  0.36071235690E+03  0.36071235691E+03  0.25500000000E-02 0. -1.
          2   -1    0    0  501    0  0.00000000000E+00 -0.00000000000E+00 -0.11664223483E+04  0.11664223483E+04  0.25500000000E-02 0.  1.
    -200001    2    1    2    0    0 -0.30330903195E+02  0.15964191173E+03 -0.24324570965E+03  0.67946698026E+03  0.61327106432E+03 0.  0.
   -5000001    2    3    3    0    0  0.13848901263E+03  0.33511767945E+03 -0.15710044071E+03  0.40213339702E+03  0.74482580691E+02 0.  0.
     200001    1    1    2    0    0  0.30330903195E+02 -0.15964191173E+03 -0.56246428172E+03  0.84766772493E+03  0.61300000000E+03 0.  1.
         13    1    4    4    0    0  0.54143773673E+00  0.39277950213E+02 -0.15767062884E+01  0.39313454370E+02  0.10566000000E+00 0.  1.
    -200003    1    4    4    0    0  0.13794757489E+03  0.29583972923E+03 -0.15552373443E+03  0.36281994265E+03  0.30000000000E+02 0.  1.
    -200000    1    3    3    0    0 -0.16881991583E+03 -0.17547576772E+03 -0.86145268937E+02  0.27733358324E+03  0.10100000000E+03 0.  1.
<mgrwt>
<rscale>  0 0.12972940E+04</rscale>
<asrwt>0</asrwt>
<pdfrwt beam="1">  1        2 0.16663176E+00 0.12972940E+04</pdfrwt>
<pdfrwt beam="2">  1       -2 0.51530337E-01 0.12972940E+04</pdfrwt>
<totfact> 0.77955937E+01</totfact>
</mgrwt>
</event>
<event>
 8    2  0.4480234E-052  0.1353129E+04  0.7818608E-02  0.8988463E-01
          2   -1    0    0  501    0  0.00000000000E+00  0.00000000000E+00  0.67523419754E+03  0.67523419755E+03  0.25500000000E-02 0.  1.
         -2   -1    0    0    0  501 -0.00000000000E+00 -0.00000000000E+00 -0.67789694334E+03  0.67789694335E+03  0.25500000000E-02 0. -1.
    -200001    2    1    2    0    0  0.28569438783E+03  0.17071649654E+02 -0.13332529019E+02  0.67652522256E+03  0.61285878958E+03 0.  0.
   -5000001    2    3    3    0    0  0.31490425476E+03  0.31920596982E+02  0.23822402242E+03  0.40347686395E+03  0.76545938567E+02 0.  0.
     200001    1    1    2    0    0 -0.28569438783E+03 -0.17071649654E+02  0.10669783216E+02  0.67660591834E+03  0.61300000000E+03 0. -1.
         13    1    4    4    0    0  0.10772821354E+03  0.41452962511E+02  0.72462730991E+02  0.13628857120E+03  0.10566000000E+00 0.  1.
    -200003    1    4    4    0    0  0.20717604122E+03 -0.95323655288E+01  0.16576129143E+03  0.26718829275E+03  0.30000000000E+02 0.  1.
    -200000    1    3    3    0    0 -0.29209866929E+02 -0.14848947328E+02 -0.25155655144E+03  0.27304835860E+03  0.10100000000E+03 0. -1.
<mgrwt>
<rscale>  0 0.13531285E+04</rscale>
<asrwt>0</asrwt>
<pdfrwt beam="1">  1        2 0.96462029E-01 0.13531285E+04</pdfrwt>
<pdfrwt beam="2">  1       -2 0.96842420E-01 0.13531285E+04</pdfrwt>
<totfact> 0.41009766E+01</totfact>
</mgrwt>
</event>
<event>
 8    2  0.4480234E-052  0.1455248E+04  0.7818608E-02  0.8914770E-01
         -2   -1    0    0    0  501 -0.00000000000E+00  0.00000000000E+00  0.66497870771E+03  0.66497870771E+03  0.25500000000E-02 0. -1.
          2   -1    0    0  501    0  0.00000000000E+00 -0.00000000000E+00 -0.79617105089E+03  0.79617105090E+03  0.25500000000E-02 0.  1.
    -200001    2    1    2    0    0 -0.33630271837E+03 -0.10898469229E+03  0.10292000902E+03  0.71579428973E+03  0.61383365451E+03 0.  0.
   -5000001    2    3    3    0    0 -0.32272179414E+03 -0.87934649273E+02  0.32438971727E+03  0.47109574563E+03  0.69430929143E+02 0.  0.
     200001    1    1    2    0    0  0.33630271837E+03  0.10898469229E+03 -0.23411235221E+03  0.74535546888E+03  0.61300000000E+03 0.  1.
         13    1    4    4    0    0 -0.10069860318E+03 -0.47870508965E+02  0.13436348812E+03  0.17460055101E+03  0.10566000000E+00 0.  1.
    -200003    1    4    4    0    0 -0.22202319097E+03 -0.40064140308E+02  0.19002622915E+03  0.29649519462E+03  0.30000000000E+02 0.  1.
    -200000    1    3    3    0    0 -0.13580924232E+02 -0.21050043018E+02 -0.22146970824E+03  0.24469854410E+03  0.10100000000E+03 0.  1.
<mgrwt>
<rscale>  0 0.14552482E+04</rscale>
<asrwt>0</asrwt>
<pdfrwt beam="1">  1        2 0.11373872E+00 0.14552482E+04</pdfrwt>
<pdfrwt beam="2">  1       -2 0.94996958E-01 0.14552482E+04</pdfrwt>
<totfact> 0.34629890E+01</totfact>
</mgrwt>
</event>
<event>
 8    2  0.4480234E-052  0.1507318E+04  0.7818608E-02  0.8879601E-01
          2   -1    0    0  501    0  0.00000000000E+00  0.00000000000E+00  0.16612862604E+04  0.16612862604E+04  0.25500000000E-02 0.  1.
         -2   -1    0    0    0  501 -0.00000000000E+00 -0.00000000000E+00 -0.34190469421E+03  0.34190469422E+03  0.25500000000E-02 0. -1.
    -200001    2    1    2    0    0 -0.24246293233E+02  0.43911336763E+01  0.12419286827E+04  0.13848260834E+04  0.61216767607E+03 0.  0.
   -5000001    2    3    3    0    0  0.10693255593E+03 -0.15920639110E+03  0.10844751284E+04  0.11038195669E+04  0.74498896706E+02 0.  0.
     200001    1    1    2    0    0  0.24246293233E+02 -0.43911336763E+01  0.77452883508E+02  0.61836487122E+03  0.61300000000E+03 0. -1.
         13    1    4    4    0    0  0.78564729921E+01 -0.25418264419E+02  0.62319224516E+02  0.67760676224E+02  0.10566000000E+00 0.  1.
    -200003    1    4    4    0    0  0.99076082942E+02 -0.13378812668E+03  0.10221559039E+04  0.10360588906E+04  0.30000000000E+02 0.  1.
    -200000    1    3    3    0    0 -0.13117884917E+03  0.16359752478E+03  0.15745355431E+03  0.28100651655E+03  0.10100000000E+03 0. -1.
<mgrwt>
<rscale>  0 0.15073176E+04</rscale>
<asrwt>0</asrwt>
<pdfrwt beam="1">  1        2 0.23732661E+00 0.15073176E+04</pdfrwt>
<pdfrwt beam="2">  1       -2 0.48843528E-01 0.15073176E+04</pdfrwt>
<totfact> 0.46118485E+01</totfact>
</mgrwt>
</event>
<event>
 8    2  0.4480234E-052  0.1704252E+04  0.7818608E-02  0.8758943E-01
          2   -1    0    0  501    0  0.00000000000E+00  0.00000000000E+00  0.58013769942E+03  0.58013769943E+03  0.25500000000E-02 0.  1.
         -2   -1    0    0    0  501 -0.00000000000E+00 -0.00000000000E+00 -0.12516313319E+04  0.12516313319E+04  0.25500000000E-02 0. -1.
    -200001    2    1    2    0    0  0.20678520799E+03 -0.37191263666E+03 -0.77833552397E+03  0.10779366088E+04  0.61242306705E+03 0.  0.
   -5000001    2    3    3    0    0 -0.16340671053E+03  0.15418514599E+02 -0.14038440713E+03  0.23874050250E+03  0.10173378067E+03 0.  0.
     200001    1    1    2    0    0 -0.20678520799E+03  0.37191263666E+03  0.10684189149E+03  0.75383242258E+03  0.61300000000E+03 0.  1.
         13    1    4    4    0    0 -0.84737173362E+02 -0.12116098468E+01 -0.12580846659E+03  0.15168928102E+03  0.10566000000E+00 0.  1.
    -200003    1    4    4    0    0 -0.78669537167E+02  0.16630124446E+02 -0.14575940541E+02  0.87051221473E+02  0.30000000000E+02 0.  1.
    -200000    1    3    3    0    0  0.37019191852E+03 -0.38733115126E+03 -0.63795111684E+03  0.83919610625E+03  0.10100000000E+03 0. -1.
<mgrwt>
<rscale>  0 0.17042518E+04</rscale>
<asrwt>0</asrwt>
<pdfrwt beam="1">  1        2 0.82876814E-01 0.17042518E+04</pdfrwt>
<pdfrwt beam="2">  1       -2 0.17880448E+00 0.17042518E+04</pdfrwt>
<totfact> 0.99456368E+00</totfact>
</mgrwt>
</event>
<event>
 8    2  0.4480234E-052  0.1290790E+04  0.7818608E-02  0.9036901E-01
         -2   -1    0    0    0  501 -0.00000000000E+00  0.00000000000E+00  0.86147315038E+03  0.86147315038E+03  0.25500000000E-02 0. -1.
          2   -1    0    0  501    0  0.00000000000E+00 -0.00000000000E+00 -0.48351425807E+03  0.48351425808E+03  0.25500000000E-02 0.  1.
    -200001    2    1    2    0    0  0.32236487992E+02 -0.18468445890E+03  0.11377588337E+03  0.65165545137E+03  0.61364675111E+03 0.  0.
   -5000001    2    3    3    0    0  0.72814308764E+01 -0.38898498136E+03  0.18039272370E+01  0.39650808746E+03  0.76505387427E+02 0.  0.
     200001    1    1    2    0    0 -0.32236487992E+02  0.18468445890E+03  0.26418300894E+03  0.69333195709E+03  0.61300000000E+03 0. -1.
         13    1    4    4    0    0  0.31625475132E+02 -0.18404580683E+03  0.16316519907E+02  0.18745471366E+03  0.10566000000E+00 0.  1.
    -200003    1    4    4    0    0 -0.24344044256E+02 -0.20493917453E+03 -0.14512592670E+02  0.20905337379E+03  0.30000000000E+02 0.  1.
    -200000    1    3    3    0    0  0.24955057115E+02  0.20430052246E+03  0.11197195613E+03  0.25514736391E+03  0.10100000000E+03 0.  1.
<mgrwt>
<rscale>  0 0.12907898E+04</rscale>
<asrwt>0</asrwt>
<pdfrwt beam="1">  1        2 0.69073466E-01 0.12907898E+04</pdfrwt>
<pdfrwt beam="2">  1       -2 0.12306759E+00 0.12907898E+04</pdfrwt>
<totfact> 0.34154872E+01</totfact>
</mgrwt>
</event>
<event>
 8    2  0.4480234E-052  0.1520066E+04  0.7818608E-02  0.8871218E-01
         -2   -1    0    0    0  501 -0.00000000000E+00  0.00000000000E+00  0.19944356867E+03  0.19944356868E+03  0.25500000000E-02 0. -1.
          2   -1    0    0  501    0  0.00000000000E+00 -0.00000000000E+00 -0.28963099971E+04  0.28963099971E+04  0.25500000000E-02 0.  1.
    -200001    2    1    2    0    0 -0.29765808520E+03  0.25307891602E+03 -0.18006087402E+04  0.19417621806E+04  0.61286153186E+03 0.  0.
   -5000001    2    3    3    0    0  0.10965147649E+02 -0.91746822895E+02 -0.10824013914E+03  0.18435910447E+03  0.11719487065E+03 0.  0.
     200001    1    1    2    0    0  0.29765808520E+03 -0.25307891602E+03 -0.89625768829E+03  0.11539913853E+04  0.61300000000E+03 0. -1.
         13    1    4    4    0    0 -0.32569503668E+02 -0.71918672937E+02 -0.23215482129E+02  0.82292392484E+02  0.10566000000E+00 0.  1.
    -200003    1    4    4    0    0  0.43534651317E+02 -0.19828149958E+02 -0.85024657009E+02  0.10206671199E+03  0.30000000000E+02 0.  1.
    -200000    1    3    3    0    0 -0.30862323285E+03  0.34482573892E+03 -0.16923686010E+04  0.17574030761E+04  0.10100000000E+03 0.  1.
<mgrwt>
<rscale>  0 0.15200663E+04</rscale>
<asrwt>0</asrwt>
<pdfrwt beam="1">  1        2 0.41375855E+00 0.15200663E+04</pdfrwt>
<pdfrwt beam="2">  1       -2 0.28491940E-01 0.15200663E+04</pdfrwt>
<totfact> 0.29494844E+01</totfact>
</mgrwt>
</event>
<event>
 8    2  0.4480234E-052  0.2038760E+04  0.7818608E-02  0.8588710E-01
         -2   -1    0    0    0  501 -0.00000000000E+00  0.00000000000E+00  0.86967795435E+03  0.86967795435E+03  0.25500000000E-02 0. -1.
          2   -1    0    0  501    0  0.00000000000E+00 -0.00000000000E+00 -0.11948511731E+04  0.11948511731E+04  0.25500000000E-02 0.  1.
    -200001    2    1    2    0    0 -0.79314282995E+03  0.94269333208E+02 -0.60285892736E+00  0.10066646870E+04  0.61270806486E+03 0.  0.
   -5000001    2    3    3    0    0 -0.52934050057E+03 -0.18381706146E+03 -0.14129967208E+03  0.58604573223E+03  0.97436775922E+02 0.  0.
     200001    1    1    2    0    0  0.79314282995E+03 -0.94269333208E+02 -0.32457035982E+03  0.10578644404E+04  0.61300000000E+03 0.  1.
         13    1    4    4    0    0 -0.13090981356E+03 -0.71733733744E+02 -0.70430489738E+02  0.16505627189E+03  0.10566000000E+00 0.  1.
    -200003    1    4    4    0    0 -0.39843068702E+03 -0.11208332772E+03 -0.70869182345E+02  0.42098946034E+03  0.30000000000E+02 0.  1.
    -200000    1    3    3    0    0 -0.26380232938E+03  0.27808639467E+03  0.14069681316E+03  0.42061895478E+03  0.10100000000E+03 0. -1.
<mgrwt>
<rscale>  0 0.20387601E+04</rscale>
<asrwt>0</asrwt>
<pdfrwt beam="1">  1        2 0.17069303E+00 0.20387601E+04</pdfrwt>
<pdfrwt beam="2">  1       -2 0.12423971E+00 0.20387601E+04</pdfrwt>
<totfact> 0.97436834E+00</totfact>
</mgrwt>
</event>
<event>
 8    2  0.4480234E-052  0.1761495E+04  0.7818608E-02  0.8727048E-01
          2   -1    0    0  501    0  0.00000000000E+00  0.00000000000E+00  0.11096856154E+04  0.11096856154E+04  0.25500000000E-02 0.  1.
         -2   -1    0    0    0  501 -0.00000000000E+00 -0.00000000000E+00 -0.69904119643E+03  0.69904119644E+03  0.25500000000E-02 0. -1.
    -200001    2    1    2    0    0  0.22633572536E+03  0.58937489575E+03  0.23993858535E+03  0.91234513533E+03  0.61336163305E+03 0.  0.
   -5000001    2    3    3    0    0 -0.92902677644E+02  0.17272795129E+03 -0.14529090549E+03  0.25347443868E+03  0.68366593998E+02 0.  0.
     200001    1    1    2    0    0 -0.22633572536E+03 -0.58937489575E+03  0.17070583358E+03  0.89638167648E+03  0.61300000000E+03 0.  1.
         13    1    4    4    0    0 -0.47724715530E+01  0.87212013337E+01  0.60779718347E+01  0.11652842704E+02  0.10566000000E+00 0.  1.
    -200003    1    4    4    0    0 -0.88130206091E+02  0.16400674996E+03 -0.15136887733E+03  0.24182159598E+03  0.30000000000E+02 0.  1.
    -200000    1    3    3    0    0  0.31923840300E+03  0.41664694446E+03  0.38522949085E+03  0.65887069664E+03  0.10100000000E+03 0. -1.
<mgrwt>
<rscale>  0 0.17614948E+04</rscale>
<asrwt>0</asrwt>
<pdfrwt beam="1">  1        2 0.15852652E+00 0.17614948E+04</pdfrwt>
<pdfrwt beam="2">  1       -2 0.99863029E-01 0.17614948E+04</pdfrwt>
<totfact> 0.18981488E+01</totfact>
</mgrwt>
</event>
<event>
 8    2  0.4480234E-052  0.1394616E+04  0.7818608E-02  0.8957725E-01
          2   -1    0    0  501    0  0.00000000000E+00  0.00000000000E+00  0.86337752947E+03  0.86337752947E+03  0.25500000000E-02 0.  1.
         -2   -1    0    0    0  501 -0.00000000000E+00 -0.00000000000E+00 -0.56318178089E+03  0.56318178089E+03  0.25500000000E-02 0. -1.
    -200001    2    1    2    0    0 -0.46759602263E+02 -0.31254109424E+03  0.63169181058E+02  0.69730010425E+03  0.61835968009E+03 0.  0.
   -5000001    2    3    3    0    0  0.18120222049E+03 -0.31324821955E+03  0.18138577917E+03  0.42135942815E+03  0.11697980611E+03 0.  0.
     200001    1    1    2    0    0  0.46759602263E+02  0.31254109424E+03  0.23702656752E+03  0.72925920611E+03  0.61300000000E+03 0. -1.
         13    1    4    4    0    0  0.10608028691E+03 -0.81068274341E+02  0.78118845560E+02  0.15468567345E+03  0.10566000000E+00 0.  1.
    -200003    1    4    4    0    0  0.75121933576E+02 -0.23217994521E+03  0.10326693361E+03  0.26667375469E+03  0.30000000000E+02 0.  1.
    -200000    1    3    3    0    0 -0.22796182275E+03  0.70712531867E+00 -0.11821659811E+03  0.27594067611E+03  0.10100000000E+03 0.  1.
<mgrwt>
<rscale>  0 0.13946161E+04</rscale>
<asrwt>0</asrwt>
<pdfrwt beam="1">  1        2 0.12333965E+00 0.13946161E+04</pdfrwt>
<pdfrwt beam="2">  1       -2 0.80454540E-01 0.13946161E+04</pdfrwt>
<totfact> 0.45778318E+01</totfact>
</mgrwt>
</event>
<event>
 8    2  0.4480234E-052  0.2260434E+04  0.7818608E-02  0.8493687E-01
         -2   -1    0    0    0  501 -0.00000000000E+00  0.00000000000E+00  0.69379434988E+03  0.69379434988E+03  0.25500000000E-02 0. -1.
          2   -1    0    0  501    0  0.00000000000E+00 -0.00000000000E+00 -0.18411665541E+04  0.18411665541E+04  0.25500000000E-02 0.  1.
    -200001    2    1    2    0    0  0.69942407251E+03 -0.62458090920E+03 -0.74080631670E+03  0.13431722624E+04  0.61320663913E+03 0.  0.
   -5000001    2    3    3    0    0  0.52851018706E+03 -0.57789847790E+03 -0.27490268742E+03  0.83458795532E+03  0.87612208236E+02 0.  0.
     200001    1    1    2    0    0 -0.69942407251E+03  0.62458090920E+03 -0.40656588753E+03  0.11917886416E+04  0.61300000000E+03 0.  1.
         13    1    4    4    0    0  0.27109057428E+03 -0.24278845546E+03 -0.11276160907E+03  0.38098756569E+03  0.10566000000E+00 0.  1.
    -200003    1    4    4    0    0  0.25741961278E+03 -0.33511002244E+03 -0.16214107836E+03  0.45360038963E+03  0.30000000000E+02 0.  1.
    -200000    1    3    3    0    0  0.17091388545E+03 -0.46682431304E+02 -0.46590362927E+03  0.50858430707E+03  0.10100000000E+03 0.  1.
<mgrwt>
<rscale>  0 0.22604344E+04</rscale>
<asrwt>0</asrwt>
<pdfrwt beam="1">  1        2 0.26302379E+00 0.22604344E+04</pdfrwt>
<pdfrwt beam="2">  1       -2 0.99113479E-01 0.22604344E+04</pdfrwt>
<totfact> 0.74730387E+00</totfact>
</mgrwt>
</event>
<event>
 8    2  0.4480234E-052  0.1330376E+04  0.7818608E-02  0.9005818E-01
          2   -1    0    0  501    0  0.00000000000E+00  0.00000000000E+00  0.22215194842E+04  0.22215194842E+04  0.25500000000E-02 0.  1.
         -2   -1    0    0    0  501 -0.00000000000E+00 -0.00000000000E+00 -0.19917678156E+03  0.19917678158E+03  0.25500000000E-02 0. -1.
    -200001    2    1    2    0    0  0.10732163660E+03 -0.17657883465E+03  0.72435539333E+03  0.97044177995E+03  0.61185659586E+03 0.  0.
   -5000001    2    3    3    0    0 -0.15182263734E+03 -0.29549939685E+03  0.38280014947E+03  0.51419750389E+03  0.86562762348E+02 0.  0.
     200001    1    1    2    0    0 -0.10732163660E+03  0.17657883465E+03  0.12979873093E+04  0.14502544858E+04  0.61300000000E+03 0.  1.
         13    1    4    4    0    0 -0.12554928235E+03 -0.24686472754E+03  0.33801155869E+03  0.43698585901E+03  0.10566000000E+00 0.  1.
    -200003    1    4    4    0    0 -0.26273354989E+02 -0.48634669307E+02  0.44788590784E+02  0.77211644882E+02  0.30000000000E+02 0. -1.
    -200000    1    3    3    0    0  0.25914427394E+03  0.11892056220E+03  0.34155524386E+03  0.45624427606E+03  0.10100000000E+03 0. -1.
<mgrwt>
<rscale>  0 0.13303760E+04</rscale>
<asrwt>0</asrwt>
<pdfrwt beam="1">  1        2 0.31735992E+00 0.13303760E+04</pdfrwt>
<pdfrwt beam="2">  1       -2 0.28453826E-01 0.13303760E+04</pdfrwt>
<totfact> 0.68340178E+01</totfact>
</mgrwt>
</event>
<event>
 8    2  0.4480234E-052  0.1618617E+04  0.7818608E-02  0.8809192E-01
          2   -1    0    0  501    0  0.00000000000E+00  0.00000000000E+00  0.19998674181E+04  0.19998674181E+04  0.25500000000E-02 0.  1.
         -2   -1    0    0    0  501 -0.00000000000E+00 -0.00000000000E+00 -0.32751164207E+03  0.32751164208E+03  0.25500000000E-02 0. -1.
    -200001    2    1    2    0    0 -0.10730948177E+03 -0.21347688663E+03  0.15696691764E+03  0.67533181566E+03  0.61183882028E+03 0.  0.
   -5000001    2    3    3    0    0  0.67921745787E+02 -0.20372528679E+02  0.33005580109E+03  0.34646096298E+03  0.77909970852E+02 0.  0.
     200001    1    1    2    0    0  0.10730948177E+03  0.21347688663E+03  0.15153888584E+04  0.16520472445E+04  0.61300000000E+03 0.  1.
         13    1    4    4    0    0 -0.81717964490E+01  0.61608041711E+01  0.76303271929E+01  0.12765845931E+02  0.10566000000E+00 0.  1.
    -200003    1    4    4    0    0  0.76093542237E+02 -0.26533332850E+02  0.32242547390E+03  0.33369511705E+03  0.30000000000E+02 0.  1.
    -200000    1    3    3    0    0 -0.17523122756E+03 -0.19310435795E+03 -0.17308888345E+03  0.32887085268E+03  0.10100000000E+03 0. -1.
<mgrwt>
<rscale>  0 0.16186165E+04</rscale>
<asrwt>0</asrwt>
<pdfrwt beam="1">  1        2 0.28569534E+00 0.16186165E+04</pdfrwt>
<pdfrwt beam="2">  1       -2 0.46787378E-01 0.16186165E+04</pdfrwt>
<totfact> 0.33338908E+01</totfact>
</mgrwt>
</event>
<event>
 8    2  0.4480234E-052  0.1332876E+04  0.7818608E-02  0.9003893E-01
          2   -1    0    0  501    0  0.00000000000E+00  0.00000000000E+00  0.14255857378E+04  0.14255857378E+04  0.25500000000E-02 0.  1.
         -2   -1    0    0    0  501 -0.00000000000E+00 -0.00000000000E+00 -0.31154880969E+03  0.31154880970E+03  0.25500000000E-02 0. -1.
    -200001    2    1    2    0    0  0.18486924463E+03  0.72200404698E+02  0.33543422024E+03  0.72650073017E+03  0.61310493293E+03 0.  0.
   -5000001    2    3    3    0    0  0.19088399137E+03 -0.22898773541E+03  0.91328836744E+02  0.32582765749E+03  0.94607741953E+02 0.  0.
     200001    1    1    2    0    0 -0.18486924463E+03 -0.72200404698E+02  0.77860270786E+03  0.10106338173E+04  0.61300000000E+03 0.  1.
         13    1    4    4    0    0  0.22008920936E+02 -0.13894998642E+02  0.37271446078E+02  0.45460262260E+02  0.10566000000E+00 0.  1.
    -200003    1    4    4    0    0  0.16887507043E+03 -0.21509273677E+03  0.54057390666E+02  0.28036739523E+03  0.30000000000E+02 0. -1.
    -200000    1    3    3    0    0 -0.60147467430E+01  0.30118814011E+03  0.24410538350E+03  0.40067307268E+03  0.10100000000E+03 0. -1.
<mgrwt>
<rscale>  0 0.13328759E+04</rscale>
<asrwt>0</asrwt>
<pdfrwt beam="1">  1        2 0.20365511E+00 0.13328759E+04</pdfrwt>
<pdfrwt beam="2">  1       -2 0.44506973E-01 0.13328759E+04</pdfrwt>
<totfact> 0.75052057E+01</totfact>
</mgrwt>
</event>
<event>
 8    2  0.4480234E-052  0.1480174E+04  0.7818608E-02  0.8897745E-01
          2   -1    0    0  501    0  0.00000000000E+00  0.00000000000E+00  0.12963320168E+04  0.12963320168E+04  0.25500000000E-02 0. -1.
         -2   -1    0    0    0  501 -0.00000000000E+00 -0.00000000000E+00 -0.42252200425E+03  0.42252200425E+03  0.25500000000E-02 0.  1.
    -200001    2    1    2    0    0  0.14058832022E+02 -0.58673972540E+02  0.91325004220E+03  0.11016305593E+04  0.61312638492E+03 0.  0.
   -5000001    2    3    3    0    0 -0.13053271387E+03 -0.27218202147E+03  0.62716964970E+03  0.70346552688E+03  0.10198105609E+03 0.  0.
     200001    1    1    2    0    0 -0.14058832022E+02  0.58673972540E+02 -0.39440029601E+02  0.61722346176E+03  0.61300000000E+03 0.  1.
         13    1    4    4    0    0 -0.94459065798E+02 -0.22775983211E+03  0.42643800293E+03  0.49259155264E+03  0.10566000000E+00 0.  1.
    -200003    1    4    4    0    0 -0.36073648074E+02 -0.44422189363E+02  0.20073164678E+03  0.21087397424E+03  0.30000000000E+02 0.  1.
    -200000    1    3    3    0    0  0.14459154589E+03  0.21350804893E+03  0.28608039249E+03  0.39816503246E+03  0.10100000000E+03 0.  1.
<mgrwt>
<rscale>  0 0.14801740E+04</rscale>
<asrwt>0</asrwt>
<pdfrwt beam="1">  1        2 0.18519029E+00 0.14801740E+04</pdfrwt>
<pdfrwt beam="2">  1       -2 0.60360287E-01 0.14801740E+04</pdfrwt>
<totfact> 0.46742662E+01</totfact>
</mgrwt>
</event>
<event>
 8    2  0.4480234E-052  0.1441299E+04  0.7818608E-02  0.8924455E-01
          2   -1    0    0  501    0  0.00000000000E+00  0.00000000000E+00  0.27381873495E+04  0.27381873495E+04  0.25500000000E-02 0.  1.
         -2   -1    0    0    0  501 -0.00000000000E+00 -0.00000000000E+00 -0.18966394572E+03  0.18966394573E+03  0.25500000000E-02 0. -1.
    -200001    2    1    2    0    0 -0.10157302603E+03 -0.34245760721E+03  0.10174116515E+04  0.12403482611E+04  0.61297883142E+03 0.  0.
   -5000001    2    3    3    0    0 -0.25757437925E+02 -0.22951300889E+02  0.85206444677E+03  0.85907017188E+03  0.10391116857E+03 0.  0.
     200001    1    1    2    0    0  0.10157302603E+03  0.34245760721E+03  0.15311117523E+04  0.16875030342E+04  0.61300000000E+03 0.  1.
         13    1    4    4    0    0  0.13915505182E+02  0.11367746106E+02  0.31353694051E+02  0.36137684357E+02  0.10566000000E+00 0.  1.
    -200003    1    4    4    0    0 -0.39672943107E+02 -0.34319046995E+02  0.82071075271E+03  0.82293248752E+03  0.30000000000E+02 0.  1.
    -200000    1    3    3    0    0 -0.75815588104E+02 -0.31950630632E+03  0.16534720474E+03  0.38127808919E+03  0.10100000000E+03 0. -1.
<mgrwt>
<rscale>  0 0.14412986E+04</rscale>
<asrwt>0</asrwt>
<pdfrwt beam="1">  1        2 0.39116962E+00 0.14412986E+04</pdfrwt>
<pdfrwt beam="2">  1       -2 0.27094849E-01 0.14412986E+04</pdfrwt>
<totfact> 0.39701030E+01</totfact>
</mgrwt>
</event>
<event>
 8    2  0.4480234E-052  0.2029066E+04  0.7818608E-02  0.8593151E-01
         -2   -1    0    0    0  501 -0.00000000000E+00  0.00000000000E+00  0.52918970602E+03  0.52918970603E+03  0.25500000000E-02 0. -1.
          2   -1    0    0  501    0  0.00000000000E+00 -0.00000000000E+00 -0.19450056668E+04  0.19450056668E+04  0.25500000000E-02 0.  1.
    -200001    2    1    2    0    0  0.67618445244E+03  0.26667508541E+03 -0.11392637356E+04  0.14839473493E+04  0.61305534931E+03 0.  0.
   -5000001    2    3    3    0    0 -0.59197839129E+02 -0.42981890314E+02 -0.86438593101E+01  0.96439921555E+02  0.62242390003E+02 0.  0.
     200001    1    1    2    0    0 -0.67618445244E+03 -0.26667508541E+03 -0.27655222521E+03  0.99024802356E+03  0.61300000000E+03 0. -1.
         13    1    4    4    0    0 -0.42825957362E+02 -0.29817151392E+02  0.13158677815E+02  0.53817163684E+02  0.10566000000E+00 0.  1.
    -200003    1    4    4    0    0 -0.16371881767E+02 -0.13164738922E+02 -0.21802537125E+02  0.42622757871E+02  0.30000000000E+02 0. -1.
    -200000    1    3    3    0    0  0.73538229157E+03  0.30965697572E+03 -0.11306198763E+04  0.13875074277E+04  0.10100000000E+03 0.  1.
<mgrwt>
<rscale>  0 0.20290658E+04</rscale>
<asrwt>0</asrwt>
<pdfrwt beam="1">  1        2 0.27785795E+00 0.20290658E+04</pdfrwt>
<pdfrwt beam="2">  1       -2 0.75598531E-01 0.20290658E+04</pdfrwt>
<totfact> 0.12502324E+01</totfact>
</mgrwt>
</event>
<event>
 8    2  0.4480234E-052  0.1648732E+04  0.7818608E-02  0.8791157E-01
          2   -1    0    0  501    0  0.00000000000E+00  0.00000000000E+00  0.23255269529E+04  0.23255269529E+04  0.25500000000E-02 0.  1.
         -2   -1    0    0    0  501 -0.00000000000E+00 -0.00000000000E+00 -0.29222610912E+03  0.29222610913E+03  0.25500000000E-02 0. -1.
    -200001    2    1    2    0    0 -0.33674695371E+03 -0.25852960727E+03  0.46043379233E+03  0.87708772079E+03  0.61404195637E+03 0.  0.
   -5000001    2    3    3    0    0 -0.15671390109E+03 -0.35318567930E+03  0.49893951866E+03  0.64675022283E+03  0.14158332033E+03 0.  0.
     200001    1    1    2    0    0  0.33674695371E+03  0.25852960727E+03  0.15728670514E+04  0.17406653412E+04  0.61300000000E+03 0.  1.
         13    1    4    4    0    0 -0.14600457407E+03 -0.16458751912E+03  0.25605831229E+03  0.33759777481E+03  0.10566000000E+00 0.  1.
    -200003    1    4    4    0    0 -0.10709327010E+02 -0.18859816018E+03  0.24288120637E+03  0.30915244802E+03  0.30000000000E+02 0.  1.
    -200000    1    3    3    0    0 -0.18003305262E+03  0.94656072026E+02 -0.38505726332E+02  0.23033749796E+03  0.10100000000E+03 0.  1.
<mgrwt>
<rscale>  0 0.16487325E+04</rscale>
<asrwt>0</asrwt>
<pdfrwt beam="1">  1        2 0.33221813E+00 0.16487325E+04</pdfrwt>
<pdfrwt beam="2">  1       -2 0.41746588E-01 0.16487325E+04</pdfrwt>
<totfact> 0.28342172E+01</totfact>
</mgrwt>
</event>
<event>
 8    2  0.4480234E-052  0.1384310E+04  0.7818608E-02  0.8965255E-01
         -2   -1    0    0    0  501 -0.00000000000E+00  0.00000000000E+00  0.28990347067E+03  0.28990347068E+03  0.25500000000E-02 0. -1.
          2   -1    0    0  501    0  0.00000000000E+00 -0.00000000000E+00 -0.16525445024E+04  0.16525445024E+04  0.25500000000E-02 0.  1.
    -200001    2    1    2    0    0  0.21817014670E+03 -0.21894413940E+03 -0.55952769001E+03  0.88589944665E+03  0.61336110457E+03 0.  0.
   -5000001    2    3    3    0    0 -0.13259396118E+03 -0.18964048618E+03 -0.65791529133E+02  0.27118767677E+03  0.12517810585E+03 0.  0.
     200001    1    1    2    0    0 -0.21817014670E+03  0.21894413940E+03 -0.80311334176E+03  0.10565485265E+04  0.61300000000E+03 0.  1.
         13    1    4    4    0    0 -0.30305071020E+02  0.13015356192E+02 -0.16840572980E+02  0.37032592249E+02  0.10566000000E+00 0.  1.
    -200003    1    4    4    0    0 -0.10228889016E+03 -0.20265584237E+03 -0.48950956153E+02  0.23415508452E+03  0.30000000000E+02 0.  1.
    -200000    1    3    3    0    0  0.35076410788E+03 -0.29303653219E+02 -0.49373616088E+03  0.61471176988E+03  0.10100000000E+03 0. -1.
<mgrwt>
<rscale>  0 0.13843098E+04</rscale>
<asrwt>0</asrwt>
<pdfrwt beam="1">  1        2 0.23607778E+00 0.13843098E+04</pdfrwt>
<pdfrwt beam="2">  1       -2 0.41414782E-01 0.13843098E+04</pdfrwt>
<totfact> 0.65394029E+01</totfact>
</mgrwt>
</event>
<event>
 8    2  0.4480234E-052  0.1448766E+04  0.7818608E-02  0.8919257E-01
          2   -1    0    0  501    0  0.00000000000E+00  0.00000000000E+00  0.32276522063E+04  0.32276522063E+04  0.25500000000E-02 0.  1.
         -2   -1    0    0    0  501 -0.00000000000E+00 -0.00000000000E+00 -0.16257339605E+03  0.16257339607E+03  0.25500000000E-02 0. -1.
    -200001    2    1    2    0    0 -0.29888597416E+03 -0.18288699706E+03  0.19116663454E+04  0.20378536886E+04  0.61286128982E+03 0.  0.
   -5000001    2    3    3    0    0 -0.11020194092E+03  0.18369116021E+03  0.34078609079E+03  0.41063305689E+03  0.81224612091E+02 0.  0.
     200001    1    1    2    0    0  0.29888597416E+03  0.18288699706E+03  0.11534124649E+04  0.13523719138E+04  0.61300000000E+03 0. -1.
         13    1    4    4    0    0 -0.27337693537E+02  0.33925622389E+02  0.25104797448E+02  0.50284782602E+02  0.10566000000E+00 0.  1.
    -200003    1    4    4    0    0 -0.82864247383E+02  0.14976553783E+03  0.31568129335E+03  0.36034827429E+03  0.30000000000E+02 0.  1.
    -200000    1    3    3    0    0 -0.18868403324E+03 -0.36657815727E+03  0.15708802546E+04  0.16272206317E+04  0.10100000000E+03 0.  1.
<mgrwt>
<rscale>  0 0.14487655E+04</rscale>
<asrwt>0</asrwt>
<pdfrwt beam="1">  1        2 0.46109311E+00 0.14487655E+04</pdfrwt>
<pdfrwt beam="2">  1       -2 0.23224774E-01 0.14487655E+04</pdfrwt>
<totfact> 0.28048269E+01</totfact>
</mgrwt>
</event>
<event>
 8    2  0.4480234E-052  0.1314815E+04  0.7818608E-02  0.9017898E-01
         -2   -1    0    0    0  501 -0.00000000000E+00  0.00000000000E+00  0.16349166677E+03  0.16349166679E+03  0.25500000000E-02 0. -1.
          2   -1    0    0  501    0  0.00000000000E+00 -0.00000000000E+00 -0.26434675296E+04  0.26434675296E+04  0.25500000000E-02 0.  1.
    -200001    2    1    2    0    0 -0.77778088564E+02  0.91703729261E+02 -0.79732330383E+03  0.10120921709E+04  0.61167565462E+03 0.  0.
   -5000001    2    3    3    0    0 -0.14132471296E+03  0.30971380184E+03 -0.60511297758E+03  0.69790691541E+03  0.70831020058E+02 0.  0.
     200001    1    1    2    0    0  0.77778088564E+02 -0.91703729261E+02 -0.16826525590E+04  0.17948670256E+04  0.61300000000E+03 0.  1.
         13    1    4    4    0    0 -0.17257364287E+02  0.10262356508E+03 -0.16638265279E+03  0.19624630199E+03  0.10566000000E+00 0.  1.
    -200003    1    4    4    0    0 -0.12406734868E+03  0.20709023676E+03 -0.43873032478E+03  0.50166061342E+03  0.30000000000E+02 0.  1.
    -200000    1    3    3    0    0  0.63546624400E+02 -0.21801007258E+03 -0.19221032626E+03  0.31418525545E+03  0.10100000000E+03 0. -1.
<mgrwt>
<rscale>  0 0.13148154E+04</rscale>
<asrwt>0</asrwt>
<pdfrwt beam="1">  1        2 0.37763819E+00 0.13148154E+04</pdfrwt>
<pdfrwt beam="2">  1       -2 0.23355954E-01 0.13148154E+04</pdfrwt>
<totfact> 0.59024453E+01</totfact>
</mgrwt>
</event>
<event>
 8    2  0.4480234E-052  0.1821319E+04  0.7818608E-02  0.8695044E-01
          2   -1    0    0  501    0  0.00000000000E+00  0.00000000000E+00  0.19879556371E+04  0.19879556371E+04  0.25500000000E-02 0.  1.
         -2   -1    0    0    0  501 -0.00000000000E+00 -0.00000000000E+00 -0.41716259804E+03  0.41716259805E+03  0.25500000000E-02 0. -1.
    -200001    2    1    2    0    0  0.48660500042E+03  0.19783319543E+03  0.13409702506E+04  0.15657673468E+04  0.61441335572E+03 0.  0.
   -5000001    2    3    3    0    0 -0.51575961874E+02  0.13567055513E+03  0.10033866993E+03  0.20824362289E+03  0.11059375398E+03 0.  0.
     200001    1    1    2    0    0 -0.48660500042E+03 -0.19783319543E+03  0.22982278843E+03  0.83935088832E+03  0.61300000000E+03 0. -1.
         13    1    4    4    0    0 -0.13682835709E+01 -0.20210414716E+01 -0.17585919922E+02  0.17754789554E+02  0.10566000000E+00 0.  1.
    -200003    1    4    4    0    0 -0.50207678303E+02  0.13769159661E+03  0.11792458985E+03  0.19048883334E+03  0.30000000000E+02 0.  1.
    -200000    1    3    3    0    0  0.53818096229E+03  0.62162640299E+02  0.12406315807E+04  0.13575237239E+04  0.10100000000E+03 0.  1.
<mgrwt>
<rscale>  0 0.18213190E+04</rscale>
<asrwt>0</asrwt>
<pdfrwt beam="1">  1        2 0.28399366E+00 0.18213190E+04</pdfrwt>
<pdfrwt beam="2">  1       -2 0.59594657E-01 0.18213190E+04</pdfrwt>
<totfact> 0.20210235E+01</totfact>
</mgrwt>
</event>
<event>
 8    2  0.4480234E-052  0.1663772E+04  0.7818608E-02  0.8782301E-01
          2   -1    0    0  501    0  0.00000000000E+00  0.00000000000E+00  0.36967386102E+04  0.36967386102E+04  0.25500000000E-02 0.  1.
         -2   -1    0    0    0  501 -0.00000000000E+00 -0.00000000000E+00 -0.18720132622E+03  0.18720132624E+03  0.25500000000E-02 0. -1.
    -200001    2    1    2    0    0  0.42973087974E+03 -0.33349041139E+03  0.14208574555E+04  0.16402294138E+04  0.61288835653E+03 0.  0.
   -5000001    2    3    3    0    0  0.53394127371E+03 -0.24883214636E+03  0.82558941871E+03  0.10217054744E+04  0.12358586980E+03 0.  0.
     200001    1    1    2    0    0 -0.42973087974E+03  0.33349041139E+03  0.20886798284E+04  0.22437105226E+04  0.61300000000E+03 0.  1.
         13    1    4    4    0    0  0.14975801875E+03 -0.97324233970E+02  0.17177103052E+03  0.24779985631E+03  0.10566000000E+00 0.  1.
    -200003    1    4    4    0    0  0.38418325496E+03 -0.15150791239E+03  0.65381838819E+03  0.77390561804E+03  0.30000000000E+02 0.  1.
    -200000    1    3    3    0    0 -0.10421039397E+03 -0.84658265031E+02  0.59526803679E+03  0.61852393945E+03  0.10100000000E+03 0.  1.
<mgrwt>
<rscale>  0 0.16637721E+04</rscale>
<asrwt>0</asrwt>
<pdfrwt beam="1">  1        2 0.52810553E+00 0.16637721E+04</pdfrwt>
<pdfrwt beam="2">  1       -2 0.26743046E-01 0.16637721E+04</pdfrwt>
<totfact> 0.11085564E+01</totfact>
</mgrwt>
</event>
<event>
 8    2  0.4480234E-052  0.1264944E+04  0.7818608E-02  0.9057836E-01
          2   -1    0    0  501    0  0.00000000000E+00  0.00000000000E+00  0.20076330483E+04  0.20076330483E+04  0.25500000000E-02 0.  1.
         -2   -1    0    0    0  501 -0.00000000000E+00 -0.00000000000E+00 -0.19925006762E+03  0.19925006764E+03  0.25500000000E-02 0. -1.
    -200001    2    1    2    0    0 -0.50882923660E+02 -0.13964083843E+03  0.80092657251E+03  0.10182595212E+04  0.61096680943E+03 0.  0.
   -5000001    2    3    3    0    0  0.12396535840E+03 -0.31908041750E+03  0.52155351496E+03  0.62964558735E+03  0.85180829893E+02 0.  0.
     200001    1    1    2    0    0  0.50882923660E+02  0.13964083843E+03  0.10074564082E+04  0.11886235948E+04  0.61300000000E+03 0.  1.
         13    1    4    4    0    0  0.86322897804E+02 -0.25531829389E+03  0.36314753096E+03  0.45223358377E+03  0.10566000000E+00 0.  1.
    -200003    1    4    4    0    0  0.37642460595E+02 -0.63762123613E+02  0.15840598400E+03  0.17741200358E+03  0.30000000000E+02 0. -1.
    -200000    1    3    3    0    0 -0.17484828206E+03  0.17943957908E+03  0.27937305755E+03  0.38861393382E+03  0.10100000000E+03 0.  1.
<mgrwt>
<rscale>  0 0.12649443E+04</rscale>
<asrwt>0</asrwt>
<pdfrwt beam="1">  1        2 0.28680472E+00 0.12649443E+04</pdfrwt>
<pdfrwt beam="2">  1       -2 0.28464295E-01 0.12649443E+04</pdfrwt>
<totfact> 0.88383882E+01</totfact>
</mgrwt>
</event>
<event>
 8    2  0.4480234E-052  0.1766158E+04  0.7818608E-02  0.8724506E-01
          2   -1    0    0  501    0  0.00000000000E+00  0.00000000000E+00  0.49091758924E+03  0.49091758925E+03  0.25500000000E-02 0.  1.
         -2   -1    0    0    0  501 -0.00000000000E+00 -0.00000000000E+00 -0.15885113658E+04  0.15885113658E+04  0.25500000000E-02 0. -1.
    -200001    2    1    2    0    0  0.36268197158E+03 -0.11794234636E+03 -0.11473510860E+04  0.13557623195E+04  0.61337455343E+03 0.  0.
   -5000001    2    3    3    0    0  0.64697433742E+02 -0.20766227062E+03 -0.52342333302E+03  0.65125448379E+03  0.32070397649E+03 0.  0.
     200001    1    1    2    0    0 -0.36268197158E+03  0.11794234636E+03  0.49757309454E+02  0.72366663556E+03  0.61300000000E+03 0.  1.
         13    1    4    4    0    0  0.64396456502E+00 -0.10566719894E+02 -0.41557703089E+03  0.41571185938E+03  0.10566000000E+00 0.  1.
    -200003    1    4    4    0    0  0.64053469177E+02 -0.19709555073E+03 -0.10784630212E+03  0.23554262441E+03  0.30000000000E+02 0.  1.
    -200000    1    3    3    0    0  0.29798453784E+03  0.89719924263E+02 -0.62392775299E+03  0.70450783569E+03  0.10100000000E+03 0. -1.
<mgrwt>
<rscale>  0 0.17661576E+04</rscale>
<asrwt>0</asrwt>
<pdfrwt beam="1">  1        2 0.70131085E-01 0.17661576E+04</pdfrwt>
<pdfrwt beam="2">  1       -2 0.22693019E+00 0.17661576E+04</pdfrwt>
<totfact> 0.58138173E+00</totfact>
</mgrwt>
</event>
<event>
 8    2  0.4480234E-052  0.1632548E+04  0.7818608E-02  0.8800798E-01
         -2   -1    0    0    0  501 -0.00000000000E+00  0.00000000000E+00  0.76043309767E+03  0.76043309767E+03  0.25500000000E-02 0. -1.
          2   -1    0    0  501    0  0.00000000000E+00 -0.00000000000E+00 -0.87621519733E+03  0.87621519734E+03  0.25500000000E-02 0.  1.
    -200001    2    1    2    0    0  0.58701251937E+02 -0.40299970737E+03  0.29685270306E+03  0.79291191347E+03  0.61215453448E+03 0.  0.
   -5000001    2    3    3    0    0  0.34578639073E+02 -0.54418791670E+03  0.27689225236E+03  0.61651624884E+03  0.78017912754E+02 0.  0.
     200001    1    1    2    0    0 -0.58701251937E+02  0.40299970737E+03 -0.41263480273E+03  0.84373638154E+03  0.61300000000E+03 0.  1.
         13    1    4    4    0    0  0.33702928426E+02 -0.42631936293E+03  0.19587050891E+03  0.47037150638E+03  0.10566000000E+00 0.  1.
    -200003    1    4    4    0    0  0.87571064730E+00 -0.11786855377E+03  0.81021743455E+02  0.14614474246E+03  0.30000000000E+02 0.  1.
    -200000    1    3    3    0    0  0.24122612864E+02  0.14118820933E+03  0.19960450696E+02  0.17639566462E+03  0.10100000000E+03 0.  1.
<mgrwt>
<rscale>  0 0.16325477E+04</rscale>
<asrwt>0</asrwt>
<pdfrwt beam="1">  1        2 0.12517360E+00 0.16325477E+04</pdfrwt>
<pdfrwt beam="2">  1       -2 0.10863330E+00 0.16325477E+04</pdfrwt>
<totfact> 0.21896757E+01</totfact>
</mgrwt>
</event>
<event>
 8    2  0.4480234E-052  0.1480198E+04  0.7818608E-02  0.8897729E-01
         -2   -1    0    0    0  501 -0.00000000000E+00  0.00000000000E+00  0.33154550867E+03  0.33154550868E+03  0.25500000000E-02 0. -1.
          2   -1    0    0  501    0  0.00000000000E+00 -0.00000000000E+00 -0.16521000283E+04  0.16521000283E+04  0.25500000000E-02 0.  1.
    -200001    2    1    2    0    0  0.15454160887E+03 -0.31378805030E+03 -0.95984984937E+03  0.11910403966E+04  0.61230665820E+03 0.  0.
   -5000001    2    3    3    0    0 -0.21909365024E+03 -0.77257370623E+02 -0.33420508741E+03  0.41826459638E+03  0.96340558642E+02 0.  0.
     200001    1    1    2    0    0 -0.15454160887E+03  0.31378805030E+03 -0.36070467026E+03  0.79260514036E+03  0.61300000000E+03 0. -1.
         13    1    4    4    0    0 -0.55165874083E+02  0.42268963305E+01 -0.32716854872E+02  0.64277088241E+02  0.10566000000E+00 0.  1.
    -200003    1    4    4    0    0 -0.16392777616E+03 -0.81484266954E+02 -0.30148823254E+03  0.35398750814E+03  0.30000000000E+02 0.  1.
    -200000    1    3    3    0    0  0.37363525912E+03 -0.23653067967E+03 -0.62564476196E+03  0.77277580025E+03  0.10100000000E+03 0.  1.
<mgrwt>
<rscale>  0 0.14801977E+04</rscale>
<asrwt>0</asrwt>
<pdfrwt beam="1">  1        2 0.23601428E+00 0.14801977E+04</pdfrwt>
<pdfrwt beam="2">  1       -2 0.47363645E-01 0.14801977E+04</pdfrwt>
<totfact> 0.49726596E+01</totfact>
</mgrwt>
</event>
<event>
 8    2  0.4480234E-052  0.1631620E+04  0.7818608E-02  0.8801355E-01
         -2   -1    0    0    0  501 -0.00000000000E+00  0.00000000000E+00  0.30507581038E+03  0.30507581039E+03  0.25500000000E-02 0. -1.
          2   -1    0    0  501    0  0.00000000000E+00 -0.00000000000E+00 -0.21815745634E+04  0.21815745634E+04  0.25500000000E-02 0.  1.
    -200001    2    1    2    0    0  0.83233380602E+02  0.36502592778E+03 -0.34910819155E+03  0.79879295953E+03  0.61320627785E+03 0.  0.
   -5000001    2    3    3    0    0  0.12750706697E+03  0.28461911687E+03 -0.50069604925E+03  0.59481920350E+03  0.76467361022E+02 0.  0.
     200001    1    1    2    0    0 -0.83233380602E+02 -0.36502592778E+03 -0.15273905614E+04  0.16878574142E+04  0.61300000000E+03 0. -1.
         13    1    4    4    0    0  0.11427437949E+03  0.23629803241E+03 -0.41817575793E+03  0.49372701932E+03  0.10566000000E+00 0.  1.
    -200003    1    4    4    0    0  0.13232687481E+02  0.48321084462E+02 -0.82520291327E+02  0.10109218418E+03  0.30000000000E+02 0.  1.
    -200000    1    3    3    0    0 -0.44273686366E+02  0.80406810909E+02  0.15158785771E+03  0.20397375603E+03  0.10100000000E+03 0. -1.
<mgrwt>
<rscale>  0 0.16316196E+04</rscale>
<asrwt>0</asrwt>
<pdfrwt beam="1">  1        2 0.31165350E+00 0.16316196E+04</pdfrwt>
<pdfrwt beam="2">  1       -2 0.43582260E-01 0.16316196E+04</pdfrwt>
<totfact> 0.30943167E+01</totfact>
</mgrwt>
</event>
<event>
 8    2  0.4480234E-052  0.1714395E+04  0.7818608E-02  0.8753197E-01
         -2   -1    0    0    0  501 -0.00000000000E+00  0.00000000000E+00  0.26139361941E+03  0.26139361942E+03  0.25500000000E-02 0. -1.
          2   -1    0    0  501    0  0.00000000000E+00 -0.00000000000E+00 -0.28110381637E+04  0.28110381637E+04  0.25500000000E-02 0.  1.
    -200001    2    1    2    0    0  0.17189946325E+03 -0.23082977012E+03 -0.33656976000E+03  0.75806344401E+03  0.61526349929E+03 0.  0.
   -5000001    2    3    3    0    0  0.69458399338E+02 -0.30819306989E+03 -0.45261242769E+03  0.55769839603E+03  0.79762482812E+02 0.  0.
     200001    1    1    2    0    0 -0.17189946325E+03  0.23082977012E+03 -0.22130747843E+04  0.23143683391E+04  0.61300000000E+03 0.  1.
         13    1    4    4    0    0  0.42779380370E+02 -0.23872526036E+03 -0.30482506286E+03  0.38953582047E+03  0.10566000000E+00 0.  1.
    -200003    1    4    4    0    0  0.26679018968E+02 -0.69467809534E+02 -0.14778736484E+03  0.16816257556E+03  0.30000000000E+02 0.  1.
    -200000    1    3    3    0    0  0.10244106391E+03  0.77363299772E+02  0.11604266769E+03  0.20036504798E+03  0.10100000000E+03 0. -1.
<mgrwt>
<rscale>  0 0.17143949E+04</rscale>
<asrwt>0</asrwt>
<pdfrwt beam="1">  1        2 0.40157686E+00 0.17143949E+04</pdfrwt>
<pdfrwt beam="2">  1       -2 0.37341947E-01 0.17143949E+04</pdfrwt>
<totfact> 0.19370133E+01</totfact>
</mgrwt>
</event>
<event>
 8    2  0.4480234E-052  0.1256449E+04  0.7818608E-02  0.9064833E-01
          2   -1    0    0  501    0  0.00000000000E+00  0.00000000000E+00  0.80706809818E+03  0.80706809819E+03  0.25500000000E-02 0.  1.
         -2   -1    0    0    0  501 -0.00000000000E+00 -0.00000000000E+00 -0.48901228596E+03  0.48901228596E+03  0.25500000000E-02 0. -1.
    -200001    2    1    2    0    0 -0.95971496324E+01 -0.43246298778E+02  0.29319948459E+03  0.68097942930E+03  0.61302911653E+03 0.  0.
   -5000001    2    3    3    0    0 -0.18818356601E+03 -0.23274461136E+03  0.77969274054E+02  0.32837800826E+03  0.11031681640E+03 0.  0.
     200001    1    1    2    0    0  0.95971496324E+01  0.43246298778E+02  0.24856327634E+02  0.61510095485E+03  0.61300000000E+03 0. -1.
         13    1    4    4    0    0 -0.98038570921E+02 -0.11205897336E+03  0.90558523273E+02  0.17426885035E+03  0.10566000000E+00 0.  1.
    -200003    1    4    4    0    0 -0.90144995092E+02 -0.12068563799E+03 -0.12589249219E+02  0.15410915792E+03  0.30000000000E+02 0.  1.
    -200000    1    3    3    0    0  0.17858641638E+03  0.18949831258E+03  0.21523021054E+03  0.35260142103E+03  0.10100000000E+03 0.  1.
<mgrwt>
<rscale>  0 0.12564493E+04</rscale>
<asrwt>0</asrwt>
<pdfrwt beam="1">  1        2 0.11529544E+00 0.12564493E+04</pdfrwt>
<pdfrwt beam="2">  1       -2 0.69858899E-01 0.12564493E+04</pdfrwt>
<totfact> 0.69066826E+01</totfact>
</mgrwt>
</event>
<event>
 8    2  0.4480234E-052  0.1782119E+04  0.7818608E-02  0.8715867E-01
         -2   -1    0    0    0  501 -0.00000000000E+00  0.00000000000E+00  0.53067025041E+03  0.53067025042E+03  0.25500000000E-02 0. -1.
          2   -1    0    0  501    0  0.00000000000E+00 -0.00000000000E+00 -0.14961963973E+04  0.14961963973E+04  0.25500000000E-02 0.  1.
    -200001    2    1    2    0    0  0.21721605243E+03  0.26850697748E+03 -0.11043516444E+04  0.13097053485E+04  0.61356070182E+03 0.  0.
   -5000001    2    3    3    0    0  0.79736057779E+02 -0.63885795095E+02  0.17193791633E+02  0.12756708693E+03  0.74421109056E+02 0.  0.
     200001    1    1    2    0    0 -0.21721605243E+03 -0.26850697748E+03  0.13882549755E+03  0.71716129926E+03  0.61300000000E+03 0. -1.
         13    1    4    4    0    0  0.40073058683E+02  0.60093447473E+01  0.31504173688E+01  0.40643554841E+02  0.10566000000E+00 0.  1.
    -200003    1    4    4    0    0  0.39662999096E+02 -0.69895139842E+02  0.14043374265E+02  0.86923532093E+02  0.30000000000E+02 0.  1.
    -200000    1    3    3    0    0  0.13747999466E+03  0.33239277258E+03 -0.11215454361E+04  0.11821382615E+04  0.10100000000E+03 0.  1.
<mgrwt>
<rscale>  0 0.17821189E+04</rscale>
<asrwt>0</asrwt>
<pdfrwt beam="1">  1        2 0.21374234E+00 0.17821189E+04</pdfrwt>
<pdfrwt beam="2">  1       -2 0.75810037E-01 0.17821189E+04</pdfrwt>
<totfact> 0.21713702E+01</totfact>
</mgrwt>
</event>
<event>
 8    2  0.4480234E-052  0.1508427E+04  0.7818608E-02  0.8878868E-01
          2   -1    0    0  501    0  0.00000000000E+00  0.00000000000E+00  0.18111920568E+04  0.18111920568E+04  0.25500000000E-02 0.  1.
         -2   -1    0    0    0  501 -0.00000000000E+00 -0.00000000000E+00 -0.31406825250E+03  0.31406825251E+03  0.25500000000E-02 0. -1.
    -200001    2    1    2    0    0  0.23121696655E+03  0.25366313668E+01  0.22366488218E+03  0.69315195223E+03  0.61397551192E+03 0.  0.
   -5000001    2    3    3    0    0 -0.85308461642E+01  0.22319303730E+03 -0.66696980345E+02  0.24517954863E+03  0.76004056751E+02 0.  0.
     200001    1    1    2    0    0 -0.23121696655E+03 -0.25366313668E+01  0.12734589221E+04  0.14321083571E+04  0.61300000000E+03 0.  1.
         13    1    4    4    0    0 -0.17051177128E+01  0.18665209623E+03 -0.41680470672E+02  0.19125685675E+03  0.10566000000E+00 0.  1.
    -200003    1    4    4    0    0 -0.68257284514E+01  0.36540941063E+02 -0.25016509673E+02  0.53922691874E+02  0.30000000000E+02 0.  1.
    -200000    1    3    3    0    0  0.23974781272E+03 -0.22065640593E+03  0.29036186252E+03  0.44797240360E+03  0.10100000000E+03 0.  1.
<mgrwt>
<rscale>  0 0.15084269E+04</rscale>
<asrwt>0</asrwt>
<pdfrwt beam="1">  1        2 0.25874173E+00 0.15084269E+04</pdfrwt>
<pdfrwt beam="2">  1       -2 0.44866892E-01 0.15084269E+04</pdfrwt>
<totfact> 0.45739818E+01</totfact>
</mgrwt>
</event>
<event>
 8    2  0.4480234E-052  0.1235954E+04  0.7818608E-02  0.9081955E-01
          2   -1    0    0  501    0  0.00000000000E+00  0.00000000000E+00  0.61737274618E+03  0.61737274618E+03  0.25500000000E-02 0.  1.
         -2   -1    0    0    0  501 -0.00000000000E+00 -0.00000000000E+00 -0.61858196282E+03  0.61858196282E+03  0.25500000000E-02 0. -1.
    -200001    2    1    2    0    0  0.22348391062E+01  0.58301094981E+02  0.74209613865E+02  0.61558303640E+03  0.60830205961E+03 0.  0.
   -5000001    2    3    3    0    0 -0.25304804815E+03  0.18558613178E+02  0.30035194176E+02  0.33468946804E+03  0.21618785889E+03 0.  0.
     200001    1    1    2    0    0 -0.22348391062E+01 -0.58301094981E+02 -0.75418830501E+02  0.62037167261E+03  0.61300000000E+03 0. -1.
         13    1    4    4    0    0 -0.11395792354E+03 -0.75371454476E+02 -0.51101345785E+02  0.14587194107E+03  0.10566000000E+00 0.  1.
    -200003    1    4    4    0    0 -0.13909012461E+03  0.93930067654E+02  0.81136539960E+02  0.18881752697E+03  0.30000000000E+02 0.  1.
    -200000    1    3    3    0    0  0.25528288726E+03  0.39742481802E+02  0.44174419689E+02  0.28089356835E+03  0.10100000000E+03 0.  1.
<mgrwt>
<rscale>  0 0.12359541E+04</rscale>
<asrwt>0</asrwt>
<pdfrwt beam="1">  1        2 0.88196108E-01 0.12359541E+04</pdfrwt>
<pdfrwt beam="2">  1       -2 0.88368851E-01 0.12359541E+04</pdfrwt>
<totfact> 0.56992854E+01</totfact>
</mgrwt>
</event>
<event>
 8    2  0.4480234E-052  0.2334345E+04  0.7818608E-02  0.8464501E-01
          2   -1    0    0  501    0  0.00000000000E+00  0.00000000000E+00  0.89732482349E+03  0.89732482349E+03  0.25500000000E-02 0.  1.
         -2   -1    0    0    0  501 -0.00000000000E+00 -0.00000000000E+00 -0.15181697621E+04  0.15181697621E+04  0.25500000000E-02 0. -1.
    -200001    2    1    2    0    0  0.47893030354E+03 -0.38479880641E+03 -0.11183237474E+04  0.14151453854E+04  0.61200008226E+03 0.  0.
   -5000001    2    3    3    0    0  0.80425997456E-01  0.97908675281E+02 -0.57078947252E+02  0.15073040447E+03  0.99375718603E+02 0.  0.
     200001    1    1    2    0    0 -0.47893030354E+03  0.38479880641E+03  0.49747880883E+03  0.10003492002E+04  0.61300000000E+03 0.  1.
         13    1    4    4    0    0 -0.17112657777E+02 -0.13952785360E+02 -0.52942810725E+01  0.22706031172E+02  0.10566000000E+00 0.  1.
    -200003    1    4    4    0    0  0.17193083774E+02  0.11186146064E+03 -0.51784666180E+02  0.12802437330E+03  0.30000000000E+02 0.  1.
    -200000    1    3    3    0    0  0.47884987754E+03 -0.48270748169E+03 -0.10612448002E+04  0.12644149809E+04  0.10100000000E+03 0. -1.
<mgrwt>
<rscale>  0 0.23343448E+04</rscale>
<asrwt>0</asrwt>
<pdfrwt beam="1">  1        2 0.12818926E+00 0.23343448E+04</pdfrwt>
<pdfrwt beam="2">  1       -2 0.21688139E+00 0.23343448E+04</pdfrwt>
<totfact> 0.30671642E+00</totfact>
</mgrwt>
</event>
<event>
 8    2  0.4480234E-052  0.1541993E+04  0.7818608E-02  0.8856998E-01
          2   -1    0    0  501    0  0.00000000000E+00  0.00000000000E+00  0.30294987377E+04  0.30294987377E+04  0.25500000000E-02 0.  1.
         -2   -1    0    0    0  501 -0.00000000000E+00 -0.00000000000E+00 -0.19621589171E+03  0.19621589173E+03  0.25500000000E-02 0. -1.
    -200001    2    1    2    0    0  0.83068250972E+02 -0.13956532546E+03  0.50384279927E+03  0.81149866029E+03  0.61505584697E+03 0.  0.
   -5000001    2    3    3    0    0  0.21282306363E+03 -0.32034276160E+03  0.29081943892E+03  0.48731237915E+03  0.70599344872E+02 0.  0.
     200001    1    1    2    0    0 -0.83068250972E+02  0.13956532546E+03  0.23294400467E+04  0.24142159691E+04  0.61300000000E+03 0.  1.
         13    1    4    4    0    0  0.16329490683E+03 -0.23738482474E+03  0.19454121796E+03  0.34765367575E+03  0.10566000000E+00 0.  1.
    -200003    1    4    4    0    0  0.49528156803E+02 -0.82957936861E+02  0.96278220960E+02  0.13965870340E+03  0.30000000000E+02 0. -1.
    -200000    1    3    3    0    0 -0.12975481266E+03  0.18077743614E+03  0.21302336034E+03  0.32418628114E+03  0.10100000000E+03 0.  1.
<mgrwt>
<rscale>  0 0.15419933E+04</rscale>
<asrwt>0</asrwt>
<pdfrwt beam="1">  1        2 0.43278553E+00 0.15419933E+04</pdfrwt>
<pdfrwt beam="2">  1       -2 0.28030842E-01 0.15419933E+04</pdfrwt>
<totfact> 0.25598168E+01</totfact>
</mgrwt>
</event>
<event>
 8    2  0.4480234E-052  0.1779515E+04  0.7818608E-02  0.8717270E-01
          2   -1    0    0  501    0  0.00000000000E+00  0.00000000000E+00  0.14863496959E+04  0.14863496959E+04  0.25500000000E-02 0.  1.
         -2   -1    0    0    0  501 -0.00000000000E+00 -0.00000000000E+00 -0.53262569632E+03  0.53262569632E+03  0.25500000000E-02 0. -1.
    -200001    2    1    2    0    0  0.51003183212E+03  0.39239751026E+03  0.46311892836E+03  0.10038051544E+04  0.61566010950E+03 0.  0.
   -5000001    2    3    3    0    0  0.38292401830E+03  0.59270984454E+02  0.21943749260E+02  0.42764005901E+03  0.17958462782E+03 0.  0.
     200001    1    1    2    0    0 -0.51003183212E+03 -0.39239751026E+03  0.49060507124E+03  0.10151702378E+04  0.61300000000E+03 0.  1.
         13    1    4    4    0    0  0.15555004298E+03 -0.24006756842E+02 -0.62640221597E+02  0.16939878621E+03  0.10566000000E+00 0.  1.
    -200003    1    4    4    0    0  0.22737397532E+03  0.83277741296E+02  0.84583970857E+02  0.25824127279E+03  0.30000000000E+02 0.  1.
    -200000    1    3    3    0    0  0.12710781382E+03  0.33312652580E+03  0.44117517911E+03  0.57616509542E+03  0.10100000000E+03 0.  1.
<mgrwt>
<rscale>  0 0.17795146E+04</rscale>
<asrwt>0</asrwt>
<pdfrwt beam="1">  1        2 0.21233567E+00 0.17795146E+04</pdfrwt>
<pdfrwt beam="2">  1       -2 0.76089384E-01 0.17795146E+04</pdfrwt>
<totfact> 0.21803404E+01</totfact>
</mgrwt>
</event>
<event>
 8    2  0.4480234E-052  0.1788643E+04  0.7818608E-02  0.8712362E-01
         -2   -1    0    0    0  501 -0.00000000000E+00  0.00000000000E+00  0.44747055330E+03  0.44747055331E+03  0.25500000000E-02 0. -1.
          2   -1    0    0  501    0  0.00000000000E+00 -0.00000000000E+00 -0.17874050192E+04  0.17874050192E+04  0.25500000000E-02 0.  1.
    -200001    2    1    2    0    0 -0.39856473028E+03 -0.40359799776E+03 -0.10697907937E+04  0.13570989542E+04  0.61279690037E+03 0.  0.
   -5000001    2    3    3    0    0  0.24845495586E+02 -0.28348105013E+02 -0.44006721930E+03  0.50454896647E+03  0.24390487562E+03 0.  0.
     200001    1    1    2    0    0  0.39856473028E+03  0.40359799776E+03 -0.27014367214E+03  0.87777661829E+03  0.61300000000E+03 0. -1.
         13    1    4    4    0    0  0.11485446541E+03  0.41200790158E+02 -0.28406873706E+03  0.30916680267E+03  0.10566000000E+00 0.  1.
    -200003    1    4    4    0    0 -0.90008969826E+02 -0.69548895171E+02 -0.15599848225E+03  0.19538216380E+03  0.30000000000E+02 0.  1.
    -200000    1    3    3    0    0 -0.42341022586E+03 -0.37524989275E+03 -0.62972357442E+03  0.85254998772E+03  0.10100000000E+03 0.  1.
<mgrwt>
<rscale>  0 0.17886432E+04</rscale>
<asrwt>0</asrwt>
<pdfrwt beam="1">  1        2 0.25534357E+00 0.17886432E+04</pdfrwt>
<pdfrwt beam="2">  1       -2 0.63924366E-01 0.17886432E+04</pdfrwt>
<totfact> 0.22151990E+01</totfact>
</mgrwt>
</event>
<event>
 8    2  0.4480234E-052  0.1299295E+04  0.7818608E-02  0.9030125E-01
         -2   -1    0    0    0  501 -0.00000000000E+00  0.00000000000E+00  0.11338757353E+04  0.11338757353E+04  0.25500000000E-02 0. -1.
          2   -1    0    0  501    0  0.00000000000E+00 -0.00000000000E+00 -0.37221148702E+03  0.37221148703E+03  0.25500000000E-02 0.  1.
    -200001    2    1    2    0    0  0.18568100325E+03  0.10842366323E+03  0.38661481797E+03  0.75597776307E+03  0.61302384543E+03 0.  0.
   -5000001    2    3    3    0    0  0.44615354861E+02 -0.55432763120E+02 -0.85650131977E+02  0.22684297063E+03  0.19763215098E+03 0.  0.
     200001    1    1    2    0    0 -0.18568100325E+03 -0.10842366323E+03  0.37504943032E+03  0.75010945928E+03  0.61300000000E+03 0.  1.
         13    1    4    4    0    0 -0.20998642221E+01 -0.12272994818E+03 -0.47354822309E+02  0.13156572491E+03  0.10566000000E+00 0.  1.
    -200003    1    4    4    0    0  0.46715219083E+02  0.67297185060E+02 -0.38295309669E+02  0.95277245728E+02  0.30000000000E+02 0.  1.
    -200000    1    3    3    0    0  0.14106564839E+03  0.16385642635E+03  0.47226494995E+03  0.52913479243E+03  0.10100000000E+03 0. -1.
<mgrwt>
<rscale>  0 0.12992945E+04</rscale>
<asrwt>0</asrwt>
<pdfrwt beam="1">  1        2 0.53173069E-01 0.12992945E+04</pdfrwt>
<pdfrwt beam="2">  1       -2 0.16198225E+00 0.12992945E+04</pdfrwt>
<totfact> 0.22388948E+01</totfact>
</mgrwt>
</event>
<event>
 8    2  0.4480234E-052  0.1616464E+04  0.7818608E-02  0.8810497E-01
          2   -1    0    0  501    0  0.00000000000E+00  0.00000000000E+00  0.33941647221E+03  0.33941647222E+03  0.25500000000E-02 0.  1.
         -2   -1    0    0    0  501 -0.00000000000E+00 -0.00000000000E+00 -0.19245947949E+04  0.19245947949E+04  0.25500000000E-02 0. -1.
    -200001    2    1    2    0    0  0.41442760552E+03 -0.60249842276E+02 -0.34394222560E+03  0.81769998236E+03  0.61233709907E+03 0.  0.
   -5000001    2    3    3    0    0  0.38451811295E+03  0.21568085578E+03 -0.19065859244E+03  0.48494000870E+03  0.66661101354E+02 0.  0.
     200001    1    1    2    0    0 -0.41442760552E+03  0.60249842276E+02 -0.12412360971E+04  0.14463112848E+04  0.61300000000E+03 0. -1.
         13    1    4    4    0    0  0.78929128676E+02  0.28223747022E+02 -0.55994372706E+02  0.10080559602E+03  0.10566000000E+00 0.  1.
    -200003    1    4    4    0    0  0.30558898427E+03  0.18745710876E+03 -0.13466421973E+03  0.38413441268E+03  0.30000000000E+02 0.  1.
    -200000    1    3    3    0    0  0.29909492574E+02 -0.27593069806E+03 -0.15328363317E+03  0.33275997366E+03  0.10100000000E+03 0. -1.
<mgrwt>
<rscale>  0 0.16164643E+04</rscale>
<asrwt>0</asrwt>
<pdfrwt beam="1">  1        2 0.48488069E-01 0.16164643E+04</pdfrwt>
<pdfrwt beam="2">  1       -2 0.27494211E+00 0.16164643E+04</pdfrwt>
<totfact> 0.45170159E+00</totfact>
</mgrwt>
</event>
<event>
 8    2  0.4480234E-052  0.1938422E+04  0.7818608E-02  0.8635964E-01
          2   -1    0    0  501    0  0.00000000000E+00  0.00000000000E+00  0.40128186685E+04  0.40128186685E+04  0.25500000000E-02 0.  1.
         -2   -1    0    0    0  501 -0.00000000000E+00 -0.00000000000E+00 -0.23409240172E+03  0.23409240174E+03  0.25500000000E-02 0. -1.
    -200001    2    1    2    0    0  0.18142759937E+03  0.33841294260E+03  0.47918705406E+03  0.86901715394E+03  0.61492380627E+03 0.  0.
   -5000001    2    3    3    0    0  0.74444793404E+02 -0.10079361937E+03  0.35661716668E+03  0.38988032364E+03  0.95548324014E+02 0.  0.
     200001    1    1    2    0    0 -0.18142759937E+03 -0.33841294260E+03  0.32995392127E+04  0.33778939163E+04  0.61300000000E+03 0.  1.
         13    1    4    4    0    0  0.65982656019E+01 -0.54728278811E+02  0.63779305857E+02  0.84300252848E+02  0.10566000000E+00 0.  1.
    -200003    1    4    4    0    0  0.67846527802E+02 -0.46065340559E+02  0.29283786082E+03  0.30558007079E+03  0.30000000000E+02 0.  1.
    -200000    1    3    3    0    0  0.10698280596E+03  0.43920656197E+03  0.12256988739E+03  0.47913683030E+03  0.10100000000E+03 0.  1.
<mgrwt>
<rscale>  0 0.19384224E+04</rscale>
<asrwt>0</asrwt>
<pdfrwt beam="1">  1        2 0.57325977E+00 0.19384224E+04</pdfrwt>
<pdfrwt beam="2">  1       -2 0.33441774E-01 0.19384224E+04</pdfrwt>
<totfact> 0.44026793E+00</totfact>
</mgrwt>
</event>
<event>
 8    2  0.4480234E-052  0.1477542E+04  0.7818608E-02  0.8899526E-01
          2   -1    0    0  501    0  0.00000000000E+00  0.00000000000E+00  0.18948676577E+04  0.18948676577E+04  0.25500000000E-02 0.  1.
         -2   -1    0    0    0  501 -0.00000000000E+00 -0.00000000000E+00 -0.28803214125E+03  0.28803214127E+03  0.25500000000E-02 0. -1.
    -200001    2    1    2    0    0  0.62421152893E+02  0.33056540412E+03  0.11528981763E+04  0.13492344012E+04  0.61488972801E+03 0.  0.
   -5000001    2    3    3    0    0  0.63367460725E+02  0.15534009125E+03  0.11277110952E+04  0.11454202829E+04  0.11004240564E+03 0.  0.
     200001    1    1    2    0    0 -0.62421152893E+02 -0.33056540412E+03  0.45393734014E+03  0.83366539781E+03  0.61300000000E+03 0. -1.
         13    1    4    4    0    0  0.32220023639E+01 -0.10745086239E+02  0.17111055629E+02  0.20460634553E+02  0.10566000000E+00 0.  1.
    -200003    1    4    4    0    0  0.60145458361E+02  0.16608517749E+03  0.11106000396E+04  0.11249596483E+04  0.30000000000E+02 0.  1.
    -200000    1    3    3    0    0 -0.94630783141E+00  0.17522531287E+03  0.25187081077E+02  0.20381411831E+03  0.10100000000E+03 0. -1.
<mgrwt>
<rscale>  0 0.14775423E+04</rscale>
<asrwt>0</asrwt>
<pdfrwt beam="1">  1        2 0.27069537E+00 0.14775423E+04</pdfrwt>
<pdfrwt beam="2">  1       -2 0.41147450E-01 0.14775423E+04</pdfrwt>
<totfact> 0.49275830E+01</totfact>
</mgrwt>
</event>
<event>
 8    2  0.4480234E-052  0.1415145E+04  0.7818608E-02  0.8942929E-01
         -2   -1    0    0    0  501 -0.00000000000E+00  0.00000000000E+00  0.35299996869E+03  0.35299996870E+03  0.25500000000E-02 0. -1.
          2   -1    0    0  501    0  0.00000000000E+00 -0.00000000000E+00 -0.14182962561E+04  0.14182962561E+04  0.25500000000E-02 0.  1.
    -200001    2    1    2    0    0 -0.25290219141E+03  0.11445716634E+03 -0.80585228585E+03  0.10500887988E+04  0.61337477729E+03 0.  0.
   -5000001    2    3    3    0    0 -0.20410152563E+03 -0.38920830630E+02 -0.81652546521E+03  0.85977003543E+03  0.17122620901E+03 0.  0.
     200001    1    1    2    0    0  0.25290219141E+03 -0.11445716634E+03 -0.25944400153E+03  0.72120742597E+03  0.61300000000E+03 0. -1.
         13    1    4    4    0    0 -0.33146147699E+02 -0.81009619099E+02 -0.33312248728E+03  0.34442971444E+03  0.10566000000E+00 0.  1.
    -200003    1    4    4    0    0 -0.17095537793E+03  0.42088788469E+02 -0.48340297793E+03  0.51534032098E+03  0.30000000000E+02 0.  1.
    -200000    1    3    3    0    0 -0.48800665774E+02  0.15337799697E+03  0.10673179369E+02  0.19031876337E+03  0.10100000000E+03 0. -1.
<mgrwt>
<rscale>  0 0.14151446E+04</rscale>
<asrwt>0</asrwt>
<pdfrwt beam="1">  1        2 0.20261375E+00 0.14151446E+04</pdfrwt>
<pdfrwt beam="2">  1       -2 0.50428568E-01 0.14151446E+04</pdfrwt>
<totfact> 0.58522272E+01</totfact>
</mgrwt>
</event>
<event>
 8    2  0.4480234E-052  0.1438749E+04  0.7818608E-02  0.8926238E-01
         -2   -1    0    0    0  501 -0.00000000000E+00  0.00000000000E+00  0.93782071529E+03  0.93782071529E+03  0.25500000000E-02 0. -1.
          2   -1    0    0  501    0  0.00000000000E+00 -0.00000000000E+00 -0.55181085485E+03  0.55181085486E+03  0.25500000000E-02 0.  1.
    -200001    2    1    2    0    0  0.15775917306E+03  0.32584521145E+03  0.86609164923E+02  0.71731503207E+03  0.61316934796E+03 0.  0.
   -5000001    2    3    3    0    0  0.28185063546E+03 -0.31664259325E+02  0.13708875163E+03  0.32239617786E+03  0.68582531646E+02 0.  0.
     200001    1    1    2    0    0 -0.15775917306E+03 -0.32584521145E+03  0.29940069551E+03  0.77231653808E+03  0.61300000000E+03 0. -1.
         13    1    4    4    0    0  0.18679679347E+03 -0.42364950724E+02  0.91173419349E+02  0.21213305885E+03  0.10566000000E+00 0.  1.
    -200003    1    4    4    0    0  0.95053841998E+02  0.10700691399E+02  0.45915332280E+02  0.11026311901E+03  0.30000000000E+02 0. -1.
    -200000    1    3    3    0    0 -0.12409146240E+03  0.35750947078E+03 -0.50479586706E+02  0.39491885421E+03  0.10100000000E+03 0. -1.
<mgrwt>
<rscale>  0 0.14387490E+04</rscale>
<asrwt>0</asrwt>
<pdfrwt beam="1">  1        2 0.78830123E-01 0.14387490E+04</pdfrwt>
<pdfrwt beam="2">  1       -2 0.13397439E+00 0.14387490E+04</pdfrwt>
<totfact> 0.23415552E+01</totfact>
</mgrwt>
</event>
<event>
 8    2  0.4480234E-052  0.1637641E+04  0.7818608E-02  0.8797752E-01
          2   -1    0    0  501    0  0.00000000000E+00  0.00000000000E+00  0.27744057370E+04  0.27744057370E+04  0.25500000000E-02 0.  1.
         -2   -1    0    0    0  501 -0.00000000000E+00 -0.00000000000E+00 -0.24166143706E+03  0.24166143707E+03  0.25500000000E-02 0. -1.
    -200001    2    1    2    0    0 -0.71491907692E+02 -0.20866998280E+03  0.21832089429E+04  0.22767443620E+04  0.60704970730E+03 0.  0.
   -5000001    2    3    3    0    0 -0.12627110664E+03 -0.17138137585E+03  0.24750544320E+03  0.33727530078E+03  0.84733203305E+02 0.  0.
     200001    1    1    2    0    0  0.71491907692E+02  0.20866998280E+03  0.34953535706E+03  0.73932281205E+03  0.61300000000E+03 0. -1.
         13    1    4    4    0    0 -0.26055713071E+01  0.81398557155E+01  0.14162018663E+02  0.16541468785E+02  0.10566000000E+00 0.  1.
    -200003    1    4    4    0    0 -0.12366553533E+03 -0.17952123156E+03  0.23334342454E+03  0.32073383199E+03  0.30000000000E+02 0.  1.
    -200000    1    3    3    0    0  0.54779198946E+02 -0.37288606953E+02  0.19357034997E+04  0.19394690612E+04  0.10100000000E+03 0.  1.
<mgrwt>
<rscale>  0 0.16376408E+04</rscale>
<asrwt>0</asrwt>
<pdfrwt beam="1">  1        2 0.39634366E+00 0.16376408E+04</pdfrwt>
<pdfrwt beam="2">  1       -2 0.34523064E-01 0.16376408E+04</pdfrwt>
<totfact> 0.23728394E+01</totfact>
</mgrwt>
</event>
<event>
 8    2  0.4480234E-052  0.2531487E+04  0.7818608E-02  0.8391853E-01
         -2   -1    0    0    0  501 -0.00000000000E+00  0.00000000000E+00  0.11555996439E+04  0.11555996439E+04  0.25500000000E-02 0. -1.
          2   -1    0    0  501    0  0.00000000000E+00 -0.00000000000E+00 -0.13863854779E+04  0.13863854779E+04  0.25500000000E-02 0.  1.
    -200001    2    1    2    0    0 -0.91964433347E+02 -0.34632572136E+02 -0.12229584223E+04  0.13715867635E+04  0.61316072547E+03 0.  0.
   -5000001    2    3    3    0    0 -0.54339749728E+02  0.11537219358E+03 -0.11099510862E+03  0.24438648965E+03  0.17646895119E+03 0.  0.
     200001    1    1    2    0    0  0.91964433347E+02  0.34632572136E+02  0.99217258830E+03  0.11703983583E+04  0.61300000000E+03 0. -1.
         13    1    4    4    0    0 -0.37394958441E+01 -0.16603401286E+02 -0.97826114102E+02  0.99295601755E+02  0.10566000000E+00 0.  1.
    -200003    1    4    4    0    0 -0.50600253884E+02  0.13197559486E+03 -0.13168994518E+02  0.14509088789E+03  0.30000000000E+02 0.  1.
    -200000    1    3    3    0    0 -0.37624683619E+02 -0.15000476571E+03 -0.11119633137E+04  0.11272002739E+04  0.10100000000E+03 0.  1.
<mgrwt>
<rscale>  0 0.25314870E+04</rscale>
<asrwt>0</asrwt>
<pdfrwt beam="1">  1        2 0.19805507E+00 0.25314870E+04</pdfrwt>
<pdfrwt beam="2">  1       -2 0.16508566E+00 0.25314870E+04</pdfrwt>
<totfact> 0.34824295E+00</totfact>
</mgrwt>
</event>
<event>
 8    2  0.4480234E-052  0.1330966E+04  0.7818608E-02  0.9005363E-01
          2   -1    0    0  501    0  0.00000000000E+00  0.00000000000E+00  0.17717331557E+04  0.17717331557E+04  0.25500000000E-02 0.  1.
         -2   -1    0    0    0  501 -0.00000000000E+00 -0.00000000000E+00 -0.24996303437E+03  0.24996303438E+03  0.25500000000E-02 0. -1.
    -200001    2    1    2    0    0  0.92961187986E+02  0.19401944898E+03  0.54442637365E+03  0.84813105334E+03  0.61371074478E+03 0.  0.
   -5000001    2    3    3    0    0 -0.55151809358E+02  0.37785886019E+03  0.37159954232E+03  0.53860802880E+03  0.78697830531E+02 0.  0.
     200001    1    1    2    0    0 -0.92961187986E+02 -0.19401944898E+03  0.97734374772E+03  0.11735651368E+04  0.61300000000E+03 0.  1.
         13    1    4    4    0    0  0.35224244559E+01  0.55714780765E+02  0.88894307316E+02  0.10497024963E+03  0.10566000000E+00 0.  1.
    -200003    1    4    4    0    0 -0.58674233814E+02  0.32214407942E+03  0.28270523501E+03  0.43363777917E+03  0.30000000000E+02 0.  1.
    -200000    1    3    3    0    0  0.14811299734E+03 -0.18383941121E+03  0.17282683133E+03  0.30952302455E+03  0.10100000000E+03 0. -1.
<mgrwt>
<rscale>  0 0.13309663E+04</rscale>
<asrwt>0</asrwt>
<pdfrwt beam="1">  1        2 0.25310475E+00 0.13309663E+04</pdfrwt>
<pdfrwt beam="2">  1       -2 0.35709004E-01 0.13309663E+04</pdfrwt>
<totfact> 0.75914077E+01</totfact>
</mgrwt>
</event>
<event>
 8    2  0.4480234E-052  0.2136878E+04  0.7818608E-02  0.8545170E-01
         -2   -1    0    0    0  501 -0.00000000000E+00  0.00000000000E+00  0.11585111023E+04  0.11585111023E+04  0.25500000000E-02 0. -1.
          2   -1    0    0  501    0  0.00000000000E+00 -0.00000000000E+00 -0.98536977002E+03  0.98536977002E+03  0.25500000000E-02 0.  1.
    -200001    2    1    2    0    0  0.45016113090E+03  0.16287397209E+03  0.82158012811E+03  0.11312531783E+04  0.61283511001E+03 0.  0.
   -5000001    2    3    3    0    0  0.82694372123E+01 -0.13705578753E+02  0.58254726929E+03  0.58923259358E+03  0.87048847728E+02 0.  0.
     200001    1    1    2    0    0 -0.45016113090E+03 -0.16287397209E+03 -0.64843879587E+03  0.10126276939E+04  0.61300000000E+03 0.  1.
         13    1    4    4    0    0  0.72322882536E+01 -0.22958835841E+02  0.47378029596E+02  0.53142290024E+02  0.10566000000E+00 0.  1.
    -200003    1    4    4    0    0  0.10371489588E+01  0.92532570883E+01  0.53516923970E+03  0.53609030355E+03  0.30000000000E+02 0.  1.
    -200000    1    3    3    0    0  0.44189169368E+03  0.17657955085E+03  0.23903285882E+03  0.54202058477E+03  0.10100000000E+03 0.  1.
<mgrwt>
<rscale>  0 0.21368779E+04</rscale>
<asrwt>0</asrwt>
<pdfrwt beam="1">  1        2 0.14076711E+00 0.21368779E+04</pdfrwt>
<pdfrwt beam="2">  1       -2 0.16550159E+00 0.21368779E+04</pdfrwt>
<totfact> 0.60747415E+00</totfact>
</mgrwt>
</event>
<event>
 8    2  0.4480234E-052  0.1430552E+04  0.7818608E-02  0.8931996E-01
          2   -1    0    0  501    0  0.00000000000E+00  0.00000000000E+00  0.21922708821E+04  0.21922708821E+04  0.25500000000E-02 0.  1.
         -2   -1    0    0    0  501 -0.00000000000E+00 -0.00000000000E+00 -0.23337417308E+03  0.23337417310E+03  0.25500000000E-02 0. -1.
    -200001    2    1    2    0    0  0.21027332836E+03 -0.40691215285E+02  0.47014678176E+03  0.80144802481E+03  0.61270734650E+03 0.  0.
   -5000001    2    3    3    0    0  0.20286222208E+03  0.84236634773E+02 -0.44625261007E+02  0.26213999758E+03  0.13593039626E+03 0.  0.
     200001    1    1    2    0    0 -0.21027332836E+03  0.40691215285E+02  0.14887499273E+04  0.16241970304E+04  0.61300000000E+03 0.  1.
         13    1    4    4    0    0  0.41086754689E+02 -0.34781842989E+02 -0.20668014166E+02  0.57663471853E+02  0.10566000000E+00 0.  1.
    -200003    1    4    4    0    0  0.16177546739E+03  0.11901847776E+03 -0.23957246841E+02  0.20447652573E+03  0.30000000000E+02 0.  1.
    -200000    1    3    3    0    0  0.74111062856E+01 -0.12492785006E+03  0.51477204277E+03  0.53930802723E+03  0.10100000000E+03 0.  1.
<mgrwt>
<rscale>  0 0.14305515E+04</rscale>
<asrwt>0</asrwt>
<pdfrwt beam="1">  1        2 0.31318156E+00 0.14305515E+04</pdfrwt>
<pdfrwt beam="2">  1       -2 0.33339167E-01 0.14305515E+04</pdfrwt>
<totfact> 0.52192125E+01</totfact>
</mgrwt>
</event>
<event>
 8    2  0.4480234E-052  0.1471927E+04  0.7818608E-02  0.8903339E-01
         -2   -1    0    0    0  501 -0.00000000000E+00  0.00000000000E+00  0.36445064670E+03  0.36445064671E+03  0.25500000000E-02 0. -1.
          2   -1    0    0  501    0  0.00000000000E+00 -0.00000000000E+00 -0.14861887921E+04  0.14861887921E+04  0.25500000000E-02 0.  1.
    -200001    2    1    2    0    0 -0.15271595590E+03 -0.17873459859E+03 -0.97927997972E+03  0.11788273008E+04  0.61267961154E+03 0.  0.
   -5000001    2    3    3    0    0  0.15873746394E+03 -0.24254769715E+03 -0.61254525383E+03  0.68307463716E+03  0.85745577710E+02 0.  0.
     200001    1    1    2    0    0  0.15271595590E+03  0.17873459859E+03 -0.14245816572E+03  0.67181213810E+03  0.61300000000E+03 0. -1.
         13    1    4    4    0    0  0.12886629956E+03 -0.18747949142E+03 -0.51800858229E+03  0.56576318841E+03  0.10566000000E+00 0.  1.
    -200003    1    4    4    0    0  0.29871164385E+02 -0.55068205729E+02 -0.94536671533E+02  0.11731144875E+03  0.30000000000E+02 0. -1.
    -200000    1    3    3    0    0 -0.31145341984E+03  0.63813098556E+02 -0.36673472589E+03  0.49575266359E+03  0.10100000000E+03 0.  1.
<mgrwt>
<rscale>  0 0.14719273E+04</rscale>
<asrwt>0</asrwt>
<pdfrwt beam="1">  1        2 0.21231268E+00 0.14719273E+04</pdfrwt>
<pdfrwt beam="2">  1       -2 0.52064379E-01 0.14719273E+04</pdfrwt>
<totfact> 0.50199193E+01</totfact>
</mgrwt>
</event>
<event>
 8    2  0.4480234E-052  0.1992019E+04  0.7818608E-02  0.8610361E-01
          2   -1    0    0  501    0  0.00000000000E+00  0.00000000000E+00  0.17820879111E+04  0.17820879111E+04  0.25500000000E-02 0. -1.
         -2   -1    0    0    0  501 -0.00000000000E+00 -0.00000000000E+00 -0.55666982218E+03  0.55666982219E+03  0.25500000000E-02 0.  1.
    -200001    2    1    2    0    0 -0.38664223115E+03  0.57728669257E+03  0.10399683517E+04  0.13938171291E+04  0.61517467161E+03 0.  0.
   -5000001    2    3    3    0    0  0.85654156510E+02  0.20903027599E+03  0.50929153789E+03  0.58728408773E+03  0.18572678409E+03 0.  0.
     200001    1    1    2    0    0  0.38664223115E+03 -0.57728669257E+03  0.18544973720E+03  0.94494060414E+03  0.61300000000E+03 0.  1.
         13    1    4    4    0    0 -0.19651702462E+02  0.12993708266E+03  0.13080855802E+03  0.18542040038E+03  0.10566000000E+00 0.  1.
    -200003    1    4    4    0    0  0.10530585897E+03  0.79093193327E+02  0.37848297987E+03  0.40186368735E+03  0.30000000000E+02 0.  1.
    -200000    1    3    3    0    0 -0.47229638766E+03  0.36825641658E+03  0.53067681381E+03  0.80653304140E+03  0.10100000000E+03 0. -1.
<mgrwt>
<rscale>  0 0.19920186E+04</rscale>
<asrwt>0</asrwt>
<pdfrwt beam="1">  1        2 0.25458399E+00 0.19920186E+04</pdfrwt>
<pdfrwt beam="2">  1       -2 0.79524259E-01 0.19920186E+04</pdfrwt>
<totfact> 0.13593437E+01</totfact>
</mgrwt>
</event>
<event>
 8    2  0.4480234E-052  0.1363250E+04  0.7818608E-02  0.8980858E-01
          2   -1    0    0  501    0  0.00000000000E+00  0.00000000000E+00  0.89123185652E+03  0.89123185652E+03  0.25500000000E-02 0.  1.
         -2   -1    0    0    0  501 -0.00000000000E+00 -0.00000000000E+00 -0.52131521700E+03  0.52131521701E+03  0.25500000000E-02 0. -1.
    -200001    2    1    2    0    0 -0.14299122822E+03 -0.21855604136E+03  0.30776375358E+02  0.66488514904E+03  0.61066508134E+03 0.  0.
   -5000001    2    3    3    0    0 -0.34498496174E+03 -0.67024169275E+02  0.11744178766E+03  0.37944641598E+03  0.81732160263E+02 0.  0.
     200001    1    1    2    0    0  0.14299122822E+03  0.21855604136E+03  0.33914026416E+03  0.74766192449E+03  0.61300000000E+03 0.  1.
         13    1    4    4    0    0 -0.81097588362E+02  0.12691802426E+02  0.41304437489E+02  0.91891068159E+02  0.10566000000E+00 0.  1.
    -200003    1    4    4    0    0 -0.26388737338E+03 -0.79715971700E+02  0.76137350168E+02  0.28755534782E+03  0.30000000000E+02 0.  1.
    -200000    1    3    3    0    0  0.20199373352E+03 -0.15153187209E+03 -0.86665412299E+02  0.28543873306E+03  0.10100000000E+03 0.  1.
<mgrwt>
<rscale>  0 0.13632501E+04</rscale>
<asrwt>0</asrwt>
<pdfrwt beam="1">  1        2 0.12731884E+00 0.13632501E+04</pdfrwt>
<pdfrwt beam="2">  1       -2 0.74473603E-01 0.13632501E+04</pdfrwt>
<totfact> 0.52240594E+01</totfact>
</mgrwt>
</event>
<event>
 8    2  0.4480234E-052  0.2001585E+04  0.7818608E-02  0.8605880E-01
         -2   -1    0    0    0  501 -0.00000000000E+00  0.00000000000E+00  0.12956034738E+04  0.12956034738E+04  0.25500000000E-02 0. -1.
          2   -1    0    0  501    0  0.00000000000E+00 -0.00000000000E+00 -0.77306507499E+03  0.77306507499E+03  0.25500000000E-02 0.  1.
    -200001    2    1    2    0    0 -0.50000663743E+03 -0.55861954072E+03  0.52199537487E+03  0.11002514260E+04  0.61319784762E+03 0.  0.
   -5000001    2    3    3    0    0 -0.37426592053E+03 -0.65247664554E+03  0.30757393027E+03  0.81600252115E+03  0.73875839789E+02 0.  0.
     200001    1    1    2    0    0  0.50000663743E+03  0.55861954072E+03  0.54302391058E+00  0.96841712274E+03  0.61300000000E+03 0.  1.
         13    1    4    4    0    0 -0.18252477321E+03 -0.37663707593E+03  0.17247684923E+03  0.45267985871E+03  0.10566000000E+00 0.  1.
    -200003    1    4    4    0    0 -0.19174114732E+03 -0.27583956961E+03  0.13509708104E+03  0.36332266245E+03  0.30000000000E+02 0.  1.
    -200000    1    3    3    0    0 -0.12574071690E+03  0.93857104822E+02  0.21442144461E+03  0.28424890487E+03  0.10100000000E+03 0.  1.
<mgrwt>
<rscale>  0 0.20015852E+04</rscale>
<asrwt>0</asrwt>
<pdfrwt beam="1">  1        2 0.11043787E+00 0.20015852E+04</pdfrwt>
<pdfrwt beam="2">  1       -2 0.18508621E+00 0.20015852E+04</pdfrwt>
<totfact> 0.61938998E+00</totfact>
</mgrwt>
</event>
<event>
 8    2  0.4480234E-052  0.1752058E+04  0.7818608E-02  0.8732219E-01
         -2   -1    0    0    0  501 -0.00000000000E+00  0.00000000000E+00  0.21283700224E+03  0.21283700226E+03  0.25500000000E-02 0. -1.
          2   -1    0    0  501    0  0.00000000000E+00 -0.00000000000E+00 -0.36057000427E+04  0.36057000427E+04  0.25500000000E-02 0.  1.
    -200001    2    1    2    0    0  0.19334980882E+03  0.18866035612E+03 -0.46246053410E+03  0.81254224659E+03  0.61104687084E+03 0.  0.
   -5000001    2    3    3    0    0  0.17694083434E+03 -0.18514678561E+02 -0.53631571651E+03  0.56995960623E+03  0.74622736349E+02 0.  0.
     200001    1    1    2    0    0 -0.19334980882E+03 -0.18866035612E+03 -0.29304025064E+04  0.30059947984E+04  0.61300000000E+03 0.  1.
         13    1    4    4    0    0  0.54238908227E+02 -0.29268863458E+02 -0.12202254033E+03  0.13670419542E+03  0.10566000000E+00 0.  1.
    -200003    1    4    4    0    0  0.12270192612E+03  0.10754184896E+02 -0.41429317618E+03  0.43325541081E+03  0.30000000000E+02 0.  1.
    -200000    1    3    3    0    0  0.16408974481E+02  0.20717503468E+03  0.73855182409E+02  0.24258264037E+03  0.10100000000E+03 0. -1.
<mgrwt>
<rscale>  0 0.17520575E+04</rscale>
<asrwt>0</asrwt>
<pdfrwt beam="1">  1        2 0.51509997E+00 0.17520575E+04</pdfrwt>
<pdfrwt beam="2">  1       -2 0.30405288E-01 0.17520575E+04</pdfrwt>
<totfact> 0.98898987E+00</totfact>
</mgrwt>
</event>
<event>
 8    2  0.4480234E-052  0.1991137E+04  0.7818608E-02  0.8610775E-01
          2   -1    0    0  501    0  0.00000000000E+00  0.00000000000E+00  0.16975478079E+04  0.16975478079E+04  0.25500000000E-02 0.  1.
         -2   -1    0    0    0  501 -0.00000000000E+00 -0.00000000000E+00 -0.58387578758E+03  0.58387578758E+03  0.25500000000E-02 0. -1.
    -200001    2    1    2    0    0 -0.44167977156E+03 -0.63585473449E+03  0.42595613456E+03  0.10780473436E+04  0.61753962023E+03 0.  0.
   -5000001    2    3    3    0    0 -0.42153029103E+03 -0.45234843937E+03  0.55197455123E+03  0.83276749681E+03  0.80739715655E+02 0.  0.
     200001    1    1    2    0    0  0.44167977156E+03  0.63585473449E+03  0.68771588575E+03  0.12033762518E+04  0.61300000000E+03 0. -1.
         13    1    4    4    0    0 -0.79151190693E+02 -0.60748391943E+02  0.11916825109E+03  0.15542316862E+03  0.10566000000E+00 0.  1.
    -200003    1    4    4    0    0 -0.34237910034E+03 -0.39160004743E+03  0.43280630013E+03  0.67734432819E+03  0.30000000000E+02 0.  1.
    -200000    1    3    3    0    0 -0.20149480531E+02 -0.18350629512E+03 -0.12601841667E+03  0.24527984681E+03  0.10100000000E+03 0. -1.
<mgrwt>
<rscale>  0 0.19911374E+04</rscale>
<asrwt>0</asrwt>
<pdfrwt beam="1">  1        2 0.24250683E+00 0.19911374E+04</pdfrwt>
<pdfrwt beam="2">  1       -2 0.83410825E-01 0.19911374E+04</pdfrwt>
<totfact> 0.13505493E+01</totfact>
</mgrwt>
</event>
<event>
 8    2  0.4480234E-052  0.2108700E+04  0.7818608E-02  0.8557421E-01
         -2   -1    0    0    0  501 -0.00000000000E+00  0.00000000000E+00  0.22324484470E+03  0.22324484472E+03  0.25500000000E-02 0. -1.
          2   -1    0    0  501    0  0.00000000000E+00 -0.00000000000E+00 -0.49795261857E+04  0.49795261857E+04  0.25500000000E-02 0.  1.
    -200001    2    1    2    0    0  0.25648528945E+03  0.47878920117E+03 -0.40170328304E+04  0.40994663747E+04  0.61159463212E+03 0.  0.
   -5000001    2    3    3    0    0  0.14296344839E+02  0.52527434379E+03 -0.30495348632E+04  0.30959377653E+04  0.95132765204E+02 0.  0.
     200001    1    1    2    0    0 -0.25648528945E+03 -0.47878920117E+03 -0.73924851058E+03  0.11033046557E+04  0.61300000000E+03 0. -1.
         13    1    4    4    0    0  0.10097597252E+00  0.46079632205E+03 -0.26862261521E+04  0.27254622016E+04  0.10566000000E+00 0.  1.
    -200003    1    4    4    0    0  0.14195368867E+02  0.64478021740E+02 -0.36330871110E+03  0.37047556377E+03  0.30000000000E+02 0. -1.
    -200000    1    3    3    0    0  0.24218894461E+03 -0.46485142619E+02 -0.96749796715E+03  0.10035286094E+04  0.10100000000E+03 0.  1.
<mgrwt>
<rscale>  0 0.21086996E+04</rscale>
<asrwt>0</asrwt>
<pdfrwt beam="1">  1        2 0.71136082E+00 0.21086996E+04</pdfrwt>
<pdfrwt beam="2">  1       -2 0.31892124E-01 0.21086996E+04</pdfrwt>
<totfact> 0.79162258E-01</totfact>
</mgrwt>
</event>
<event>
 8    2  0.4480234E-052  0.1314327E+04  0.7818608E-02  0.9018280E-01
          2   -1    0    0  501    0  0.00000000000E+00  0.00000000000E+00  0.26296198476E+04  0.26296198476E+04  0.25500000000E-02 0.  1.
         -2   -1    0    0    0  501 -0.00000000000E+00 -0.00000000000E+00 -0.16423062109E+03  0.16423062111E+03  0.25500000000E-02 0. -1.
    -200001    2    1    2    0    0  0.23421812898E+02 -0.22919909483E+03  0.11000646452E+04  0.12795978416E+04  0.61167606315E+03 0.  0.
   -5000001    2    3    3    0    0 -0.21320258456E+03  0.86321918239E+02  0.35921241192E+03  0.43425315054E+03  0.81458125683E+02 0.  0.
     200001    1    1    2    0    0 -0.23421812898E+02  0.22919909483E+03  0.13653245813E+04  0.15142526271E+04  0.61300000000E+03 0.  1.
         13    1    4    4    0    0 -0.15355772432E+03  0.82518612490E+02  0.22826085340E+03  0.28721477062E+03  0.10566000000E+00 0.  1.
    -200003    1    4    4    0    0 -0.59644860241E+02  0.38033057489E+01  0.13095155853E+03  0.14703837992E+03  0.30000000000E+02 0.  1.
    -200000    1    3    3    0    0  0.23662439746E+03 -0.31552101307E+03  0.74085223331E+03  0.84534469109E+03  0.10100000000E+03 0.  1.
<mgrwt>
<rscale>  0 0.13143274E+04</rscale>
<asrwt>0</asrwt>
<pdfrwt beam="1">  1        2 0.37566000E+00 0.13143274E+04</pdfrwt>
<pdfrwt beam="2">  1       -2 0.23461516E-01 0.13143274E+04</pdfrwt>
<totfact> 0.59550258E+01</totfact>
</mgrwt>
</event>
<event>
 8    2  0.4480234E-052  0.1899279E+04  0.7818608E-02  0.8655215E-01
          2   -1    0    0  501    0  0.00000000000E+00  0.00000000000E+00  0.23292505692E+04  0.23292505692E+04  0.25500000000E-02 0. -1.
         -2   -1    0    0    0  501 -0.00000000000E+00 -0.00000000000E+00 -0.38716964476E+03  0.38716964477E+03  0.25500000000E-02 0.  1.
    -200001    2    1    2    0    0  0.10619221689E+03  0.71319792502E+03  0.10838724990E+04  0.14388370391E+04  0.61281674570E+03 0.  0.
   -5000001    2    3    3    0    0  0.20345977707E+03  0.19790867457E+03  0.85483120424E+02  0.30659751446E+03  0.78300368077E+02 0.  0.
     200001    1    1    2    0    0 -0.10619221689E+03 -0.71319792502E+03  0.85820842535E+03  0.12775831748E+04  0.61300000000E+03 0.  1.
         13    1    4    4    0    0  0.21551219622E+02  0.14416658411E+02 -0.12314644227E+02  0.28704646547E+02  0.10566000000E+00 0.  1.
    -200003    1    4    4    0    0  0.18190855744E+03  0.18349201616E+03  0.97797764650E+02  0.27789286791E+03  0.30000000000E+02 0.  1.
    -200000    1    3    3    0    0 -0.97267560177E+02  0.51528925045E+03  0.99838937863E+03  0.11322395247E+04  0.10100000000E+03 0. -1.
<mgrwt>
<rscale>  0 0.18992789E+04</rscale>
<asrwt>0</asrwt>
<pdfrwt beam="1">  1        2 0.33275009E+00 0.18992789E+04</pdfrwt>
<pdfrwt beam="2">  1       -2 0.55309948E-01 0.18992789E+04</pdfrwt>
<totfact> 0.15644936E+01</totfact>
</mgrwt>
</event>
<event>
 8    2  0.4480234E-052  0.1793183E+04  0.7818608E-02  0.8709933E-01
         -2   -1    0    0    0  501 -0.00000000000E+00  0.00000000000E+00  0.31460269957E+03  0.31460269958E+03  0.25500000000E-02 0. -1.
          2   -1    0    0  501    0  0.00000000000E+00 -0.00000000000E+00 -0.25552102774E+04  0.25552102774E+04  0.25500000000E-02 0.  1.
    -200001    2    1    2    0    0  0.41290153377E+02  0.62718764330E+03 -0.14174470373E+04  0.16663049828E+04  0.61020240521E+03 0.  0.
   -5000001    2    3    3    0    0  0.18380171991E+03  0.14474705855E+03 -0.91453397595E+03  0.94784759941E+03  0.85486228912E+02 0.  0.
     200001    1    1    2    0    0 -0.41290153377E+02 -0.62718764330E+03 -0.82316054053E+03  0.12035079942E+04  0.61300000000E+03 0. -1.
         13    1    4    4    0    0  0.10660716788E+03  0.12012603555E+03 -0.65060907226E+03  0.67013993220E+03  0.10566000000E+00 0.  1.
    -200003    1    4    4    0    0  0.77194552030E+02  0.24621023000E+02 -0.26392490369E+03  0.27770766721E+03  0.30000000000E+02 0. -1.
    -200000    1    3    3    0    0 -0.14251156654E+03  0.48244058475E+03 -0.50291306136E+03  0.71845738335E+03  0.10100000000E+03 0. -1.
<mgrwt>
<rscale>  0 0.17931827E+04</rscale>
<asrwt>0</asrwt>
<pdfrwt beam="1">  1        2 0.36503003E+00 0.17931827E+04</pdfrwt>
<pdfrwt beam="2">  1       -2 0.44943244E-01 0.17931827E+04</pdfrwt>
<totfact> 0.18337300E+01</totfact>
</mgrwt>
</event>
<event>
 8    2  0.4480234E-052  0.1429172E+04  0.7818608E-02  0.8932969E-01
         -2   -1    0    0    0  501 -0.00000000000E+00  0.00000000000E+00  0.56493295589E+03  0.56493295589E+03  0.25500000000E-02 0. -1.
          2   -1    0    0  501    0  0.00000000000E+00 -0.00000000000E+00 -0.90388291928E+03  0.90388291928E+03  0.25500000000E-02 0.  1.
    -200001    2    1    2    0    0 -0.62997406708E+02 -0.31253436723E+03 -0.35681524956E+03  0.77763241733E+03  0.61298340125E+03 0.  0.
   -5000001    2    3    3    0    0 -0.11681657097E+03 -0.46609973821E+03 -0.17563925375E+03  0.51399522901E+03  0.49465854636E+02 0.  0.
     200001    1    1    2    0    0  0.62997406708E+02  0.31253436723E+03  0.17865286169E+02  0.69118345785E+03  0.61300000000E+03 0.  1.
         13    1    4    4    0    0 -0.54231911974E+02 -0.24802905602E+03 -0.83065874782E+02  0.26713192176E+03  0.10566000000E+00 0.  1.
    -200003    1    4    4    0    0 -0.62584658994E+02 -0.21807068219E+03 -0.92573378967E+02  0.24686330725E+03  0.30000000000E+02 0. -1.
    -200000    1    3    3    0    0  0.53819164260E+02  0.15356537098E+03 -0.18117599581E+03  0.26363718832E+03  0.10100000000E+03 0. -1.
<mgrwt>
<rscale>  0 0.14291721E+04</rscale>
<asrwt>0</asrwt>
<pdfrwt beam="1">  1        2 0.12912613E+00 0.14291721E+04</pdfrwt>
<pdfrwt beam="2">  1       -2 0.80704708E-01 0.14291721E+04</pdfrwt>
<totfact> 0.42633784E+01</totfact>
</mgrwt>
</event>
<event>
 8    2  0.4480234E-052  0.1380292E+04  0.7818608E-02  0.8968209E-01
          2   -1    0    0  501    0  0.00000000000E+00  0.00000000000E+00  0.30348494150E+04  0.30348494150E+04  0.25500000000E-02 0.  1.
         -2   -1    0    0    0  501 -0.00000000000E+00 -0.00000000000E+00 -0.15694392613E+03  0.15694392615E+03  0.25500000000E-02 0. -1.
    -200001    2    1    2    0    0  0.11884035858E+03 -0.29361513951E+03  0.14350723982E+04  0.15924593521E+04  0.61331975270E+03 0.  0.
   -5000001    2    3    3    0    0  0.25036923514E+03 -0.30166847530E+03  0.48232635892E+03  0.62535505733E+03  0.68859337288E+02 0.  0.
     200001    1    1    2    0    0 -0.11884035858E+03  0.29361513951E+03  0.14428330906E+04  0.15993339890E+04  0.61300000000E+03 0.  1.
         13    1    4    4    0    0  0.17684330016E+03 -0.22234190267E+03  0.37083857828E+03  0.46715172781E+03  0.10566000000E+00 0.  1.
    -200003    1    4    4    0    0  0.73525934980E+02 -0.79326572624E+02  0.11148778064E+03  0.15820332952E+03  0.30000000000E+02 0.  1.
    -200000    1    3    3    0    0 -0.13152887656E+03  0.80533357858E+01  0.95274603933E+03  0.96710429481E+03  0.10100000000E+03 0.  1.
<mgrwt>
<rscale>  0 0.13802915E+04</rscale>
<asrwt>0</asrwt>
<pdfrwt beam="1">  1        2 0.43354988E+00 0.13802915E+04</pdfrwt>
<pdfrwt beam="2">  1       -2 0.22420563E-01 0.13802915E+04</pdfrwt>
<totfact> 0.38675238E+01</totfact>
</mgrwt>
</event>
<event>
 8    2  0.4480234E-052  0.1525223E+04  0.7818608E-02  0.8867851E-01
         -2   -1    0    0    0  501 -0.00000000000E+00  0.00000000000E+00  0.32547071548E+03  0.32547071549E+03  0.25500000000E-02 0. -1.
          2   -1    0    0  501    0  0.00000000000E+00 -0.00000000000E+00 -0.17868782138E+04  0.17868782138E+04  0.25500000000E-02 0.  1.
    -200001    2    1    2    0    0 -0.12900819509E+03  0.35913314305E+03 -0.39054390212E+03  0.82078492757E+03  0.61281614617E+03 0.  0.
   -5000001    2    3    3    0    0 -0.31005284287E+03  0.12720431294E+03 -0.89731501538E+02  0.38805262341E+03  0.17383726172E+03 0.  0.
     200001    1    1    2    0    0  0.12900819509E+03 -0.35913314305E+03 -0.10708635962E+04  0.12915640017E+04  0.61300000000E+03 0.  1.
         13    1    4    4    0    0 -0.21139501383E+03  0.15644831655E+03 -0.28292703358E+02  0.26450787484E+03  0.10566000000E+00 0.  1.
    -200003    1    4    4    0    0 -0.98657829034E+02 -0.29244003606E+02 -0.61438798179E+02  0.12354474857E+03  0.30000000000E+02 0.  1.
    -200000    1    3    3    0    0  0.18104464777E+03  0.23192883011E+03 -0.30081240058E+03  0.43273230416E+03  0.10100000000E+03 0. -1.
<mgrwt>
<rscale>  0 0.15252233E+04</rscale>
<asrwt>0</asrwt>
<pdfrwt beam="1">  1        2 0.25526831E+00 0.15252233E+04</pdfrwt>
<pdfrwt beam="2">  1       -2 0.46495817E-01 0.15252233E+04</pdfrwt>
<totfact> 0.43779671E+01</totfact>
</mgrwt>
</event>
<event>
 8    2  0.4480234E-052  0.1602512E+04  0.7818608E-02  0.8819006E-01
          2   -1    0    0  501    0  0.00000000000E+00  0.00000000000E+00  0.15649103005E+04  0.15649103005E+04  0.25500000000E-02 0.  1.
         -2   -1    0    0    0  501 -0.00000000000E+00 -0.00000000000E+00 -0.41025433067E+03  0.41025433068E+03  0.25500000000E-02 0. -1.
    -200001    2    1    2    0    0  0.14335581164E+03  0.34915376990E+03  0.10098272208E+04  0.12408597828E+04  0.61442879246E+03 0.  0.
   -5000001    2    3    3    0    0  0.33383515194E+03  0.35686598567E+03  0.68543646244E+03  0.85128023836E+03  0.12671093002E+03 0.  0.
     200001    1    1    2    0    0 -0.14335581164E+03 -0.34915376990E+03  0.14482874904E+03  0.73430484835E+03  0.61300000000E+03 0. -1.
         13    1    4    4    0    0  0.12629298375E+03  0.67619574461E+02  0.24895167346E+03  0.28722686412E+03  0.10566000000E+00 0.  1.
    -200003    1    4    4    0    0  0.20754216820E+03  0.28924641121E+03  0.43648478898E+03  0.56405337424E+03  0.30000000000E+02 0.  1.
    -200000    1    3    3    0    0 -0.19047934030E+03 -0.77122157749E+01  0.32439075832E+03  0.38957954443E+03  0.10100000000E+03 0. -1.
<mgrwt>
<rscale>  0 0.16025121E+04</rscale>
<asrwt>0</asrwt>
<pdfrwt beam="1">  1        2 0.22355861E+00 0.16025121E+04</pdfrwt>
<pdfrwt beam="2">  1       -2 0.58607762E-01 0.16025121E+04</pdfrwt>
<totfact> 0.35302881E+01</totfact>
</mgrwt>
</event>
<event>
 8    2  0.4480234E-052  0.1707705E+04  0.7818608E-02  0.8756982E-01
         -2   -1    0    0    0  501 -0.00000000000E+00  0.00000000000E+00  0.48784544947E+03  0.48784544948E+03  0.25500000000E-02 0. -1.
          2   -1    0    0  501    0  0.00000000000E+00 -0.00000000000E+00 -0.14944564969E+04  0.14944564969E+04  0.25500000000E-02 0.  1.
    -200001    2    1    2    0    0 -0.34546619816E+03 -0.27039628652E+03 -0.97086503117E+03  0.12276445250E+04  0.60997633175E+03 0.  0.
   -5000001    2    3    3    0    0 -0.36455382555E+02 -0.32309398251E+03 -0.76654027662E+03  0.84006958178E+03  0.11141898448E+03 0.  0.
     200001    1    1    2    0    0  0.34546619816E+03  0.27039628652E+03 -0.35746016212E+02  0.75465742129E+03  0.61300000000E+03 0. -1.
         13    1    4    4    0    0 -0.59087170397E+02 -0.28124968991E+03 -0.64739579024E+03  0.70831772685E+03  0.10566000000E+00 0.  1.
    -200003    1    4    4    0    0  0.22631787841E+02 -0.41844292596E+02 -0.11914448638E+03  0.13175185494E+03  0.30000000000E+02 0. -1.
    -200000    1    3    3    0    0 -0.30901081561E+03  0.52697695988E+02 -0.20432475454E+03  0.38757494326E+03  0.10100000000E+03 0. -1.
<mgrwt>
<rscale>  0 0.17077047E+04</rscale>
<asrwt>0</asrwt>
<pdfrwt beam="1">  1        2 0.21349378E+00 0.17077047E+04</pdfrwt>
<pdfrwt beam="2">  1       -2 0.69692208E-01 0.17077047E+04</pdfrwt>
<totfact> 0.26338580E+01</totfact>
</mgrwt>
</event>
<event>
 8    2  0.4480234E-052  0.1397616E+04  0.7818608E-02  0.8955546E-01
         -2   -1    0    0    0  501 -0.00000000000E+00  0.00000000000E+00  0.22904414470E+03  0.22904414472E+03  0.25500000000E-02 0. -1.
          2   -1    0    0  501    0  0.00000000000E+00 -0.00000000000E+00 -0.21320463800E+04  0.21320463800E+04  0.25500000000E-02 0.  1.
    -200001    2    1    2    0    0  0.76505544130E+02 -0.31845657090E+03 -0.10768447439E+04  0.12814735156E+04  0.61262719725E+03 0.  0.
   -5000001    2    3    3    0    0 -0.28426109280E+02 -0.66304111066E+02 -0.89388701089E+03  0.93757520654E+03  0.27351234129E+03 0.  0.
     200001    1    1    2    0    0 -0.76505544130E+02  0.31845657090E+03 -0.82615749134E+03  0.10796170091E+04  0.61300000000E+03 0.  1.
         13    1    4    4    0    0  0.60072774238E+02 -0.14670137382E+03 -0.46200740475E+03  0.48844742244E+03  0.10566000000E+00 0.  1.
    -200003    1    4    4    0    0 -0.88498883518E+02  0.80397262753E+02 -0.43187960614E+03  0.44912778409E+03  0.30000000000E+02 0.  1.
    -200000    1    3    3    0    0  0.10493165341E+03 -0.25215245984E+03 -0.18295773302E+03  0.34389830904E+03  0.10100000000E+03 0. -1.
<mgrwt>
<rscale>  0 0.13976162E+04</rscale>
<asrwt>0</asrwt>
<pdfrwt beam="1">  1        2 0.30457804E+00 0.13976162E+04</pdfrwt>
<pdfrwt beam="2">  1       -2 0.32720593E-01 0.13976162E+04</pdfrwt>
<totfact> 0.58224621E+01</totfact>
</mgrwt>
</event>
<event>
 8    2  0.4480234E-052  0.1295977E+04  0.7818608E-02  0.9032762E-01
         -2   -1    0    0    0  501 -0.00000000000E+00  0.00000000000E+00  0.96809941491E+03  0.96809941492E+03  0.25500000000E-02 0. -1.
          2   -1    0    0  501    0  0.00000000000E+00 -0.00000000000E+00 -0.43372520127E+03  0.43372520128E+03  0.25500000000E-02 0.  1.
    -200001    2    1    2    0    0 -0.12543994082E+03  0.13994266384E+03  0.18711572148E+03  0.67266305090E+03  0.61817809643E+03 0.  0.
   -5000001    2    3    3    0    0  0.85472135488E+02  0.23903971230E+03 -0.84984451478E+02  0.30044855217E+03  0.13638733630E+03 0.  0.
     200001    1    1    2    0    0  0.12543994082E+03 -0.13994266384E+03  0.34725849217E+03  0.72916156529E+03  0.61300000000E+03 0. -1.
         13    1    4    4    0    0  0.16959346894E+02  0.15730653475E+03  0.41217329510E+01  0.15827180787E+03  0.10566000000E+00 0.  1.
    -200003    1    4    4    0    0  0.68512788594E+02  0.81733177553E+02 -0.89106184429E+02  0.14217674429E+03  0.30000000000E+02 0.  1.
    -200000    1    3    3    0    0 -0.21091207631E+03 -0.99097048456E+02  0.27210017295E+03  0.37221449874E+03  0.10100000000E+03 0.  1.
<mgrwt>
<rscale>  0 0.12959770E+04</rscale>
<asrwt>0</asrwt>
<pdfrwt beam="1">  1        2 0.61960743E-01 0.12959770E+04</pdfrwt>
<pdfrwt beam="2">  1       -2 0.13829992E+00 0.12959770E+04</pdfrwt>
<totfact> 0.28714859E+01</totfact>
</mgrwt>
</event>
<event>
 8    2  0.4480234E-052  0.1478012E+04  0.7818608E-02  0.8899208E-01
         -2   -1    0    0    0  501 -0.00000000000E+00  0.00000000000E+00  0.24396848774E+03  0.24396848775E+03  0.25500000000E-02 0.  1.
          2   -1    0    0  501    0  0.00000000000E+00 -0.00000000000E+00 -0.22385255862E+04  0.22385255862E+04  0.25500000000E-02 0. -1.
    -200001    2    1    2    0    0 -0.19787581140E+03 -0.15407744702E+03 -0.15499674998E+04  0.16847951284E+04  0.61093426655E+03 0.  0.
   -5000001    2    3    3    0    0  0.16217054872E+03  0.50076314303E+01 -0.22624236837E+03  0.30009636441E+03  0.11201721045E+03 0.  0.
     200001    1    1    2    0    0  0.19787581140E+03  0.15407744702E+03 -0.44458959869E+03  0.79769894552E+03  0.61300000000E+03 0.  1.
         13    1    4    4    0    0  0.86854380585E+02  0.13277626080E+02 -0.39473504267E+02  0.96323140960E+02  0.10566000000E+00 0.  1.
    -200003    1    4    4    0    0  0.75316168134E+02 -0.82699946493E+01 -0.18676886411E+03  0.20377322345E+03  0.30000000000E+02 0.  1.
    -200000    1    3    3    0    0 -0.36004636012E+03 -0.15908507845E+03 -0.13237251314E+04  0.13846987640E+04  0.10100000000E+03 0. -1.
<mgrwt>
<rscale>  0 0.14780118E+04</rscale>
<asrwt>0</asrwt>
<pdfrwt beam="1">  1        2 0.31978936E+00 0.14780118E+04</pdfrwt>
<pdfrwt beam="2">  1       -2 0.34852643E-01 0.14780118E+04</pdfrwt>
<totfact> 0.45231396E+01</totfact>
</mgrwt>
</event>
<event>
 8    2  0.4480234E-052  0.1689696E+04  0.7818608E-02  0.8767263E-01
          2   -1    0    0  501    0  0.00000000000E+00  0.00000000000E+00  0.28581494582E+04  0.28581494582E+04  0.25500000000E-02 0.  1.
         -2   -1    0    0    0  501 -0.00000000000E+00 -0.00000000000E+00 -0.24973092325E+03  0.24973092326E+03  0.25500000000E-02 0. -1.
    -200001    2    1    2    0    0  0.32633655402E+03 -0.46158840650E+03  0.10663910806E+04  0.13548324433E+04  0.61548485693E+03 0.  0.
   -5000001    2    3    3    0    0 -0.40155067657E+00  0.90384165959E+02  0.25505456086E+02  0.12801730110E+03  0.86996795293E+02 0.  0.
     200001    1    1    2    0    0 -0.32633655402E+03  0.46158840650E+03  0.15420274543E+04  0.17530479382E+04  0.61300000000E+03 0. -1.
         13    1    4    4    0    0 -0.71213638797E+01 -0.14384077365E+02  0.79617925581E+00  0.16070487565E+02  0.10566000000E+00 0.  1.
    -200003    1    4    4    0    0  0.67198132032E+01  0.10476824332E+03  0.24709276830E+02  0.11194681353E+03  0.30000000000E+02 0.  1.
    -200000    1    3    3    0    0  0.32673810469E+03 -0.55197257246E+03  0.10408856245E+04  0.12268151422E+04  0.10100000000E+03 0. -1.
<mgrwt>
<rscale>  0 0.16896962E+04</rscale>
<asrwt>0</asrwt>
<pdfrwt beam="1">  1        2 0.40830705E+00 0.16896962E+04</pdfrwt>
<pdfrwt beam="2">  1       -2 0.35675847E-01 0.16896962E+04</pdfrwt>
<totfact> 0.19975988E+01</totfact>
</mgrwt>
</event>
<event>
 8    2  0.4480234E-052  0.1963715E+04  0.7818608E-02  0.8623775E-01
          2   -1    0    0  501    0  0.00000000000E+00  0.00000000000E+00  0.10581147888E+04  0.10581147888E+04  0.25500000000E-02 0. -1.
         -2   -1    0    0    0  501 -0.00000000000E+00 -0.00000000000E+00 -0.91109634038E+03  0.91109634038E+03  0.25500000000E-02 0.  1.
    -200001    2    1    2    0    0 -0.45493372069E+03 -0.48877646819E+03 -0.30499808804E+03  0.95631672439E+03  0.61290351407E+03 0.  0.
   -5000001    2    3    3    0    0  0.92677259999E+02 -0.97884071186E+02  0.49453805941E+02  0.18917149866E+03  0.12316578693E+03 0.  0.
     200001    1    1    2    0    0  0.45493372069E+03  0.48877646819E+03  0.45201653650E+03  0.10128944048E+04  0.61300000000E+03 0. -1.
         13    1    4    4    0    0  0.70726372192E+02  0.20902654154E+01 -0.19178921360E+01  0.70783320121E+02  0.10566000000E+00 0.  1.
    -200003    1    4    4    0    0  0.21950887806E+02 -0.99974336601E+02  0.51371698077E+02  0.11838817854E+03  0.30000000000E+02 0.  1.
    -200000    1    3    3    0    0 -0.54761098069E+03 -0.39089239700E+03 -0.35445189398E+03  0.76714522573E+03  0.10100000000E+03 0.  1.
<mgrwt>
<rscale>  0 0.19637154E+04</rscale>
<asrwt>0</asrwt>
<pdfrwt beam="1">  1        2 0.15115926E+00 0.19637154E+04</pdfrwt>
<pdfrwt beam="2">  1       -2 0.13015662E+00 0.19637154E+04</pdfrwt>
<totfact> 0.10481420E+01</totfact>
</mgrwt>
</event>
<event>
 8    2  0.4480234E-052  0.3473068E+04  0.7818608E-02  0.8120202E-01
         -2   -1    0    0    0  501 -0.00000000000E+00  0.00000000000E+00  0.23123255525E+04  0.23123255525E+04  0.25500000000E-02 0. -1.
          2   -1    0    0  501    0  0.00000000000E+00 -0.00000000000E+00 -0.13041204075E+04  0.13041204075E+04  0.25500000000E-02 0.  1.
    -200001    2    1    2    0    0  0.53667431734E+03 -0.14959935317E+04  0.15019783039E+03  0.17091018586E+04  0.61028993521E+03 0.  0.
   -5000001    2    3    3    0    0  0.35916240431E+03 -0.14190463063E+04  0.66567247336E+02  0.14753788833E+04  0.17210926385E+03 0.  0.
     200001    1    1    2    0    0 -0.53667431734E+03  0.14959935317E+04  0.85800731461E+03  0.19073441015E+04  0.61300000000E+03 0.  1.
         13    1    4    4    0    0  0.22849805104E+03 -0.72370987992E+03  0.10520820858E+03  0.76618282932E+03  0.10566000000E+00 0.  1.
    -200003    1    4    4    0    0  0.13066435327E+03 -0.69533642637E+03 -0.38640961239E+02  0.70919605395E+03  0.30000000000E+02 0.  1.
    -200000    1    3    3    0    0  0.17751191303E+03 -0.76947225370E+02  0.83630583052E+02  0.23372297530E+03  0.10100000000E+03 0. -1.
<mgrwt>
<rscale>  0 0.34730684E+04</rscale>
<asrwt>0</asrwt>
<pdfrwt beam="1">  1        2 0.18630292E+00 0.34730684E+04</pdfrwt>
<pdfrwt beam="2">  1       -2 0.33033222E+00 0.34730684E+04</pdfrwt>
<totfact> 0.32027938E-01</totfact>
</mgrwt>
</event>
<event>
 8    2  0.4480234E-052  0.2210788E+04  0.7818608E-02  0.8513951E-01
         -2   -1    0    0    0  501 -0.00000000000E+00  0.00000000000E+00  0.71389658806E+03  0.71389658806E+03  0.25500000000E-02 0. -1.
          2   -1    0    0  501    0  0.00000000000E+00 -0.00000000000E+00 -0.17115869761E+04  0.17115869761E+04  0.25500000000E-02 0.  1.
    -200001    2    1    2    0    0 -0.41082510915E+03 -0.82145838106E+03 -0.55407578423E+03  0.12354692538E+04  0.61303601881E+03 0.  0.
   -5000001    2    3    3    0    0 -0.16801058861E+03 -0.76172650257E+03 -0.24322932321E+03  0.82394366408E+03  0.10615006033E+03 0.  0.
     200001    1    1    2    0    0  0.41082510915E+03  0.82145838106E+03 -0.44361460384E+03  0.11900143104E+04  0.61300000000E+03 0. -1.
         13    1    4    4    0    0  0.27282411938E+01 -0.26272938040E+01 -0.10656360593E+02  0.11309958349E+02  0.10566000000E+00 0.  1.
    -200003    1    4    4    0    0 -0.17073882981E+03 -0.75909920876E+03 -0.23257296262E+03  0.81263370573E+03  0.30000000000E+02 0.  1.
    -200000    1    3    3    0    0 -0.24281452054E+03 -0.59731878498E+02 -0.31084646102E+03  0.41152558975E+03  0.10100000000E+03 0.  1.
<mgrwt>
<rscale>  0 0.22107882E+04</rscale>
<asrwt>0</asrwt>
<pdfrwt beam="1">  1        2 0.24451242E+00 0.22107882E+04</pdfrwt>
<pdfrwt beam="2">  1       -2 0.10198523E+00 0.22107882E+04</pdfrwt>
<totfact> 0.81833838E+00</totfact>
</mgrwt>
</event>
<event>
 8    2  0.4480234E-052  0.1862052E+04  0.7818608E-02  0.8673979E-01
         -2   -1    0    0    0  501 -0.00000000000E+00  0.00000000000E+00  0.32472276096E+03  0.32472276097E+03  0.25500000000E-02 0. -1.
          2   -1    0    0  501    0  0.00000000000E+00 -0.00000000000E+00 -0.26693832978E+04  0.26693832978E+04  0.25500000000E-02 0.  1.
    -200001    2    1    2    0    0 -0.59803407972E+03  0.32243120006E+03 -0.14473958317E+04  0.17125212624E+04  0.61332515123E+03 0.  0.
   -5000001    2    3    3    0    0 -0.21219486690E+03  0.47140397323E+02 -0.74972525357E+03  0.86304956782E+03  0.36812731777E+03 0.  0.
     200001    1    1    2    0    0  0.59803407972E+03 -0.32243120006E+03 -0.89726470510E+03  0.12815847964E+04  0.61300000000E+03 0. -1.
         13    1    4    4    0    0  0.86995747021E+02  0.74758062034E+02 -0.30168714704E+03  0.32275714352E+03  0.10566000000E+00 0.  1.
    -200003    1    4    4    0    0 -0.29919061392E+03 -0.27617664711E+02 -0.44803810652E+03  0.54029242430E+03  0.30000000000E+02 0.  1.
    -200000    1    3    3    0    0 -0.38583921282E+03  0.27529080274E+03 -0.69767057813E+03  0.84947169454E+03  0.10100000000E+03 0. -1.
<mgrwt>
<rscale>  0 0.18620521E+04</rscale>
<asrwt>0</asrwt>
<pdfrwt beam="1">  1        2 0.38134046E+00 0.18620521E+04</pdfrwt>
<pdfrwt beam="2">  1       -2 0.46388967E-01 0.18620521E+04</pdfrwt>
<totfact> 0.14876566E+01</totfact>
</mgrwt>
</event>
<event>
 8    2  0.4480234E-052  0.1402277E+04  0.7818608E-02  0.8952172E-01
          2   -1    0    0  501    0  0.00000000000E+00  0.00000000000E+00  0.12974158771E+04  0.12974158771E+04  0.25500000000E-02 0.  1.
         -2   -1    0    0    0  501 -0.00000000000E+00 -0.00000000000E+00 -0.37890317492E+03  0.37890317492E+03  0.25500000000E-02 0. -1.
    -200001    2    1    2    0    0  0.16505545993E+03  0.66215805379E+02  0.11335994668E+03  0.64886209554E+03  0.61363157007E+03 0.  0.
   -5000001    2    3    3    0    0 -0.82263147099E+02  0.18698664309E+03  0.24249094133E+03  0.32850619595E+03  0.85925747508E+02 0.  0.
     200001    1    1    2    0    0 -0.16505545993E+03 -0.66215805379E+02  0.80515275552E+03  0.10274569565E+04  0.61300000000E+03 0.  1.
         13    1    4    4    0    0  0.14188222725E+02  0.37050913110E+02  0.57372702198E+02  0.69754669721E+02  0.10566000000E+00 0.  1.
    -200003    1    4    4    0    0 -0.96451369824E+02  0.14993572998E+03  0.18511823913E+03  0.25875152623E+03  0.30000000000E+02 0.  1.
    -200000    1    3    3    0    0  0.24731860703E+03 -0.12077083772E+03 -0.12913099465E+03  0.32035589960E+03  0.10100000000E+03 0. -1.
<mgrwt>
<rscale>  0 0.14022767E+04</rscale>
<asrwt>0</asrwt>
<pdfrwt beam="1">  1        2 0.18534512E+00 0.14022767E+04</pdfrwt>
<pdfrwt beam="2">  1       -2 0.54129026E-01 0.14022767E+04</pdfrwt>
<totfact> 0.58966000E+01</totfact>
</mgrwt>
</event>
<event>
 8    2  0.4480234E-052  0.1796164E+04  0.7818608E-02  0.8708342E-01
         -2   -1    0    0    0  501 -0.00000000000E+00  0.00000000000E+00  0.49591060332E+03  0.49591060333E+03  0.25500000000E-02 0. -1.
          2   -1    0    0  501    0  0.00000000000E+00 -0.00000000000E+00 -0.16264043428E+04  0.16264043428E+04  0.25500000000E-02 0.  1.
    -200001    2    1    2    0    0  0.33464457675E+03 -0.28597617485E+03 -0.11403820876E+04  0.13675725101E+04  0.61319972218E+03 0.  0.
   -5000001    2    3    3    0    0  0.92637705752E+02 -0.39485890161E+03 -0.39758864213E+03  0.57235815129E+03  0.70864859298E+02 0.  0.
     200001    1    1    2    0    0 -0.33464457675E+03  0.28597617485E+03  0.98883481368E+01  0.75474243604E+03  0.61300000000E+03 0. -1.
         13    1    4    4    0    0  0.53464276671E+01 -0.24341807495E+02 -0.64586817890E+01  0.25745555256E+02  0.10566000000E+00 0.  1.
    -200003    1    4    4    0    0  0.87291278085E+02 -0.37051709412E+03 -0.39112996034E+03  0.54661259603E+03  0.30000000000E+02 0.  1.
    -200000    1    3    3    0    0  0.24200687100E+03  0.10888272676E+03 -0.74279344550E+03  0.79521435882E+03  0.10100000000E+03 0.  1.
<mgrwt>
<rscale>  0 0.17961639E+04</rscale>
<asrwt>0</asrwt>
<pdfrwt beam="1">  1        2 0.23234348E+00 0.17961639E+04</pdfrwt>
<pdfrwt beam="2">  1       -2 0.70844373E-01 0.17961639E+04</pdfrwt>
<totfact> 0.21495177E+01</totfact>
</mgrwt>
</event>
<event>
 8    2  0.4480234E-052  0.1537231E+04  0.7818608E-02  0.8860065E-01
         -2   -1    0    0    0  501 -0.00000000000E+00  0.00000000000E+00  0.28067886054E+03  0.28067886055E+03  0.25500000000E-02 0. -1.
          2   -1    0    0  501    0  0.00000000000E+00 -0.00000000000E+00 -0.21047890588E+04  0.21047890588E+04  0.25500000000E-02 0.  1.
    -200001    2    1    2    0    0 -0.14277093352E+03  0.18793906506E+03 -0.29282173128E+03  0.71923924335E+03  0.61307086966E+03 0.  0.
   -5000001    2    3    3    0    0 -0.98802705536E+02  0.15796586651E+02  0.17148083275E+03  0.21194829241E+03  0.74194985560E+02 0.  0.
     200001    1    1    2    0    0  0.14277093352E+03 -0.18793906506E+03 -0.15312884669E+04  0.16662286760E+04  0.61300000000E+03 0.  1.
         13    1    4    4    0    0 -0.32644940823E+02  0.21728371162E+02  0.20395081591E+02  0.44201637886E+02  0.10566000000E+00 0.  1.
    -200003    1    4    4    0    0 -0.66157764713E+02 -0.59317845113E+01  0.15108575116E+03  0.16774665452E+03  0.30000000000E+02 0. -1.
    -200000    1    3    3    0    0 -0.43968227980E+02  0.17214247841E+03 -0.46430256403E+03  0.50729095094E+03  0.10100000000E+03 0.  1.
<mgrwt>
<rscale>  0 0.15372310E+04</rscale>
<asrwt>0</asrwt>
<pdfrwt beam="1">  1        2 0.30068414E+00 0.15372310E+04</pdfrwt>
<pdfrwt beam="2">  1       -2 0.40096981E-01 0.15372310E+04</pdfrwt>
<totfact> 0.40244238E+01</totfact>
</mgrwt>
</event>
<event>
 8    2  0.4480234E-052  0.1346551E+04  0.7818608E-02  0.8993443E-01
         -2   -1    0    0    0  501 -0.00000000000E+00  0.00000000000E+00  0.47654609737E+03  0.47654609738E+03  0.25500000000E-02 0. -1.
          2   -1    0    0  501    0  0.00000000000E+00 -0.00000000000E+00 -0.95121930901E+03  0.95121930901E+03  0.25500000000E-02 0.  1.
    -200001    2    1    2    0    0  0.22834358030E+03  0.57831914020E+02 -0.39426320435E+03  0.76616122697E+03  0.61324891395E+03 0.  0.
   -5000001    2    3    3    0    0  0.20895287551E+03  0.28611266227E+03 -0.93175678491E+02  0.37457113812E+03  0.78102949731E+02 0.  0.
     200001    1    1    2    0    0 -0.22834358030E+03 -0.57831914020E+02 -0.80410007286E+02  0.66160417941E+03  0.61300000000E+03 0. -1.
         13    1    4    4    0    0  0.26775032337E+02  0.60764227053E+02  0.63719236812E+01  0.66706867873E+02  0.10566000000E+00 0.  1.
    -200003    1    4    4    0    0  0.18217784317E+03  0.22534843522E+03 -0.99547602172E+02  0.30786427025E+03  0.30000000000E+02 0.  1.
    -200000    1    3    3    0    0  0.19390704798E+02 -0.22828074825E+03 -0.30108752586E+03  0.39159008885E+03  0.10100000000E+03 0.  1.
<mgrwt>
<rscale>  0 0.13465509E+04</rscale>
<asrwt>0</asrwt>
<pdfrwt beam="1">  1        2 0.13588847E+00 0.13465509E+04</pdfrwt>
<pdfrwt beam="2">  1       -2 0.68078014E-01 0.13465509E+04</pdfrwt>
<totfact> 0.58237585E+01</totfact>
</mgrwt>
</event>
<event>
 8    2  0.4480234E-052  0.1404219E+04  0.7818608E-02  0.8950771E-01
          2   -1    0    0  501    0  0.00000000000E+00  0.00000000000E+00  0.14248297299E+04  0.14248297299E+04  0.25500000000E-02 0.  1.
         -2   -1    0    0    0  501 -0.00000000000E+00 -0.00000000000E+00 -0.34597637724E+03  0.34597637725E+03  0.25500000000E-02 0. -1.
    -200001    2    1    2    0    0 -0.14889372956E+03  0.96710597735E+01  0.92598309756E+03  0.11216518982E+04  0.61513853049E+03 0.  0.
   -5000001    2    3    3    0    0  0.17609413592E+03 -0.23649006300E+02  0.60146437042E+03  0.65022773276E+03  0.17166331978E+03 0.  0.
     200001    1    1    2    0    0  0.14889372956E+03 -0.96710597735E+01  0.15287025511E+03  0.64915420895E+03  0.61300000000E+03 0. -1.
         13    1    4    4    0    0  0.18515905890E+03 -0.47619018023E+02  0.38118598994E+03  0.42644368686E+03  0.10566000000E+00 0.  1.
    -200003    1    4    4    0    0 -0.90649229895E+01  0.23970011723E+02  0.22027838048E+03  0.22378404590E+03  0.30000000000E+02 0.  1.
    -200000    1    3    3    0    0 -0.32498786547E+03  0.33320066074E+02  0.32451872714E+03  0.47142416545E+03  0.10100000000E+03 0. -1.
<mgrwt>
<rscale>  0 0.14042185E+04</rscale>
<asrwt>0</asrwt>
<pdfrwt beam="1">  1        2 0.20354710E+00 0.14042185E+04</pdfrwt>
<pdfrwt beam="2">  1       -2 0.49425197E-01 0.14042185E+04</pdfrwt>
<totfact> 0.60523439E+01</totfact>
</mgrwt>
</event>
<event>
 8    2  0.4480234E-052  0.1604696E+04  0.7818608E-02  0.8817668E-01
         -2   -1    0    0    0  501 -0.00000000000E+00  0.00000000000E+00  0.51526979141E+03  0.51526979142E+03  0.25500000000E-02 0. -1.
          2   -1    0    0  501    0  0.00000000000E+00 -0.00000000000E+00 -0.12493688542E+04  0.12493688542E+04  0.25500000000E-02 0.  1.
    -200001    2    1    2    0    0  0.44218974465E+03  0.10429768686E+03 -0.63870800020E+03  0.99569246243E+03  0.61404054627E+03 0.  0.
   -5000001    2    3    3    0    0  0.84171348324E+02 -0.18709151244E+03 -0.27401145680E+03  0.39879263302E+03  0.20460996014E+03 0.  0.
     200001    1    1    2    0    0 -0.44218974465E+03 -0.10429768686E+03 -0.95391062549E+02  0.76894618314E+03  0.61300000000E+03 0. -1.
         13    1    4    4    0    0  0.83373390045E+02 -0.14360887651E+03 -0.29770821908E+03  0.34088829029E+03  0.10566000000E+00 0.  1.
    -200003    1    4    4    0    0  0.79795827874E+00 -0.43482635936E+02  0.23696762282E+02  0.57904342739E+02  0.30000000000E+02 0.  1.
    -200000    1    3    3    0    0  0.35801839632E+03  0.29138919931E+03 -0.36469654339E+03  0.59689982941E+03  0.10100000000E+03 0. -1.
<mgrwt>
<rscale>  0 0.16046956E+04</rscale>
<asrwt>0</asrwt>
<pdfrwt beam="1">  1        2 0.17848126E+00 0.16046956E+04</pdfrwt>
<pdfrwt beam="2">  1       -2 0.73609971E-01 0.16046956E+04</pdfrwt>
<totfact> 0.32041326E+01</totfact>
</mgrwt>
</event>
<event>
 8    2  0.4480234E-052  0.1499414E+04  0.7818608E-02  0.8884843E-01
          2   -1    0    0  501    0  0.00000000000E+00  0.00000000000E+00  0.54324012484E+03  0.54324012484E+03  0.25500000000E-02 0.  1.
         -2   -1    0    0    0  501 -0.00000000000E+00 -0.00000000000E+00 -0.10346445956E+04  0.10346445957E+04  0.25500000000E-02 0. -1.
    -200001    2    1    2    0    0 -0.39877111937E+03  0.54963310058E+02 -0.41003461702E+03  0.84003011137E+03  0.61276653772E+03 0.  0.
   -5000001    2    3    3    0    0 -0.40162186409E+03 -0.19325358633E+03 -0.18310748518E+03  0.48886536718E+03  0.82546506596E+02 0.  0.
     200001    1    1    2    0    0  0.39877111937E+03 -0.54963310058E+02 -0.81369853790E+02  0.73785460912E+03  0.61300000000E+03 0.  1.
         13    1    4    4    0    0 -0.23578650939E+03 -0.14535866559E+03 -0.12853954237E+03  0.30536346342E+03  0.10566000000E+00 0.  1.
    -200003    1    4    4    0    0 -0.16583535470E+03 -0.47894920736E+02 -0.54567942806E+02  0.18350190375E+03  0.30000000000E+02 0.  1.
    -200000    1    3    3    0    0  0.28507447154E+01  0.24821689639E+03 -0.22692713184E+03  0.35116474420E+03  0.10100000000E+03 0.  1.
<mgrwt>
<rscale>  0 0.14994138E+04</rscale>
<asrwt>0</asrwt>
<pdfrwt beam="1">  1        2 0.77605733E-01 0.14994138E+04</pdfrwt>
<pdfrwt beam="2">  1       -2 0.14780637E+00 0.14994138E+04</pdfrwt>
<totfact> 0.18385149E+01</totfact>
</mgrwt>
</event>
<event>
 8    2  0.4480234E-052  0.1336729E+04  0.7818608E-02  0.9000935E-01
          2   -1    0    0  501    0  0.00000000000E+00  0.00000000000E+00  0.22249197605E+04  0.22249197605E+04  0.25500000000E-02 0.  1.
         -2   -1    0    0    0  501 -0.00000000000E+00 -0.00000000000E+00 -0.20077624549E+03  0.20077624550E+03  0.25500000000E-02 0. -1.
    -200001    2    1    2    0    0  0.91644473272E+01 -0.20481372923E+03  0.70387335577E+03  0.95569092297E+03  0.61308628146E+03 0.  0.
   -5000001    2    3    3    0    0 -0.19272698924E+03 -0.50508677226E+02  0.34155549915E+03  0.50176864938E+03  0.30889609847E+03 0.  0.
     200001    1    1    2    0    0 -0.91644473272E+01  0.20481372923E+03  0.13202701593E+04  0.14700050831E+04  0.61300000000E+03 0.  1.
         13    1    4    4    0    0 -0.95756747278E+02 -0.16925323668E+03  0.11294993013E+03  0.22488599480E+03  0.10566000000E+00 0.  1.
    -200003    1    4    4    0    0 -0.96970241958E+02  0.11874455945E+03  0.22860556902E+03  0.27688265459E+03  0.30000000000E+02 0.  1.
    -200000    1    3    3    0    0  0.20189143656E+03 -0.15430505200E+03  0.36231785662E+03  0.45392227358E+03  0.10100000000E+03 0.  1.
<mgrwt>
<rscale>  0 0.13367289E+04</rscale>
<asrwt>0</asrwt>
<pdfrwt beam="1">  1        2 0.31784562E+00 0.13367289E+04</pdfrwt>
<pdfrwt beam="2">  1       -2 0.28682326E-01 0.13367289E+04</pdfrwt>
<totfact> 0.67032901E+01</totfact>
</mgrwt>
</event>
<event>
 8    2  0.4480234E-052  0.1764625E+04  0.7818608E-02  0.8725341E-01
          2   -1    0    0  501    0  0.00000000000E+00  0.00000000000E+00  0.40377855698E+04  0.40377855698E+04  0.25500000000E-02 0.  1.
         -2   -1    0    0    0  501 -0.00000000000E+00 -0.00000000000E+00 -0.19279759072E+03  0.19279759074E+03  0.25500000000E-02 0. -1.
    -200001    2    1    2    0    0 -0.25788829717E+03 -0.53427113474E+03  0.24596686871E+04  0.26036748780E+04  0.61416675300E+03 0.  0.
   -5000001    2    3    3    0    0 -0.94677288745E+02 -0.62029206065E+03  0.19767753469E+04  0.20769639411E+04  0.11141100062E+03 0.  0.
     200001    1    1    2    0    0  0.25788829717E+03  0.53427113474E+03  0.13853192919E+04  0.16269082825E+04  0.61300000000E+03 0.  1.
         13    1    4    4    0    0 -0.84647287254E+02 -0.49096429221E+03  0.14333344219E+04  0.15174513750E+04  0.10566000000E+00 0.  1.
    -200003    1    4    4    0    0 -0.10030001490E+02 -0.12932776844E+03  0.54344092501E+03  0.55951256607E+03  0.30000000000E+02 0.  1.
    -200000    1    3    3    0    0 -0.16321100842E+03  0.86020925914E+02  0.48289334024E+03  0.52671093687E+03  0.10100000000E+03 0. -1.
<mgrwt>
<rscale>  0 0.17646250E+04</rscale>
<asrwt>0</asrwt>
<pdfrwt beam="1">  1        2 0.57682648E+00 0.17646250E+04</pdfrwt>
<pdfrwt beam="2">  1       -2 0.27542515E-01 0.17646250E+04</pdfrwt>
<totfact> 0.61861405E+00</totfact>
</mgrwt>
</event>
<event>
 8    2  0.4480234E-052  0.1827321E+04  0.7818608E-02  0.8691904E-01
         -2   -1    0    0    0  501 -0.00000000000E+00  0.00000000000E+00  0.38795639756E+03  0.38795639757E+03  0.25500000000E-02 0. -1.
          2   -1    0    0  501    0  0.00000000000E+00 -0.00000000000E+00 -0.21517252951E+04  0.21517252951E+04  0.25500000000E-02 0.  1.
    -200001    2    1    2    0    0  0.53509326200E+03 -0.54119402424E+02 -0.14544444133E+04  0.16674980278E+04  0.61309657682E+03 0.  0.
   -5000001    2    3    3    0    0  0.34759195998E+03  0.22115938141E+03 -0.10476845064E+04  0.11321572308E+04  0.12002302941E+03 0.  0.
     200001    1    1    2    0    0 -0.53509326200E+03  0.54119402424E+02 -0.30932448426E+03  0.87218366490E+03  0.61300000000E+03 0. -1.
         13    1    4    4    0    0  0.30813026460E+03  0.20050128047E+03 -0.97330349345E+03  0.10404156501E+04  0.10566000000E+00 0.  1.
    -200003    1    4    4    0    0  0.39461695379E+02  0.20658100933E+02 -0.74381012966E+02  0.91741580683E+02  0.30000000000E+02 0. -1.
    -200000    1    3    3    0    0  0.18750130202E+03 -0.27527878383E+03 -0.40675990688E+03  0.53534079700E+03  0.10100000000E+03 0. -1.
<mgrwt>
<rscale>  0 0.18273211E+04</rscale>
<asrwt>0</asrwt>
<pdfrwt beam="1">  1        2 0.30738932E+00 0.18273211E+04</pdfrwt>
<pdfrwt beam="2">  1       -2 0.55422344E-01 0.18273211E+04</pdfrwt>
<totfact> 0.19365222E+01</totfact>
</mgrwt>
</event>
<event>
 8    2  0.4480234E-052  0.1623532E+04  0.7818608E-02  0.8806220E-01
         -2   -1    0    0    0  501 -0.00000000000E+00  0.00000000000E+00  0.25716813147E+03  0.25716813148E+03  0.25500000000E-02 0. -1.
          2   -1    0    0  501    0  0.00000000000E+00 -0.00000000000E+00 -0.25623874669E+04  0.25623874669E+04  0.25500000000E-02 0.  1.
    -200001    2    1    2    0    0 -0.37643883875E+03  0.33354967871E+03 -0.85960580299E+03  0.11707593488E+04  0.61546220743E+03 0.  0.
   -5000001    2    3    3    0    0 -0.77948910579E+02  0.17877748806E+03 -0.78437718118E+03  0.81171754934E+03  0.74835784503E+02 0.  0.
     200001    1    1    2    0    0  0.37643883875E+03 -0.33354967871E+03 -0.14456135324E+04  0.16487962496E+04  0.61300000000E+03 0.  1.
         13    1    4    4    0    0 -0.66438372883E+02  0.13037080687E+03 -0.62999118821E+03  0.64676078504E+03  0.10566000000E+00 0.  1.
    -200003    1    4    4    0    0 -0.11510537696E+02  0.48406681187E+02 -0.15438599297E+03  0.16495676430E+03  0.30000000000E+02 0.  1.
    -200000    1    3    3    0    0 -0.29848992818E+03  0.15477219065E+03 -0.75228621809E+02  0.35904179946E+03  0.10100000000E+03 0. -1.
<mgrwt>
<rscale>  0 0.16235324E+04</rscale>
<asrwt>0</asrwt>
<pdfrwt beam="1">  1        2 0.36605534E+00 0.16235324E+04</pdfrwt>
<pdfrwt beam="2">  1       -2 0.36738306E-01 0.16235324E+04</pdfrwt>
<totfact> 0.27376911E+01</totfact>
</mgrwt>
</event>
<event>
 8    2  0.4480234E-052  0.1686601E+04  0.7818608E-02  0.8769044E-01
          2   -1    0    0  501    0  0.00000000000E+00  0.00000000000E+00  0.92155482760E+03  0.92155482760E+03  0.25500000000E-02 0.  1.
         -2   -1    0    0    0  501 -0.00000000000E+00 -0.00000000000E+00 -0.77169090508E+03  0.77169090508E+03  0.25500000000E-02 0. -1.
    -200001    2    1    2    0    0  0.24568579057E+03  0.25303483519E+03  0.53657498806E+03  0.88720442870E+03  0.61223430563E+03 0.  0.
   -5000001    2    3    3    0    0  0.40547187428E+03  0.29896350384E+03  0.37175931136E+03  0.63224121089E+03  0.87962183347E+02 0.  0.
     200001    1    1    2    0    0 -0.24568579057E+03 -0.25303483519E+03 -0.38671106554E+03  0.80604130398E+03  0.61300000000E+03 0. -1.
         13    1    4    4    0    0  0.19786326643E+03  0.17571895842E+03  0.23034925221E+03  0.35083872892E+03  0.10566000000E+00 0.  1.
    -200003    1    4    4    0    0  0.20760860785E+03  0.12324454542E+03  0.14141005915E+03  0.28140248197E+03  0.30000000000E+02 0.  1.
    -200000    1    3    3    0    0 -0.15978608371E+03 -0.45928668653E+02  0.16481567670E+03  0.25496321782E+03  0.10100000000E+03 0.  1.
<mgrwt>
<rscale>  0 0.16866007E+04</rscale>
<asrwt>0</asrwt>
<pdfrwt beam="1">  1        2 0.13165069E+00 0.16866007E+04</pdfrwt>
<pdfrwt beam="2">  1       -2 0.11024156E+00 0.16866007E+04</pdfrwt>
<totfact> 0.19654523E+01</totfact>
</mgrwt>
</event>
<event>
 8    2  0.4480234E-052  0.1395731E+04  0.7818608E-02  0.8956914E-01
          2   -1    0    0  501    0  0.00000000000E+00  0.00000000000E+00  0.71175168547E+03  0.71175168548E+03  0.25500000000E-02 0.  1.
         -2   -1    0    0    0  501 -0.00000000000E+00 -0.00000000000E+00 -0.68425068236E+03  0.68425068236E+03  0.25500000000E-02 0. -1.
    -200001    2    1    2    0    0 -0.10483373414E+03 -0.31727483985E+03  0.65667341569E+01  0.69753212550E+03  0.61225363069E+03 0.  0.
   -5000001    2    3    3    0    0  0.11863772365E+03  0.89648503939E+02 -0.10688925517E+03  0.20906578922E+03  0.10085349582E+03 0.  0.
     200001    1    1    2    0    0  0.10483373414E+03  0.31727483985E+03  0.20934268958E+02  0.69847024234E+03  0.61300000000E+03 0. -1.
         13    1    4    4    0    0  0.92692735040E+02  0.85781401246E+02 -0.11210808045E+03  0.16887458303E+03  0.10566000000E+00 0.  1.
    -200003    1    4    4    0    0  0.25944988611E+02  0.38671026934E+01  0.52188252790E+01  0.40191206185E+02  0.30000000000E+02 0. -1.
    -200000    1    3    3    0    0 -0.22347145780E+03 -0.40692334379E+03  0.11345598932E+03  0.48846633628E+03  0.10100000000E+03 0. -1.
<mgrwt>
<rscale>  0 0.13957315E+04</rscale>
<asrwt>0</asrwt>
<pdfrwt beam="1">  1        2 0.10167881E+00 0.13957315E+04</pdfrwt>
<pdfrwt beam="2">  1       -2 0.97750097E-01 0.13957315E+04</pdfrwt>
<totfact> 0.37483289E+01</totfact>
</mgrwt>
</event>
<event>
 8    2  0.4480234E-052  0.1541900E+04  0.7818608E-02  0.8857058E-01
          2   -1    0    0  501    0  0.00000000000E+00  0.00000000000E+00  0.82908711336E+03  0.82908711337E+03  0.25500000000E-02 0.  1.
         -2   -1    0    0    0  501 -0.00000000000E+00 -0.00000000000E+00 -0.71688981437E+03  0.71688981438E+03  0.25500000000E-02 0. -1.
    -200001    2    1    2    0    0  0.30060846817E+03 -0.13969918006E+02  0.41514461535E+03  0.79891154491E+03  0.61266140338E+03 0.  0.
   -5000001    2    3    3    0    0 -0.11213824374E+03 -0.26361759448E+01  0.33025315752E+03  0.36544198252E+03  0.10908143473E+03 0.  0.
     200001    1    1    2    0    0 -0.30060846817E+03  0.13969918006E+02 -0.30294731636E+03  0.74706538284E+03  0.61300000000E+03 0. -1.
         13    1    4    4    0    0 -0.31754313193E+02  0.31468520434E+02  0.37106675494E+02  0.58099231620E+02  0.10566000000E+00 0.  1.
    -200003    1    4    4    0    0 -0.80383930549E+02 -0.34104696378E+02  0.29314648203E+03  0.30734275090E+03  0.30000000000E+02 0.  1.
    -200000    1    3    3    0    0  0.41274671191E+03 -0.11333742061E+02  0.84891457822E+02  0.43346956238E+03  0.10100000000E+03 0.  1.
<mgrwt>
<rscale>  0 0.15419003E+04</rscale>
<asrwt>0</asrwt>
<pdfrwt beam="1">  1        2 0.11844102E+00 0.15419003E+04</pdfrwt>
<pdfrwt beam="2">  1       -2 0.10241283E+00 0.15419003E+04</pdfrwt>
<totfact> 0.27333780E+01</totfact>
</mgrwt>
</event>
<event>
 8    2  0.4480234E-052  0.1365231E+04  0.7818608E-02  0.8979378E-01
         -2   -1    0    0    0  501 -0.00000000000E+00  0.00000000000E+00  0.16824480299E+03  0.16824480301E+03  0.25500000000E-02 0. -1.
          2   -1    0    0  501    0  0.00000000000E+00 -0.00000000000E+00 -0.27695604782E+04  0.27695604782E+04  0.25500000000E-02 0.  1.
    -200001    2    1    2    0    0 -0.20896152036E+03  0.30426124097E+02 -0.89386537568E+03  0.11114027540E+04  0.62580356802E+03 0.  0.
   -5000001    2    3    3    0    0  0.44241126789E+02  0.27083515040E+03 -0.47097584285E+03  0.55377865353E+03  0.97691333099E+02 0.  0.
     200001    1    1    2    0    0  0.20896152036E+03 -0.30426124097E+02 -0.17074502996E+04  0.18264025273E+04  0.61300000000E+03 0.  1.
         13    1    4    4    0    0  0.50598702959E+02  0.64847477102E+02 -0.15220610544E+03  0.17300905677E+03  0.10566000000E+00 0.  1.
    -200003    1    4    4    0    0 -0.63575761697E+01  0.20598767330E+03 -0.31876973742E+03  0.38076959677E+03  0.30000000000E+02 0.  1.
    -200000    1    3    3    0    0 -0.25320264715E+03 -0.24040902631E+03 -0.42288953282E+03  0.55762410047E+03  0.10100000000E+03 0. -1.
<mgrwt>
<rscale>  0 0.13652313E+04</rscale>
<asrwt>0</asrwt>
<pdfrwt beam="1">  1        2 0.39565147E+00 0.13652313E+04</pdfrwt>
<pdfrwt beam="2">  1       -2 0.24034974E-01 0.13652313E+04</pdfrwt>
<totfact> 0.47790026E+01</totfact>
</mgrwt>
</event>
<event>
 8    2  0.4480234E-052  0.1271503E+04  0.7818608E-02  0.9052474E-01
         -2   -1    0    0    0  501 -0.00000000000E+00  0.00000000000E+00  0.74398897135E+03  0.74398897135E+03  0.25500000000E-02 0. -1.
          2   -1    0    0  501    0  0.00000000000E+00 -0.00000000000E+00 -0.54326092797E+03  0.54326092797E+03  0.25500000000E-02 0.  1.
    -200001    2    1    2    0    0  0.31164865628E+02  0.15613358104E+03  0.45685776253E+02  0.63520998600E+03  0.61323371742E+03 0.  0.
   -5000001    2    3    3    0    0  0.44089137695E+02  0.12410579429E+03 -0.26505564763E+03  0.30664637200E+03  0.80196015368E+02 0.  0.
     200001    1    1    2    0    0 -0.31164865628E+02 -0.15613358104E+03  0.15504226713E+03  0.65203991333E+03  0.61300000000E+03 0. -1.
         13    1    4    4    0    0  0.93712600798E+01  0.10078537774E+03 -0.15461248447E+03  0.18479865908E+03  0.10566000000E+00 0.  1.
    -200003    1    4    4    0    0  0.34717877615E+02  0.23320416556E+02 -0.11044316316E+03  0.12184771291E+03  0.30000000000E+02 0.  1.
    -200000    1    3    3    0    0 -0.12924272067E+02  0.32027786744E+02  0.31074142388E+03  0.32856361400E+03  0.10100000000E+03 0. -1.
<mgrwt>
<rscale>  0 0.12715033E+04</rscale>
<asrwt>0</asrwt>
<pdfrwt beam="1">  1        2 0.77608704E-01 0.12715033E+04</pdfrwt>
<pdfrwt beam="2">  1       -2 0.10628414E+00 0.12715033E+04</pdfrwt>
<totfact> 0.42821023E+01</totfact>
</mgrwt>
</event>
<event>
 8    2  0.4480234E-052  0.1277001E+04  0.7818608E-02  0.9048005E-01
          2   -1    0    0  501    0  0.00000000000E+00  0.00000000000E+00  0.59781917046E+03  0.59781917046E+03  0.25500000000E-02 0.  1.
         -2   -1    0    0    0  501 -0.00000000000E+00 -0.00000000000E+00 -0.68195037833E+03  0.68195037833E+03  0.25500000000E-02 0. -1.
    -200001    2    1    2    0    0  0.83461361699E+02 -0.75292898962E+02  0.98282502621E+02  0.63040171674E+03  0.61246392108E+03 0.  0.
   -5000001    2    3    3    0    0  0.19948102481E+03  0.12888023546E+03 -0.12964629819E+03  0.28791117777E+03  0.98396591895E+02 0.  0.
     200001    1    1    2    0    0 -0.83461361699E+02  0.75292898962E+02 -0.18241371049E+03  0.64936783205E+03  0.61300000000E+03 0. -1.
         13    1    4    4    0    0  0.12171131715E+03  0.40734067124E+02 -0.32253969460E+02  0.13233759351E+03  0.10566000000E+00 0.  1.
    -200003    1    4    4    0    0  0.77769707661E+02  0.88146168336E+02 -0.97392328728E+02  0.15557358425E+03  0.30000000000E+02 0.  1.
    -200000    1    3    3    0    0 -0.11601966311E+03 -0.20417313442E+03  0.22792880081E+03  0.34249053898E+03  0.10100000000E+03 0.  1.
<mgrwt>
<rscale>  0 0.12770012E+04</rscale>
<asrwt>0</asrwt>
<pdfrwt beam="1">  1        2 0.85402739E-01 0.12770012E+04</pdfrwt>
<pdfrwt beam="2">  1       -2 0.97421482E-01 0.12770012E+04</pdfrwt>
<totfact> 0.47074720E+01</totfact>
</mgrwt>
</event>
<event>
 8    2  0.4480234E-052  0.2086269E+04  0.7818608E-02  0.8567316E-01
         -2   -1    0    0    0  501 -0.00000000000E+00  0.00000000000E+00  0.12561106988E+04  0.12561106988E+04  0.25500000000E-02 0. -1.
          2   -1    0    0  501    0  0.00000000000E+00 -0.00000000000E+00 -0.86626917088E+03  0.86626917089E+03  0.25500000000E-02 0.  1.
    -200001    2    1    2    0    0 -0.49024556830E+03 -0.48540006195E+03  0.68986904062E+03  0.11519472622E+04  0.61246164309E+03 0.  0.
   -5000001    2    3    3    0    0 -0.10945545282E+03 -0.49764482996E+03  0.41888221863E+03  0.67363156719E+03  0.13669785033E+03 0.  0.
     200001    1    1    2    0    0  0.49024556830E+03  0.48540006195E+03 -0.30002751269E+03  0.97043260752E+03  0.61300000000E+03 0.  1.
         13    1    4    4    0    0  0.22021803097E+02 -0.18569639949E+03  0.13212110710E+03  0.22896312083E+03  0.10566000000E+00 0.  1.
    -200003    1    4    4    0    0 -0.13147725592E+03 -0.31194843047E+03  0.28676111154E+03  0.44466844636E+03  0.30000000000E+02 0.  1.
    -200000    1    3    3    0    0 -0.38079011548E+03  0.12244768009E+02  0.27098682199E+03  0.47831569500E+03  0.10100000000E+03 0.  1.
<mgrwt>
<rscale>  0 0.20862694E+04</rscale>
<asrwt>0</asrwt>
<pdfrwt beam="1">  1        2 0.12375274E+00 0.20862694E+04</pdfrwt>
<pdfrwt beam="2">  1       -2 0.17944438E+00 0.20862694E+04</pdfrwt>
<totfact> 0.57991374E+00</totfact>
</mgrwt>
</event>
<event>
 8    2  0.4480234E-052  0.1331880E+04  0.7818608E-02  0.9004659E-01
          2   -1    0    0  501    0  0.00000000000E+00  0.00000000000E+00  0.92269088103E+03  0.92269088103E+03  0.25500000000E-02 0.  1.
         -2   -1    0    0    0  501 -0.00000000000E+00 -0.00000000000E+00 -0.48063314611E+03  0.48063314611E+03  0.25500000000E-02 0. -1.
    -200001    2    1    2    0    0 -0.18610729476E+03  0.17955595170E+03  0.18947407150E+03  0.69167539757E+03  0.61289327527E+03 0.  0.
   -5000001    2    3    3    0    0  0.15995767782E+03 -0.99214815032E+02  0.36022602794E+02  0.21081943277E+03  0.87847408081E+02 0.  0.
     200001    1    1    2    0    0  0.18610729476E+03 -0.17955595170E+03  0.25258366341E+03  0.71164862958E+03  0.61300000000E+03 0.  1.
         13    1    4    4    0    0  0.37000376723E+02 -0.67274143937E+02  0.69750800546E+01  0.77094106298E+02  0.10566000000E+00 0.  1.
    -200003    1    4    4    0    0  0.12295730110E+03 -0.31940671095E+02  0.29047522739E+02  0.13372532647E+03  0.30000000000E+02 0.  1.
    -200000    1    3    3    0    0 -0.34606497258E+03  0.27877076673E+03  0.15345146871E+03  0.48085596480E+03  0.10100000000E+03 0. -1.
<mgrwt>
<rscale>  0 0.13318796E+04</rscale>
<asrwt>0</asrwt>
<pdfrwt beam="1">  1        2 0.13181298E+00 0.13318796E+04</pdfrwt>
<pdfrwt beam="2">  1       -2 0.68661878E-01 0.13318796E+04</pdfrwt>
<totfact> 0.59683709E+01</totfact>
</mgrwt>
</event>
<event>
 8    2  0.4480234E-052  0.1742470E+04  0.7818608E-02  0.8737506E-01
         -2   -1    0    0    0  501 -0.00000000000E+00  0.00000000000E+00  0.24642666549E+03  0.24642666550E+03  0.25500000000E-02 0. -1.
          2   -1    0    0  501    0  0.00000000000E+00 -0.00000000000E+00 -0.30802268358E+04  0.30802268358E+04  0.25500000000E-02 0.  1.
    -200001    2    1    2    0    0 -0.24030942760E+03  0.46143421656E+03 -0.20576470530E+04  0.22091326654E+04  0.61293195493E+03 0.  0.
   -5000001    2    3    3    0    0  0.15841264557E+03  0.42011868284E+02 -0.50148634366E+03  0.54578316779E+03  0.13975389089E+03 0.  0.
     200001    1    1    2    0    0  0.24030942760E+03 -0.46143421656E+03 -0.77615311732E+03  0.11175208359E+04  0.61300000000E+03 0.  1.
         13    1    4    4    0    0  0.35595369415E+02  0.20329732494E+02 -0.16615045367E+02  0.44231202150E+02  0.10566000000E+00 0.  1.
    -200003    1    4    4    0    0  0.12281727615E+03  0.21682135790E+02 -0.48487129829E+03  0.50155196564E+03  0.30000000000E+02 0.  1.
    -200000    1    3    3    0    0 -0.39872207316E+03  0.41942234827E+03 -0.15561607093E+04  0.16633494976E+04  0.10100000000E+03 0. -1.
<mgrwt>
<rscale>  0 0.17424695E+04</rscale>
<asrwt>0</asrwt>
<pdfrwt beam="1">  1        2 0.44003238E+00 0.17424695E+04</pdfrwt>
<pdfrwt beam="2">  1       -2 0.35203811E-01 0.17424695E+04</pdfrwt>
<totfact> 0.15352965E+01</totfact>
</mgrwt>
</event>
<event>
 8    2  0.4480234E-052  0.1524459E+04  0.7818608E-02  0.8868349E-01
         -2   -1    0    0    0  501 -0.00000000000E+00  0.00000000000E+00  0.74473586845E+03  0.74473586845E+03  0.25500000000E-02 0. -1.
          2   -1    0    0  501    0  0.00000000000E+00 -0.00000000000E+00 -0.78013406250E+03  0.78013406250E+03  0.25500000000E-02 0.  1.
    -200001    2    1    2    0    0  0.17149509603E+03  0.12088358065E+03 -0.41949388683E+03  0.77166218455E+03  0.61275117131E+03 0.  0.
   -5000001    2    3    3    0    0  0.34398540820E+03  0.15099485481E+01 -0.40399128797E+03  0.53832915559E+03  0.90890472601E+02 0.  0.
     200001    1    1    2    0    0 -0.17149509603E+03 -0.12088358065E+03  0.38409569278E+03  0.75320774640E+03  0.61300000000E+03 0. -1.
         13    1    4    4    0    0  0.15259494312E+03  0.41142798320E+02 -0.18145023962E+03  0.24062864988E+03  0.10566000000E+00 0.  1.
    -200003    1    4    4    0    0  0.19139046508E+03 -0.39632849772E+02 -0.22254104835E+03  0.29770050571E+03  0.30000000000E+02 0.  1.
    -200000    1    3    3    0    0 -0.17249031216E+03  0.11937363210E+03 -0.15502598864E+02  0.23333302896E+03  0.10100000000E+03 0.  1.
<mgrwt>
<rscale>  0 0.15244590E+04</rscale>
<asrwt>0</asrwt>
<pdfrwt beam="1">  1        2 0.11144772E+00 0.15244590E+04</pdfrwt>
<pdfrwt beam="2">  1       -2 0.10639084E+00 0.15244590E+04</pdfrwt>
<totfact> 0.27027163E+01</totfact>
</mgrwt>
</event>
<event>
 8    2  0.4480234E-052  0.1483064E+04  0.7818608E-02  0.8895794E-01
         -2   -1    0    0    0  501 -0.00000000000E+00  0.00000000000E+00  0.25186384256E+03  0.25186384258E+03  0.25500000000E-02 0. -1.
          2   -1    0    0  501    0  0.00000000000E+00 -0.00000000000E+00 -0.21832020508E+04  0.21832020508E+04  0.25500000000E-02 0.  1.
    -200001    2    1    2    0    0 -0.15773475497E+03 -0.11505117214E+03 -0.36326690525E+03  0.74015184353E+03  0.61460953612E+03 0.  0.
   -5000001    2    3    3    0    0 -0.31709037131E+03 -0.21378738983E+03 -0.10028892607E+03  0.40177118410E+03  0.71490307388E+02 0.  0.
     200001    1    1    2    0    0  0.15773475497E+03  0.11505117214E+03 -0.15680713030E+04  0.16949140499E+04  0.61300000000E+03 0.  1.
         13    1    4    4    0    0 -0.22018465718E+03 -0.17102479194E+03 -0.77114025907E+02  0.28927036985E+03  0.10566000000E+00 0.  1.
    -200003    1    4    4    0    0 -0.96905714129E+02 -0.42762597890E+02 -0.23174900167E+02  0.11250081425E+03  0.30000000000E+02 0. -1.
    -200000    1    3    3    0    0  0.15935561634E+03  0.98736217699E+02 -0.26297797918E+03  0.33838065943E+03  0.10100000000E+03 0. -1.
<mgrwt>
<rscale>  0 0.14830639E+04</rscale>
<asrwt>0</asrwt>
<pdfrwt beam="1">  1        2 0.31188600E+00 0.14830639E+04</pdfrwt>
<pdfrwt beam="2">  1       -2 0.35980550E-01 0.14830639E+04</pdfrwt>
<totfact> 0.45428730E+01</totfact>
</mgrwt>
</event>
<event>
 8    2  0.4480234E-052  0.1465659E+04  0.7818608E-02  0.8907616E-01
         -2   -1    0    0    0  501 -0.00000000000E+00  0.00000000000E+00  0.19512679118E+03  0.19512679119E+03  0.25500000000E-02 0. -1.
          2   -1    0    0  501    0  0.00000000000E+00 -0.00000000000E+00 -0.27522583518E+04  0.27522583518E+04  0.25500000000E-02 0.  1.
    -200001    2    1    2    0    0 -0.11020083559E+03 -0.29672254624E+03 -0.78196183229E+03  0.10428681286E+04  0.61312407631E+03 0.  0.
   -5000001    2    3    3    0    0 -0.89104049278E+02 -0.38865903491E+02  0.70561028400E+02  0.14624593919E+03  0.83420177112E+02 0.  0.
     200001    1    1    2    0    0  0.11020083559E+03  0.29672254624E+03 -0.17751697284E+04  0.19045170144E+04  0.61300000000E+03 0.  1.
         13    1    4    4    0    0 -0.15965002075E+01  0.97557623632E+01  0.34190817449E+02  0.35591387639E+02  0.10566000000E+00 0.  1.
    -200003    1    4    4    0    0 -0.87507549071E+02 -0.48621665855E+02  0.36370210951E+02  0.11065455155E+03  0.30000000000E+02 0.  1.
    -200000    1    3    3    0    0 -0.21096786310E+02 -0.25785664274E+03 -0.85252286069E+03  0.89662218944E+03  0.10100000000E+03 0.  1.
<mgrwt>
<rscale>  0 0.14656594E+04</rscale>
<asrwt>0</asrwt>
<pdfrwt beam="1">  1        2 0.39317974E+00 0.14656594E+04</pdfrwt>
<pdfrwt beam="2">  1       -2 0.27875258E-01 0.14656594E+04</pdfrwt>
<totfact> 0.36953072E+01</totfact>
</mgrwt>
</event>
<event>
 8    2  0.4480234E-052  0.1334625E+04  0.7818608E-02  0.9002549E-01
          2   -1    0    0  501    0  0.00000000000E+00  0.00000000000E+00  0.17162027089E+04  0.17162027089E+04  0.25500000000E-02 0.  1.
         -2   -1    0    0    0  501 -0.00000000000E+00 -0.00000000000E+00 -0.25947171361E+03  0.25947171362E+03  0.25500000000E-02 0. -1.
    -200001    2    1    2    0    0 -0.16775465496E+03  0.74059842530E+02  0.44729799342E+03  0.78053825046E+03  0.61281153789E+03 0.  0.
   -5000001    2    3    3    0    0  0.10810990172E+03 -0.16379000118E+03  0.17565535281E+03  0.31506588181E+03  0.17290688699E+03 0.  0.
     200001    1    1    2    0    0  0.16775465496E+03 -0.74059842530E+02  0.10094330019E+04  0.11951361721E+04  0.61300000000E+03 0.  1.
         13    1    4    4    0    0 -0.11660323741E+02 -0.74030891948E+01  0.10153989153E+03  0.10247501947E+03  0.10566000000E+00 0.  1.
    -200003    1    4    4    0    0  0.11977022546E+03 -0.15638691199E+03  0.74115461284E+02  0.21259086234E+03  0.30000000000E+02 0.  1.
    -200000    1    3    3    0    0 -0.27586455668E+03  0.23784984371E+03  0.27164264060E+03  0.46547236865E+03  0.10100000000E+03 0. -1.
<mgrwt>
<rscale>  0 0.13346251E+04</rscale>
<asrwt>0</asrwt>
<pdfrwt beam="1">  1        2 0.24517181E+00 0.13346251E+04</pdfrwt>
<pdfrwt beam="2">  1       -2 0.37067389E-01 0.13346251E+04</pdfrwt>
<totfact> 0.75472090E+01</totfact>
</mgrwt>
</event>
<event>
 8    2  0.4480234E-052  0.1703986E+04  0.7818608E-02  0.8759094E-01
          2   -1    0    0  501    0  0.00000000000E+00  0.00000000000E+00  0.15883267106E+04  0.15883267106E+04  0.25500000000E-02 0.  1.
         -2   -1    0    0    0  501 -0.00000000000E+00 -0.00000000000E+00 -0.45701676662E+03  0.45701676662E+03  0.25500000000E-02 0. -1.
    -200001    2    1    2    0    0  0.31053593896E+03 -0.46053825455E+03  0.32076809071E+03  0.88720913734E+03  0.61295989434E+03 0.  0.
   -5000001    2    3    3    0    0  0.19445814721E+01 -0.25000117454E+03 -0.13001257189E+03  0.29310586875E+03  0.80643739844E+02 0.  0.
     200001    1    1    2    0    0 -0.31053593896E+03  0.46053825455E+03  0.81054185322E+03  0.11581343398E+04  0.61300000000E+03 0.  1.
         13    1    4    4    0    0 -0.13166978178E+02 -0.69981595872E+02 -0.50153675396E+01  0.71385980071E+02  0.10566000000E+00 0.  1.
    -200003    1    4    4    0    0  0.15111559650E+02 -0.18001957867E+03 -0.12499720435E+03  0.22171988867E+03  0.30000000000E+02 0.  1.
    -200000    1    3    3    0    0  0.30859135749E+03 -0.21053708001E+03  0.45078066260E+03  0.59410326859E+03  0.10100000000E+03 0.  1.
<mgrwt>
<rscale>  0 0.17039858E+04</rscale>
<asrwt>0</asrwt>
<pdfrwt beam="1">  1        2 0.22690382E+00 0.17039858E+04</pdfrwt>
<pdfrwt beam="2">  1       -2 0.65288109E-01 0.17039858E+04</pdfrwt>
<totfact> 0.27064963E+01</totfact>
</mgrwt>
</event>
<event>
 8    2  0.4480234E-052  0.1457664E+04  0.7818608E-02  0.8913105E-01
          2   -1    0    0  501    0  0.00000000000E+00  0.00000000000E+00  0.13100926791E+04  0.13100926791E+04  0.25500000000E-02 0.  1.
         -2   -1    0    0    0  501 -0.00000000000E+00 -0.00000000000E+00 -0.40546426790E+03  0.40546426790E+03  0.25500000000E-02 0. -1.
    -200001    2    1    2    0    0 -0.35513897779E+03 -0.16775637660E+03  0.44021855154E+03  0.85201110967E+03  0.61470697283E+03 0.  0.
   -5000001    2    3    3    0    0 -0.38084142261E+03 -0.34810452875E+03  0.32927850138E+03  0.61601372327E+03  0.69509881859E+02 0.  0.
     200001    1    1    2    0    0  0.35513897779E+03  0.16775637660E+03  0.46440985967E+03  0.86354583734E+03  0.61300000000E+03 0.  1.
         13    1    4    4    0    0 -0.93390020236E+02 -0.10514868251E+03  0.11649410518E+03  0.18261661759E+03  0.10566000000E+00 0.  1.
    -200003    1    4    4    0    0 -0.28745140238E+03 -0.24295584624E+03  0.21278439620E+03  0.43339710568E+03  0.30000000000E+02 0. -1.
    -200000    1    3    3    0    0  0.25702444829E+02  0.18034815215E+03  0.11094005016E+03  0.23599738640E+03  0.10100000000E+03 0. -1.
<mgrwt>
<rscale>  0 0.14576636E+04</rscale>
<asrwt>0</asrwt>
<pdfrwt beam="1">  1        2 0.18715610E+00 0.14576636E+04</pdfrwt>
<pdfrwt beam="2">  1       -2 0.57923467E-01 0.14576636E+04</pdfrwt>
<totfact> 0.50177490E+01</totfact>
</mgrwt>
</event>
<event>
 8    2  0.4480234E-052  0.1514196E+04  0.7818608E-02  0.8875067E-01
         -2   -1    0    0    0  501 -0.00000000000E+00  0.00000000000E+00  0.23952086256E+03  0.23952086257E+03  0.25500000000E-02 0. -1.
          2   -1    0    0  501    0  0.00000000000E+00 -0.00000000000E+00 -0.23931012500E+04  0.23931012500E+04  0.25500000000E-02 0.  1.
    -200001    2    1    2    0    0 -0.47679777169E+02 -0.44006367284E+03 -0.11659155087E+04  0.13887650830E+04  0.61104834918E+03 0.  0.
   -5000001    2    3    3    0    0  0.13784587558E+03  0.92815362102E+02 -0.28237421286E+03  0.33556706973E+03  0.72483690182E+02 0.  0.
     200001    1    1    2    0    0  0.47679777169E+02  0.44006367284E+03 -0.98766487871E+03  0.12438570295E+04  0.61300000000E+03 0.  1.
         13    1    4    4    0    0  0.10745696974E+02 -0.40167225524E+01 -0.22608562030E+01  0.11693019214E+02  0.10566000000E+00 0.  1.
    -200003    1    4    4    0    0  0.12710017861E+03  0.96832084654E+02 -0.28011335666E+03  0.32387405052E+03  0.30000000000E+02 0.  1.
    -200000    1    3    3    0    0 -0.18552565275E+03 -0.53287903494E+03 -0.88354129583E+03  0.10531980133E+04  0.10100000000E+03 0. -1.
<mgrwt>
<rscale>  0 0.15141964E+04</rscale>
<asrwt>0</asrwt>
<pdfrwt beam="1">  1        2 0.34187159E+00 0.15141964E+04</pdfrwt>
<pdfrwt beam="2">  1       -2 0.34217268E-01 0.15141964E+04</pdfrwt>
<totfact> 0.38835858E+01</totfact>
</mgrwt>
</event>
<event>
 8    2  0.4480234E-052  0.2240221E+04  0.7818608E-02  0.8501871E-01
          2   -1    0    0  501    0  0.00000000000E+00  0.00000000000E+00  0.17716388267E+04  0.17716388267E+04  0.25500000000E-02 0.  1.
         -2   -1    0    0    0  501 -0.00000000000E+00 -0.00000000000E+00 -0.70818487247E+03  0.70818487247E+03  0.25500000000E-02 0. -1.
    -200001    2    1    2    0    0 -0.58320550597E+03 -0.38487926780E+03 -0.15934030101E+03  0.94383688164E+03  0.61414820251E+03 0.  0.
   -5000001    2    3    3    0    0 -0.43338748407E+03  0.45616440542E+02  0.49292984112E+01  0.44890507232E+03  0.10763779528E+03 0.  0.
     200001    1    1    2    0    0  0.58320550597E+03  0.38487926780E+03  0.12227942552E+04  0.15359868175E+04  0.61300000000E+03 0. -1.
         13    1    4    4    0    0 -0.32649889618E+03  0.28455992880E+02 -0.35186399837E+02  0.32962003373E+03  0.10566000000E+00 0.  1.
    -200003    1    4    4    0    0 -0.10688858789E+03  0.17160447661E+02  0.40115698248E+02  0.11928503859E+03  0.30000000000E+02 0. -1.
    -200000    1    3    3    0    0 -0.14981802190E+03 -0.43049570834E+03 -0.16426959942E+03  0.49493180932E+03  0.10100000000E+03 0. -1.
<mgrwt>
<rscale>  0 0.22402213E+04</rscale>
<asrwt>0</asrwt>
<pdfrwt beam="1">  1        2 0.25309126E+00 0.22402213E+04</pdfrwt>
<pdfrwt beam="2">  1       -2 0.10116927E+00 0.22402213E+04</pdfrwt>
<totfact> 0.77453130E+00</totfact>
</mgrwt>
</event>
<event>
 8    2  0.4480234E-052  0.1887850E+04  0.7818608E-02  0.8660928E-01
         -2   -1    0    0    0  501 -0.00000000000E+00  0.00000000000E+00  0.74703857774E+03  0.74703857775E+03  0.25500000000E-02 0. -1.
          2   -1    0    0  501    0  0.00000000000E+00 -0.00000000000E+00 -0.11927019827E+04  0.11927019827E+04  0.25500000000E-02 0.  1.
    -200001    2    1    2    0    0  0.66744983241E+03 -0.16431916324E+03 -0.10928278690E+02  0.92128403402E+03  0.61331458312E+03 0.  0.
   -5000001    2    3    3    0    0  0.19208016904E+03 -0.26217066675E+03 -0.20336519505E+03  0.38950945737E+03  0.68789279539E+02 0.  0.
     200001    1    1    2    0    0 -0.66744983241E+03  0.16431916324E+03 -0.43473512625E+03  0.10184565264E+04  0.61300000000E+03 0.  1.
         13    1    4    4    0    0  0.15743325146E+03 -0.21133380780E+03 -0.16723184597E+03  0.31211169228E+03  0.10566000000E+00 0.  1.
    -200003    1    4    4    0    0  0.34646917579E+02 -0.50836858945E+02 -0.36133349081E+02  0.77397765090E+02  0.30000000000E+02 0. -1.
    -200000    1    3    3    0    0  0.47536966337E+03  0.97851503512E+02  0.19243691636E+03  0.53177457665E+03  0.10100000000E+03 0. -1.
<mgrwt>
<rscale>  0 0.18878500E+04</rscale>
<asrwt>0</asrwt>
<pdfrwt beam="1">  1        2 0.17038600E+00 0.18878500E+04</pdfrwt>
<pdfrwt beam="2">  1       -2 0.10671980E+00 0.18878500E+04</pdfrwt>
<totfact> 0.14352180E+01</totfact>
</mgrwt>
</event>
<event>
 8    2  0.4480234E-052  0.1490869E+04  0.7818608E-02  0.8890548E-01
         -2   -1    0    0    0  501 -0.00000000000E+00  0.00000000000E+00  0.56531432425E+03  0.56531432426E+03  0.25500000000E-02 0. -1.
          2   -1    0    0  501    0  0.00000000000E+00 -0.00000000000E+00 -0.98294416248E+03  0.98294416249E+03  0.25500000000E-02 0.  1.
    -200001    2    1    2    0    0  0.39977358968E+03  0.51146404161E+02 -0.71134312898E+02  0.73692438371E+03  0.61283160751E+03 0.  0.
   -5000001    2    3    3    0    0  0.24734107665E+03 -0.38247611346E+02 -0.23784864908E+03  0.47382434394E+03  0.32449505554E+03 0.  0.
     200001    1    1    2    0    0 -0.39977358968E+03 -0.51146404161E+02 -0.34649552533E+03  0.81133410303E+03  0.61300000000E+03 0.  1.
         13    1    4    4    0    0  0.10916513717E+03  0.97815463306E+02 -0.23572868556E+03  0.27758407086E+03  0.10566000000E+00 0.  1.
    -200003    1    4    4    0    0  0.13817593948E+03 -0.13606307465E+03 -0.21199635256E+01  0.19624027309E+03  0.30000000000E+02 0.  1.
    -200000    1    3    3    0    0  0.15243251303E+03  0.89394015507E+02  0.16671433618E+03  0.26310003977E+03  0.10100000000E+03 0. -1.
<mgrwt>
<rscale>  0 0.14908688E+04</rscale>
<asrwt>0</asrwt>
<pdfrwt beam="1">  1        2 0.14042059E+00 0.14908688E+04</pdfrwt>
<pdfrwt beam="2">  1       -2 0.80759189E-01 0.14908688E+04</pdfrwt>
<totfact> 0.37731195E+01</totfact>
</mgrwt>
</event>
<event>
 8    2  0.4480234E-052  0.1512844E+04  0.7818608E-02  0.8875956E-01
         -2   -1    0    0    0  501 -0.00000000000E+00  0.00000000000E+00  0.46367246313E+03  0.46367246313E+03  0.25500000000E-02 0.  1.
          2   -1    0    0  501    0  0.00000000000E+00 -0.00000000000E+00 -0.12340056846E+04  0.12340056846E+04  0.25500000000E-02 0. -1.
    -200001    2    1    2    0    0 -0.33024806548E+03  0.28636007231E+03 -0.34791384434E+03  0.83438618906E+03  0.61975026715E+03 0.  0.
   -5000001    2    3    3    0    0 -0.55703866709E+02  0.20362673171E+03 -0.40636959146E+03  0.52481003187E+03  0.25636411225E+03 0.  0.
     200001    1    1    2    0    0  0.33024806548E+03 -0.28636007231E+03 -0.42241937715E+03  0.86329195871E+03  0.61300000000E+03 0.  1.
         13    1    4    4    0    0  0.87163821071E+02  0.10820069715E+02 -0.13770844873E+03  0.16333472879E+03  0.10566000000E+00 0.  1.
    -200003    1    4    4    0    0 -0.14286768778E+03  0.19280666200E+03 -0.26866114273E+03  0.36147530308E+03  0.30000000000E+02 0.  1.
    -200000    1    3    3    0    0 -0.27454419877E+03  0.82733340600E+02  0.58455747123E+02  0.30957615719E+03  0.10100000000E+03 0.  1.
<mgrwt>
<rscale>  0 0.15128443E+04</rscale>
<asrwt>0</asrwt>
<pdfrwt beam="1">  1        2 0.17628652E+00 0.15128443E+04</pdfrwt>
<pdfrwt beam="2">  1       -2 0.66238924E-01 0.15128443E+04</pdfrwt>
<totfact> 0.41430977E+01</totfact>
</mgrwt>
</event>
<event>
 8    2  0.4480234E-052  0.1764715E+04  0.7818608E-02  0.8725292E-01
         -2   -1    0    0    0  501 -0.00000000000E+00  0.00000000000E+00  0.51712633622E+03  0.51712633622E+03  0.25500000000E-02 0. -1.
          2   -1    0    0  501    0  0.00000000000E+00 -0.00000000000E+00 -0.15055409508E+04  0.15055409508E+04  0.25500000000E-02 0.  1.
    -200001    2    1    2    0    0  0.56816282376E+03  0.22419176959E+03 -0.69255305460E+03  0.11081324290E+04  0.61258207858E+03 0.  0.
   -5000001    2    3    3    0    0  0.53771331258E+03  0.32479317390E+03 -0.66430526225E+03  0.95965093842E+03  0.29155141883E+03 0.  0.
     200001    1    1    2    0    0 -0.56816282376E+03 -0.22419176959E+03 -0.29586156003E+03  0.91453485803E+03  0.61300000000E+03 0.  1.
         13    1    4    4    0    0  0.12982684253E+03 -0.46224956375E+02 -0.16703778119E+03  0.21654881007E+03  0.10566000000E+00 0.  1.
    -200003    1    4    4    0    0  0.40788647004E+03  0.37101813028E+03 -0.49726748106E+03  0.74310212835E+03  0.30000000000E+02 0.  1.
    -200000    1    3    3    0    0  0.30449511180E+02 -0.10060140432E+03 -0.28247792345E+02  0.14848149061E+03  0.10100000000E+03 0. -1.
<mgrwt>
<rscale>  0 0.17647151E+04</rscale>
<asrwt>0</asrwt>
<pdfrwt beam="1">  1        2 0.21507728E+00 0.17647151E+04</pdfrwt>
<pdfrwt beam="2">  1       -2 0.73875192E-01 0.17647151E+04</pdfrwt>
<totfact> 0.22762226E+01</totfact>
</mgrwt>
</event>
<event>
 8    2  0.4480234E-052  0.1495094E+04  0.7818608E-02  0.8887722E-01
          2   -1    0    0  501    0  0.00000000000E+00  0.00000000000E+00  0.99846764764E+03  0.99846764764E+03  0.25500000000E-02 0.  1.
         -2   -1    0    0    0  501 -0.00000000000E+00 -0.00000000000E+00 -0.55968413246E+03  0.55968413246E+03  0.25500000000E-02 0. -1.
    -200001    2    1    2    0    0 -0.20891078671E+03  0.15992752892E+03  0.57276238038E+03  0.87775493442E+03  0.61088169821E+03 0.  0.
   -5000001    2    3    3    0    0 -0.33293555392E+01  0.83095532292E+02  0.61995406649E+03  0.63159454811E+03  0.87479577906E+02 0.  0.
     200001    1    1    2    0    0  0.20891078671E+03 -0.15992752892E+03 -0.13397886520E+03  0.68039684569E+03  0.61300000000E+03 0. -1.
         13    1    4    4    0    0 -0.27459015123E+02 -0.12707276246E+01  0.11949503337E+03  0.12261601210E+03  0.10566000000E+00 0.  1.
    -200003    1    4    4    0    0  0.24129659584E+02  0.84366259917E+02  0.50045903312E+03  0.50897853601E+03  0.30000000000E+02 0.  1.
    -200000    1    3    3    0    0 -0.20558143117E+03  0.76831996625E+02 -0.47191686114E+02  0.24616038630E+03  0.10100000000E+03 0. -1.
<mgrwt>
<rscale>  0 0.14950940E+04</rscale>
<asrwt>0</asrwt>
<pdfrwt beam="1">  1        2 0.14263823E+00 0.14950940E+04</pdfrwt>
<pdfrwt beam="2">  1       -2 0.79954877E-01 0.14950940E+04</pdfrwt>
<totfact> 0.37730953E+01</totfact>
</mgrwt>
</event>
<event>
 8    2  0.4480234E-052  0.1279345E+04  0.7818608E-02  0.9046107E-01
         -2   -1    0    0    0  501 -0.00000000000E+00  0.00000000000E+00  0.23344313557E+03  0.23344313558E+03  0.25500000000E-02 0. -1.
          2   -1    0    0  501    0  0.00000000000E+00 -0.00000000000E+00 -0.17528089599E+04  0.17528089599E+04  0.25500000000E-02 0.  1.
    -200001    2    1    2    0    0 -0.22440271788E+02  0.13686141087E+03 -0.94279422808E+03  0.11333520913E+04  0.61350745283E+03 0.  0.
   -5000001    2    3    3    0    0 -0.24920081566E+03 -0.70106041904E+02 -0.25225132092E+03  0.37091758431E+03  0.83265970279E+02 0.  0.
     200001    1    1    2    0    0  0.22440271788E+02 -0.13686141087E+03 -0.57657159623E+03  0.85290000420E+03  0.61300000000E+03 0.  1.
         13    1    4    4    0    0 -0.86357333145E+00 -0.14463235125E+02 -0.22416287235E+02  0.26691422342E+02  0.10566000000E+00 0.  1.
    -200003    1    4    4    0    0 -0.24833724233E+03 -0.55642806778E+02 -0.22983503368E+03  0.34422616196E+03  0.30000000000E+02 0.  1.
    -200000    1    3    3    0    0  0.22676054387E+03  0.20696745277E+03 -0.69054290717E+03  0.76243450696E+03  0.10100000000E+03 0.  1.
<mgrwt>
<rscale>  0 0.12793455E+04</rscale>
<asrwt>0</asrwt>
<pdfrwt beam="1">  1        2 0.25040127E+00 0.12793455E+04</pdfrwt>
<pdfrwt beam="2">  1       -2 0.33349020E-01 0.12793455E+04</pdfrwt>
<totfact> 0.88775271E+01</totfact>
</mgrwt>
</event>
<event>
 8    2  0.4480234E-052  0.1331336E+04  0.7818608E-02  0.9005078E-01
         -2   -1    0    0    0  501 -0.00000000000E+00  0.00000000000E+00  0.46478820264E+03  0.46478820264E+03  0.25500000000E-02 0. -1.
          2   -1    0    0  501    0  0.00000000000E+00 -0.00000000000E+00 -0.95336667650E+03  0.95336667650E+03  0.25500000000E-02 0.  1.
    -200001    2    1    2    0    0 -0.25602517534E+03  0.35152789854E+02 -0.26972291900E+03  0.71783255126E+03  0.61298328653E+03 0.  0.
   -5000001    2    3    3    0    0  0.27050394784E+02 -0.14347534410E+03  0.10460678897E+03  0.20561822218E+03  0.10009682697E+03 0.  0.
     200001    1    1    2    0    0  0.25602517534E+03 -0.35152789854E+02 -0.21885555486E+03  0.70032232789E+03  0.61300000000E+03 0.  1.
         13    1    4    4    0    0  0.56630914605E+02 -0.97354454892E+02  0.81466830211E+02  0.13900289912E+03  0.10566000000E+00 0.  1.
    -200003    1    4    4    0    0 -0.29580519820E+02 -0.46120889211E+02  0.23139958762E+02  0.66615323057E+02  0.30000000000E+02 0.  1.
    -200000    1    3    3    0    0 -0.28307557012E+03  0.17862813396E+03 -0.37432970797E+03  0.51221432908E+03  0.10100000000E+03 0. -1.
<mgrwt>
<rscale>  0 0.13313355E+04</rscale>
<asrwt>0</asrwt>
<pdfrwt beam="1">  1        2 0.13619524E+00 0.13313355E+04</pdfrwt>
<pdfrwt beam="2">  1       -2 0.66398315E-01 0.13313355E+04</pdfrwt>
<totfact> 0.61345432E+01</totfact>
</mgrwt>
</event>
<event>
 8    2  0.4480234E-052  0.1573429E+04  0.7818608E-02  0.8837040E-01
         -2   -1    0    0    0  501 -0.00000000000E+00  0.00000000000E+00  0.18704727665E+03  0.18704727667E+03  0.25500000000E-02 0. -1.
          2   -1    0    0  501    0  0.00000000000E+00 -0.00000000000E+00 -0.33088927579E+04  0.33088927579E+04  0.25500000000E-02 0.  1.
    -200001    2    1    2    0    0 -0.55156388973E+02 -0.40179291637E+03 -0.93683761812E+03  0.11906183354E+04  0.61272140724E+03 0.  0.
   -5000001    2    3    3    0    0 -0.20792924192E+03 -0.37017602380E+03 -0.90393849692E+03  0.10018790319E+04  0.79949547484E+02 0.  0.
     200001    1    1    2    0    0  0.55156388973E+02  0.40179291637E+03 -0.21850078631E+04  0.23053216992E+04  0.61300000000E+03 0.  1.
         13    1    4    4    0    0 -0.23957340724E+02 -0.84213546296E+02 -0.13966228310E+03  0.16483761719E+03  0.10566000000E+00 0.  1.
    -200003    1    4    4    0    0 -0.18397190119E+03 -0.28596247750E+03 -0.76427621381E+03  0.83704141473E+03  0.30000000000E+02 0.  1.
    -200000    1    3    3    0    0  0.15277285294E+03 -0.31616892572E+02 -0.32899121208E+02  0.18873930345E+03  0.10100000000E+03 0. -1.
<mgrwt>
<rscale>  0 0.15734286E+04</rscale>
<asrwt>0</asrwt>
<pdfrwt beam="1">  1        2 0.47269893E+00 0.15734286E+04</pdfrwt>
<pdfrwt beam="2">  1       -2 0.26721041E-01 0.15734286E+04</pdfrwt>
<totfact> 0.19288921E+01</totfact>
</mgrwt>
</event>
<event>
 8    2  0.4480234E-052  0.1342635E+04  0.7818608E-02  0.8996422E-01
          2   -1    0    0  501    0  0.00000000000E+00  0.00000000000E+00  0.92744160245E+03  0.92744160245E+03  0.25500000000E-02 0.  1.
         -2   -1    0    0    0  501 -0.00000000000E+00 -0.00000000000E+00 -0.48592517013E+03  0.48592517013E+03  0.25500000000E-02 0. -1.
    -200001    2    1    2    0    0 -0.60987985481E+02 -0.23682343586E+03  0.92244744904E+02  0.66666429785E+03  0.61329219702E+03 0.  0.
   -5000001    2    3    3    0    0 -0.98648535275E+02 -0.34429171442E+03  0.25186822001E+03  0.44610047100E+03  0.85438351156E+02 0.  0.
     200001    1    1    2    0    0  0.60987985481E+02  0.23682343586E+03  0.34927168742E+03  0.74670247473E+03  0.61300000000E+03 0. -1.
         13    1    4    4    0    0 -0.51697902966E+02 -0.12369184706E+03  0.53851100031E+02  0.14447248298E+03  0.10566000000E+00 0.  1.
    -200003    1    4    4    0    0 -0.46950632309E+02 -0.22059986736E+03  0.19801711998E+03  0.30162798803E+03  0.30000000000E+02 0.  1.
    -200000    1    3    3    0    0  0.37660549794E+02  0.10746827856E+03 -0.15962347511E+03  0.22056382685E+03  0.10100000000E+03 0. -1.
<mgrwt>
<rscale>  0 0.13426350E+04</rscale>
<asrwt>0</asrwt>
<pdfrwt beam="1">  1        2 0.13249166E+00 0.13426350E+04</pdfrwt>
<pdfrwt beam="2">  1       -2 0.69417881E-01 0.13426350E+04</pdfrwt>
<totfact> 0.57825130E+01</totfact>
</mgrwt>
</event>
<event>
 8    2  0.4480234E-052  0.1548275E+04  0.7818608E-02  0.8852970E-01
         -2   -1    0    0    0  501 -0.00000000000E+00  0.00000000000E+00  0.91265819276E+03  0.91265819276E+03  0.25500000000E-02 0. -1.
          2   -1    0    0  501    0  0.00000000000E+00 -0.00000000000E+00 -0.65664090264E+03  0.65664090265E+03  0.25500000000E-02 0.  1.
    -200001    2    1    2    0    0  0.21259423762E+03 -0.27944518078E+02 -0.29852561028E+03  0.71532952081E+03  0.61367872489E+03 0.  0.
   -5000001    2    3    3    0    0  0.30239977178E+03  0.16851166770E+03 -0.15945106894E+03  0.43928098351E+03  0.21840635284E+03 0.  0.
     200001    1    1    2    0    0 -0.21259423762E+03  0.27944518078E+02  0.55454290040E+03  0.85396957460E+03  0.61300000000E+03 0. -1.
         13    1    4    4    0    0  0.13470920294E+03  0.54150828845E+02  0.42610857121E+02  0.15130954342E+03  0.10566000000E+00 0.  1.
    -200003    1    4    4    0    0  0.16769056884E+03  0.11436083885E+03 -0.20206192606E+03  0.28797144009E+03  0.30000000000E+02 0.  1.
    -200000    1    3    3    0    0 -0.89805534165E+02 -0.19645618578E+03 -0.13907454134E+03  0.27604853730E+03  0.10100000000E+03 0. -1.
<mgrwt>
<rscale>  0 0.15482748E+04</rscale>
<asrwt>0</asrwt>
<pdfrwt beam="1">  1        2 0.93805844E-01 0.15482748E+04</pdfrwt>
<pdfrwt beam="2">  1       -2 0.13037974E+00 0.15482748E+04</pdfrwt>
<totfact> 0.20242864E+01</totfact>
</mgrwt>
</event>
<event>
 8    2  0.4480234E-052  0.2969469E+04  0.7818608E-02  0.8252503E-01
          2   -1    0    0  501    0  0.00000000000E+00  0.00000000000E+00  0.32356184751E+04  0.32356184751E+04  0.25500000000E-02 0.  1.
         -2   -1    0    0    0  501 -0.00000000000E+00 -0.00000000000E+00 -0.68130297890E+03  0.68130297891E+03  0.25500000000E-02 0. -1.
    -200001    2    1    2    0    0  0.11747924740E+04  0.64245578397E+02  0.21566597243E+04  0.25319434888E+04  0.61261065342E+03 0.  0.
   -5000001    2    3    3    0    0  0.36674354329E+03  0.26552904759E+03  0.10265151031E+04  0.11245039788E+04  0.75956828842E+02 0.  0.
     200001    1    1    2    0    0 -0.11747924740E+04 -0.64245578397E+02  0.39765577184E+03  0.13849779652E+04  0.61300000000E+03 0. -1.
         13    1    4    4    0    0  0.24289236086E+03  0.17464939414E+03  0.60642750805E+03  0.67620517857E+03  0.10566000000E+00 0.  1.
    -200003    1    4    4    0    0  0.12385118243E+03  0.90879653451E+02  0.42008759502E+03  0.44829880023E+03  0.30000000000E+02 0.  1.
    -200000    1    3    3    0    0  0.80804893067E+03 -0.20128346919E+03  0.11301446213E+04  0.14074395100E+04  0.10100000000E+03 0.  1.
<mgrwt>
<rscale>  0 0.29694690E+04</rscale>
<asrwt>0</asrwt>
<pdfrwt beam="1">  1        2 0.46223121E+00 0.29694690E+04</pdfrwt>
<pdfrwt beam="2">  1       -2 0.97328998E-01 0.29694690E+04</pdfrwt>
<totfact> 0.13151087E+00</totfact>
</mgrwt>
</event>
<event>
 8    2  0.4480234E-052  0.1559270E+04  0.7818608E-02  0.8845968E-01
         -2   -1    0    0    0  501 -0.00000000000E+00  0.00000000000E+00  0.21543474583E+04  0.21543474583E+04  0.25500000000E-02 0. -1.
          2   -1    0    0  501    0  0.00000000000E+00 -0.00000000000E+00 -0.28214163565E+03  0.28214163566E+03  0.25500000000E-02 0.  1.
    -200001    2    1    2    0    0  0.10189048799E+02  0.94008324647E+02  0.19775706564E+03  0.65085502685E+03  0.61283197301E+03 0.  0.
   -5000001    2    3    3    0    0  0.96653614059E+01 -0.23022129542E+03 -0.26632226517E+02  0.24382102924E+03  0.75127589702E+02 0.  0.
     200001    1    1    2    0    0 -0.10189048799E+02 -0.94008324647E+02  0.16744487570E+04  0.17856340671E+04  0.61300000000E+03 0. -1.
         13    1    4    4    0    0 -0.23283811279E+02 -0.38092193495E+02  0.10606328306E+01  0.44657442594E+02  0.10566000000E+00 0.  1.
    -200003    1    4    4    0    0  0.32949172685E+02 -0.19212910192E+03 -0.27692859347E+02  0.19916358664E+03  0.30000000000E+02 0.  1.
    -200000    1    3    3    0    0  0.52368739275E+00  0.32422962006E+03  0.22438929216E+03  0.40703399761E+03  0.10100000000E+03 0.  1.
<mgrwt>
<rscale>  0 0.15592705E+04</rscale>
<asrwt>0</asrwt>
<pdfrwt beam="1">  1        2 0.40305949E-01 0.15592705E+04</pdfrwt>
<pdfrwt beam="2">  1       -2 0.30776392E+00 0.15592705E+04</pdfrwt>
<totfact> 0.35197211E+00</totfact>
</mgrwt>
</event>
<event>
 8    2  0.4480234E-052  0.1294690E+04  0.7818608E-02  0.9033787E-01
          2   -1    0    0  501    0  0.00000000000E+00  0.00000000000E+00  0.10400485079E+04  0.10400485079E+04  0.25500000000E-02 0.  1.
         -2   -1    0    0    0  501 -0.00000000000E+00 -0.00000000000E+00 -0.40291933460E+03  0.40291933461E+03  0.25500000000E-02 0. -1.
    -200001    2    1    2    0    0 -0.20164840114E+03 -0.11726768144E+02  0.36579291977E+03  0.74283074363E+03  0.61416077598E+03 0.  0.
   -5000001    2    3    3    0    0 -0.33887748393E+03  0.14656711202E+03  0.34351259485E+03  0.50919387467E+03  0.70410451911E+02 0.  0.
     200001    1    1    2    0    0  0.20164840114E+03  0.11726768144E+02  0.27133625355E+03  0.70013709891E+03  0.61300000000E+03 0. -1.
         13    1    4    4    0    0 -0.14115110313E+03  0.85615542617E+02  0.12765164188E+03  0.20868303211E+03  0.10566000000E+00 0.  1.
    -200003    1    4    4    0    0 -0.19772638080E+03  0.60951569398E+02  0.21586095297E+03  0.30051084256E+03  0.30000000000E+02 0.  1.
    -200000    1    3    3    0    0  0.13722908279E+03 -0.15829388016E+03  0.22280324921E+02  0.23363686896E+03  0.10100000000E+03 0.  1.
<mgrwt>
<rscale>  0 0.12946902E+04</rscale>
<asrwt>0</asrwt>
<pdfrwt beam="1">  1        2 0.14857836E+00 0.12946902E+04</pdfrwt>
<pdfrwt beam="2">  1       -2 0.57559906E-01 0.12946902E+04</pdfrwt>
<totfact> 0.73625065E+01</totfact>
</mgrwt>
</event>
<event>
 8    2  0.4480234E-052  0.1543851E+04  0.7818608E-02  0.8855805E-01
         -2   -1    0    0    0  501 -0.00000000000E+00  0.00000000000E+00  0.14468806890E+03  0.14468806892E+03  0.25500000000E-02 0. -1.
          2   -1    0    0  501    0  0.00000000000E+00 -0.00000000000E+00 -0.41183032029E+04  0.41183032029E+04  0.25500000000E-02 0.  1.
    -200001    2    1    2    0    0 -0.16739892899E+03  0.16053203643E+03 -0.31086487616E+04  0.31777591485E+04  0.61697904876E+03 0.  0.
   -5000001    2    3    3    0    0 -0.29462813917E+03 -0.94151176176E+02 -0.21220605188E+04  0.21459606354E+04  0.79599114325E+02 0.  0.
     200001    1    1    2    0    0  0.16739892899E+03 -0.16053203643E+03 -0.86496637240E+03  0.10852321233E+04  0.61300000000E+03 0. -1.
         13    1    4    4    0    0 -0.14357746038E+03 -0.80816580263E+02 -0.11132496282E+04  0.11253757384E+04  0.10566000000E+00 0.  1.
    -200003    1    4    4    0    0 -0.15105067879E+03 -0.13334595914E+02 -0.10088108906E+04  0.10205848970E+04  0.30000000000E+02 0.  1.
    -200000    1    3    3    0    0  0.12722921018E+03  0.25468321260E+03 -0.98658824283E+03  0.10317985131E+04  0.10100000000E+03 0.  1.
<mgrwt>
<rscale>  0 0.15438515E+04</rscale>
<asrwt>0</asrwt>
<pdfrwt beam="1">  1        2 0.58832896E+00 0.15438515E+04</pdfrwt>
<pdfrwt beam="2">  1       -2 0.20669727E-01 0.15438515E+04</pdfrwt>
<totfact> 0.93287098E+00</totfact>
</mgrwt>
</event>
<event>
 8    2  0.4480234E-052  0.1232677E+04  0.7818608E-02  0.9084726E-01
          2   -1    0    0  501    0  0.00000000000E+00  0.00000000000E+00  0.97196396532E+03  0.97196396532E+03  0.25500000000E-02 0.  1.
         -2   -1    0    0    0  501 -0.00000000000E+00 -0.00000000000E+00 -0.39083028350E+03  0.39083028351E+03  0.25500000000E-02 0. -1.
    -200001    2    1    2    0    0 -0.48464084820E+02 -0.70962512559E+02  0.28234933213E+03  0.67546206325E+03  0.60757173061E+03 0.  0.
   -5000001    2    3    3    0    0 -0.10509002589E+03 -0.28206981128E+03  0.27034582996E+02  0.32452131341E+03  0.11821980463E+03 0.  0.
     200001    1    1    2    0    0  0.48464084820E+02  0.70962512559E+02  0.29878434969E+03  0.68733218558E+03  0.61300000000E+03 0. -1.
         13    1    4    4    0    0 -0.57146757742E+02 -0.93598457898E+02  0.59998983563E+02  0.12500524963E+03  0.10566000000E+00 0.  1.
    -200003    1    4    4    0    0 -0.47943268146E+02 -0.18847135338E+03 -0.32964400567E+02  0.19951606379E+03  0.30000000000E+02 0.  1.
    -200000    1    3    3    0    0  0.56625941068E+02  0.21110729872E+03  0.25531474913E+03  0.35094074984E+03  0.10100000000E+03 0.  1.
<mgrwt>
<rscale>  0 0.12326767E+04</rscale>
<asrwt>0</asrwt>
<pdfrwt beam="1">  1        2 0.13885199E+00 0.12326767E+04</pdfrwt>
<pdfrwt beam="2">  1       -2 0.55832898E-01 0.12326767E+04</pdfrwt>
<totfact> 0.86794769E+01</totfact>
</mgrwt>
</event>
<event>
 8    2  0.4480234E-052  0.2964188E+04  0.7818608E-02  0.8254032E-01
          2   -1    0    0  501    0  0.00000000000E+00  0.00000000000E+00  0.16694049430E+04  0.16694049430E+04  0.25500000000E-02 0. -1.
         -2   -1    0    0    0  501 -0.00000000000E+00 -0.00000000000E+00 -0.13157999341E+04  0.13157999341E+04  0.25500000000E-02 0.  1.
    -200001    2    1    2    0    0 -0.46257417810E+03  0.26141430493E+03 -0.10725507231E+04  0.13444728817E+04  0.61231525124E+03 0.  0.
   -5000001    2    3    3    0    0 -0.18483285740E+03 -0.16538109530E+02 -0.89302200770E+01  0.20610239702E+03  0.89228666822E+02 0.  0.
     200001    1    1    2    0    0  0.46257417810E+03 -0.26141430493E+03  0.14261557319E+04  0.16407319954E+04  0.61300000000E+03 0. -1.
         13    1    4    4    0    0 -0.57039705559E+02  0.14228586479E+02  0.29684300963E+02  0.65857038889E+02  0.10566000000E+00 0.  1.
    -200003    1    4    4    0    0 -0.12779315184E+03 -0.30766696008E+02 -0.38614521040E+02  0.14024535813E+03  0.30000000000E+02 0.  1.
    -200000    1    3    3    0    0 -0.27774132070E+03  0.27795241446E+03 -0.10636205030E+04  0.11383704847E+04  0.10100000000E+03 0.  1.
<mgrwt>
<rscale>  0 0.29641882E+04</rscale>
<asrwt>0</asrwt>
<pdfrwt beam="1">  1        2 0.23848642E+00 0.29641882E+04</pdfrwt>
<pdfrwt beam="2">  1       -2 0.18797142E+00 0.29641882E+04</pdfrwt>
<totfact> 0.16470390E+00</totfact>
</mgrwt>
</event>
<event>
 8    2  0.4480234E-052  0.1774287E+04  0.7818608E-02  0.8720094E-01
          2   -1    0    0  501    0  0.00000000000E+00  0.00000000000E+00  0.35565311103E+04  0.35565311103E+04  0.25500000000E-02 0.  1.
         -2   -1    0    0    0  501 -0.00000000000E+00 -0.00000000000E+00 -0.22128971405E+03  0.22128971406E+03  0.25500000000E-02 0. -1.
    -200001    2    1    2    0    0 -0.20022786385E+02  0.59034328724E+03  0.21856614756E+04  0.23473631694E+04  0.61975128419E+03 0.  0.
   -5000001    2    3    3    0    0 -0.12592000938E+02  0.37577305209E+03  0.20198252063E+04  0.20578838599E+04  0.11759324708E+03 0.  0.
     200001    1    1    2    0    0  0.20022786385E+02 -0.59034328724E+03  0.11495799207E+04  0.14304576550E+04  0.61300000000E+03 0. -1.
         13    1    4    4    0    0 -0.13654628332E+02  0.24330631813E+02  0.55243100219E+02  0.61888931201E+02  0.10566000000E+00 0.  1.
    -200003    1    4    4    0    0  0.10626273941E+01  0.35144242028E+03  0.19645821061E+04  0.19959949287E+04  0.30000000000E+02 0.  1.
    -200000    1    3    3    0    0 -0.74307854471E+01  0.21457023515E+03  0.16583626930E+03  0.28947930945E+03  0.10100000000E+03 0. -1.
<mgrwt>
<rscale>  0 0.17742872E+04</rscale>
<asrwt>0</asrwt>
<pdfrwt beam="1">  1        2 0.50807585E+00 0.17742872E+04</pdfrwt>
<pdfrwt beam="2">  1       -2 0.31612817E-01 0.17742872E+04</pdfrwt>
<totfact> 0.98408324E+00</totfact>
</mgrwt>
</event>
<event>
 8    2  0.4480234E-052  0.1512521E+04  0.7818608E-02  0.8876169E-01
         -2   -1    0    0    0  501 -0.00000000000E+00  0.00000000000E+00  0.44817473717E+03  0.44817473717E+03  0.25500000000E-02 0. -1.
          2   -1    0    0  501    0  0.00000000000E+00 -0.00000000000E+00 -0.12761321005E+04  0.12761321005E+04  0.25500000000E-02 0.  1.
    -200001    2    1    2    0    0  0.19431952556E+03  0.29759282952E+03 -0.11431847149E+03  0.71863738992E+03  0.61404349607E+03 0.  0.
   -5000001    2    3    3    0    0  0.10858341377E+03  0.30822911693E+03  0.18902401721E+03  0.38745545060E+03  0.87155612852E+02 0.  0.
     200001    1    1    2    0    0 -0.19431952556E+03 -0.29759282952E+03 -0.71363889181E+03  0.10056694477E+04  0.61300000000E+03 0.  1.
         13    1    4    4    0    0  0.39165733575E+02  0.21151335151E+03  0.11195632292E+03  0.24249965352E+03  0.10566000000E+00 0.  1.
    -200003    1    4    4    0    0  0.69417680194E+02  0.96715765424E+02  0.77067694286E+02  0.14495579708E+03  0.30000000000E+02 0.  1.
    -200000    1    3    3    0    0  0.85736111796E+02 -0.10636287413E+02 -0.30334248870E+03  0.33118193931E+03  0.10100000000E+03 0.  1.
<mgrwt>
<rscale>  0 0.15125213E+04</rscale>
<asrwt>0</asrwt>
<pdfrwt beam="1">  1        2 0.18230458E+00 0.15125213E+04</pdfrwt>
<pdfrwt beam="2">  1       -2 0.64024963E-01 0.15125213E+04</pdfrwt>
<totfact> 0.42211197E+01</totfact>
</mgrwt>
</event>
<event>
 8    2  0.4480234E-052  0.2099315E+04  0.7818608E-02  0.8561545E-01
         -2   -1    0    0    0  501 -0.00000000000E+00  0.00000000000E+00  0.63657878335E+03  0.63657878335E+03  0.25500000000E-02 0. -1.
          2   -1    0    0  501    0  0.00000000000E+00 -0.00000000000E+00 -0.17307841856E+04  0.17307841856E+04  0.25500000000E-02 0.  1.
    -200001    2    1    2    0    0 -0.24468522753E+03  0.75863909720E+03 -0.88439521342E+03  0.13401368713E+04  0.61514859980E+03 0.  0.
   -5000001    2    3    3    0    0 -0.31006389657E+03  0.34475509500E+03 -0.15815774425E+03  0.49562742829E+03  0.75079825027E+02 0.  0.
     200001    1    1    2    0    0  0.24468522753E+03 -0.75863909720E+03 -0.20981018880E+03  0.10272260977E+04  0.61300000000E+03 0. -1.
         13    1    4    4    0    0 -0.23796562289E+02  0.94845053433E+01  0.18216629617E+01  0.25681936032E+02  0.10566000000E+00 0.  1.
    -200003    1    4    4    0    0 -0.28626733428E+03  0.33527058965E+03 -0.15997940721E+03  0.46994549226E+03  0.30000000000E+02 0.  1.
    -200000    1    3    3    0    0  0.65378669038E+02  0.41388400221E+03 -0.72623746918E+03  0.84450944298E+03  0.10100000000E+03 0.  1.
<mgrwt>
<rscale>  0 0.20993146E+04</rscale>
<asrwt>0</asrwt>
<pdfrwt beam="1">  1        2 0.24725488E+00 0.20993146E+04</pdfrwt>
<pdfrwt beam="2">  1       -2 0.90939826E-01 0.20993146E+04</pdfrwt>
<totfact> 0.10557938E+01</totfact>
</mgrwt>
</event>
<event>
 8    2  0.4480234E-052  0.1383122E+04  0.7818608E-02  0.8966127E-01
          2   -1    0    0  501    0  0.00000000000E+00  0.00000000000E+00  0.64289699816E+03  0.64289699816E+03  0.25500000000E-02 0.  1.
         -2   -1    0    0    0  501 -0.00000000000E+00 -0.00000000000E+00 -0.74390848345E+03  0.74390848346E+03  0.25500000000E-02 0. -1.
    -200001    2    1    2    0    0  0.22831889963E+03 -0.19127138832E+03 -0.16877196969E+03  0.70191516400E+03  0.61276965965E+03 0.  0.
   -5000001    2    3    3    0    0 -0.11785800231E+02  0.30274402751E+02 -0.31160556728E+03  0.33132746718E+03  0.10781658685E+03 0.  0.
     200001    1    1    2    0    0 -0.22831889963E+03  0.19127138832E+03  0.67760484397E+02  0.68489031762E+03  0.61300000000E+03 0.  1.
         13    1    4    4    0    0  0.17740876741E+02  0.42726617151E+01 -0.26552961449E+01  0.18440610275E+02  0.10566000000E+00 0.  1.
    -200003    1    4    4    0    0 -0.29526676972E+02  0.26001741036E+02 -0.30895027113E+03  0.31288685690E+03  0.30000000000E+02 0.  1.
    -200000    1    3    3    0    0  0.24010469986E+03 -0.22154579107E+03  0.14283359758E+03  0.37058769682E+03  0.10100000000E+03 0.  1.
<mgrwt>
<rscale>  0 0.13831219E+04</rscale>
<asrwt>0</asrwt>
<pdfrwt beam="1">  1        2 0.91842428E-01 0.13831219E+04</pdfrwt>
<pdfrwt beam="2">  1       -2 0.10627264E+00 0.13831219E+04</pdfrwt>
<totfact> 0.34817495E+01</totfact>
</mgrwt>
</event>
<event>
 8    2  0.4480234E-052  0.1728380E+04  0.7818608E-02  0.8745342E-01
         -2   -1    0    0    0  501 -0.00000000000E+00  0.00000000000E+00  0.45738158265E+03  0.45738158266E+03  0.25500000000E-02 0. -1.
          2   -1    0    0  501    0  0.00000000000E+00 -0.00000000000E+00 -0.16328248005E+04  0.16328248005E+04  0.25500000000E-02 0.  1.
    -200001    2    1    2    0    0 -0.15243463263E+03 -0.38437818420E+03 -0.50753561878E+02  0.74422022872E+03  0.61668867274E+03 0.  0.
   -5000001    2    3    3    0    0 -0.22437744153E+03  0.18515110883E+02  0.14566653134E+03  0.27916041752E+03  0.77612851767E+02 0.  0.
     200001    1    1    2    0    0  0.15243463263E+03  0.38437818420E+03 -0.11246896560E+04  0.13459861545E+04  0.61300000000E+03 0.  1.
         13    1    4    4    0    0 -0.92147509752E+01  0.17961034419E+02  0.18794570648E+02  0.27581831752E+02  0.10566000000E+00 0.  1.
    -200003    1    4    4    0    0 -0.21516269056E+03  0.55407646473E+00  0.12687196069E+03  0.25157858577E+03  0.30000000000E+02 0.  1.
    -200000    1    3    3    0    0  0.71942808903E+02 -0.40289329509E+03 -0.19642009321E+03  0.46505981120E+03  0.10100000000E+03 0. -1.
<mgrwt>
<rscale>  0 0.17283796E+04</rscale>
<asrwt>0</asrwt>
<pdfrwt beam="1">  1        2 0.23326068E+00 0.17283796E+04</pdfrwt>
<pdfrwt beam="2">  1       -2 0.65340227E-01 0.17283796E+04</pdfrwt>
<totfact> 0.25555315E+01</totfact>
</mgrwt>
</event>
<event>
 8    2  0.4480234E-052  0.1508758E+04  0.7818608E-02  0.8878650E-01
         -2   -1    0    0    0  501 -0.00000000000E+00  0.00000000000E+00  0.20828921472E+03  0.20828921474E+03  0.25500000000E-02 0. -1.
          2   -1    0    0  501    0  0.00000000000E+00 -0.00000000000E+00 -0.27321983349E+04  0.27321983349E+04  0.25500000000E-02 0.  1.
    -200001    2    1    2    0    0  0.13941710752E+03 -0.22566642868E+02 -0.20730850818E+04  0.21665639767E+04  0.61349109635E+03 0.  0.
   -5000001    2    3    3    0    0  0.52391681099E+02  0.16789579812E+03 -0.17260068392E+04  0.17488156400E+04  0.21982412639E+03 0.  0.
     200001    1    1    2    0    0 -0.13941710752E+03  0.22566642868E+02 -0.45082403837E+03  0.77392357298E+03  0.61300000000E+03 0. -1.
         13    1    4    4    0    0  0.53568861353E+01 -0.52867241170E+02 -0.28137592334E+03  0.28634954657E+03  0.10566000000E+00 0.  1.
    -200003    1    4    4    0    0  0.47034794963E+02  0.22076303929E+03 -0.14446309159E+04  0.14624660935E+04  0.30000000000E+02 0.  1.
    -200000    1    3    3    0    0  0.87025426417E+02 -0.19046244099E+03 -0.34707824262E+03  0.41774833665E+03  0.10100000000E+03 0. -1.
<mgrwt>
<rscale>  0 0.15087577E+04</rscale>
<asrwt>0</asrwt>
<pdfrwt beam="1">  1        2 0.39031403E+00 0.15087577E+04</pdfrwt>
<pdfrwt beam="2">  1       -2 0.29755604E-01 0.15087577E+04</pdfrwt>
<totfact> 0.33445758E+01</totfact>
</mgrwt>
</event>
<event>
 8    2  0.4480234E-052  0.2219451E+04  0.7818608E-02  0.8510375E-01
          2   -1    0    0  501    0  0.00000000000E+00  0.00000000000E+00  0.20741705037E+04  0.20741705037E+04  0.25500000000E-02 0.  1.
         -2   -1    0    0    0  501 -0.00000000000E+00 -0.00000000000E+00 -0.59372692059E+03  0.59372692059E+03  0.25500000000E-02 0. -1.
    -200001    2    1    2    0    0 -0.35513705289E+02  0.38882015230E+03 -0.26820914409E+03  0.77422435471E+03  0.61240907272E+03 0.  0.
   -5000001    2    3    3    0    0  0.15528673694E+03  0.42133136577E+02  0.11553867163E+03  0.21381371804E+03  0.80485709988E+02 0.  0.
     200001    1    1    2    0    0  0.35513705289E+02 -0.38882015230E+03  0.17486527272E+04  0.18936730696E+04  0.61300000000E+03 0.  1.
         13    1    4    4    0    0  0.11643767449E+03  0.48302751704E+02  0.60550043909E+02  0.13984708378E+03  0.10566000000E+00 0.  1.
    -200003    1    4    4    0    0  0.38849062456E+02 -0.61696151263E+01  0.54988627718E+02  0.73966634254E+02  0.30000000000E+02 0.  1.
    -200000    1    3    3    0    0 -0.19080044223E+03  0.34668701573E+03 -0.38374781572E+03  0.56041063667E+03  0.10100000000E+03 0. -1.
<mgrwt>
<rscale>  0 0.22194512E+04</rscale>
<asrwt>0</asrwt>
<pdfrwt beam="1">  1        2 0.29631007E+00 0.22194512E+04</pdfrwt>
<pdfrwt beam="2">  1       -2 0.84818132E-01 0.22194512E+04</pdfrwt>
<totfact> 0.81553323E+00</totfact>
</mgrwt>
</event>
<event>
 8    2  0.4480234E-052  0.1250004E+04  0.7818608E-02  0.9070180E-01
          2   -1    0    0  501    0  0.00000000000E+00  0.00000000000E+00  0.18897341963E+04  0.18897341963E+04  0.25500000000E-02 0.  1.
         -2   -1    0    0    0  501 -0.00000000000E+00 -0.00000000000E+00 -0.20671024924E+03  0.20671024925E+03  0.25500000000E-02 0. -1.
    -200001    2    1    2    0    0  0.61740202123E+02 -0.75712849934E+02  0.96138281279E+03  0.11445625123E+04  0.61336950007E+03 0.  0.
   -5000001    2    3    3    0    0 -0.17799096590E+03  0.15089269491E+03  0.33740997653E+03  0.43156587396E+03  0.13399336547E+03 0.  0.
     200001    1    1    2    0    0 -0.61740202123E+02  0.75712849934E+02  0.72164113431E+03  0.95188193329E+03  0.61300000000E+03 0. -1.
         13    1    4    4    0    0  0.76196338194E+01  0.24116028065E+02  0.10043640762E+03  0.10357183386E+03  0.10566000000E+00 0.  1.
    -200003    1    4    4    0    0 -0.18561059972E+03  0.12677666685E+03  0.23697356891E+03  0.32799404011E+03  0.30000000000E+02 0.  1.
    -200000    1    3    3    0    0  0.23973116802E+03 -0.22660554485E+03  0.62397283626E+03  0.71299663832E+03  0.10100000000E+03 0.  1.
<mgrwt>
<rscale>  0 0.12500039E+04</rscale>
<asrwt>0</asrwt>
<pdfrwt beam="1">  1        2 0.26996204E+00 0.12500039E+04</pdfrwt>
<pdfrwt beam="2">  1       -2 0.29530035E-01 0.12500039E+04</pdfrwt>
<totfact> 0.95007282E+01</totfact>
</mgrwt>
</event>
<event>
 8    2  0.4480234E-052  0.1411880E+04  0.7818608E-02  0.8945264E-01
         -2   -1    0    0    0  501 -0.00000000000E+00  0.00000000000E+00  0.77775753890E+03  0.77775753891E+03  0.25500000000E-02 0. -1.
          2   -1    0    0  501    0  0.00000000000E+00 -0.00000000000E+00 -0.64075389391E+03  0.64075389392E+03  0.25500000000E-02 0.  1.
    -200001    2    1    2    0    0 -0.13159916037E+03  0.30967094645E+03 -0.26915602715E+02  0.70028239285E+03  0.61356054794E+03 0.  0.
   -5000001    2    3    3    0    0 -0.35860725819E+03  0.17844001216E+03 -0.43824551960E+02  0.41878435173E+03  0.11410406799E+03 0.  0.
     200001    1    1    2    0    0  0.13159916037E+03 -0.30967094645E+03  0.16391924771E+03  0.71822903997E+03  0.61300000000E+03 0. -1.
         13    1    4    4    0    0 -0.17254955905E+03  0.41717943032E+02  0.16438665492E+02  0.17828061584E+03  0.10566000000E+00 0.  1.
    -200003    1    4    4    0    0 -0.18605769915E+03  0.13672206912E+03 -0.60263217452E+02  0.24050373589E+03  0.30000000000E+02 0.  1.
    -200000    1    3    3    0    0  0.22700809782E+03  0.13123093430E+03  0.16908949245E+02  0.28149804112E+03  0.10100000000E+03 0.  1.
<mgrwt>
<rscale>  0 0.14118798E+04</rscale>
<asrwt>0</asrwt>
<pdfrwt beam="1">  1        2 0.91536271E-01 0.14118798E+04</pdfrwt>
<pdfrwt beam="2">  1       -2 0.11110822E+00 0.14118798E+04</pdfrwt>
<totfact> 0.31327540E+01</totfact>
</mgrwt>
</event>
<event>
 8    2  0.4480234E-052  0.1361837E+04  0.7818608E-02  0.8981916E-01
         -2   -1    0    0    0  501 -0.00000000000E+00  0.00000000000E+00  0.20873923117E+03  0.20873923118E+03  0.25500000000E-02 0. -1.
          2   -1    0    0  501    0  0.00000000000E+00 -0.00000000000E+00 -0.22211914195E+04  0.22211914195E+04  0.25500000000E-02 0.  1.
    -200001    2    1    2    0    0 -0.10138656613E+02 -0.19431973852E+03 -0.14041193649E+04  0.15446618908E+04  0.61364991065E+03 0.  0.
   -5000001    2    3    3    0    0  0.77340014915E+02 -0.14962770844E+03 -0.65416190094E+02  0.19856490849E+03  0.82333564941E+02 0.  0.
     200001    1    1    2    0    0  0.10138656613E+02  0.19431973852E+03 -0.60833282335E+03  0.88526875981E+03  0.61300000000E+03 0. -1.
         13    1    4    4    0    0  0.13811241363E+02 -0.23639463273E+02  0.17196067227E+02  0.32330952723E+02  0.10566000000E+00 0.  1.
    -200003    1    4    4    0    0  0.63528773552E+02 -0.12598824517E+03 -0.82612257321E+02  0.16623395577E+03  0.30000000000E+02 0.  1.
    -200000    1    3    3    0    0 -0.87478671528E+02 -0.44692030078E+02 -0.13387031748E+04  0.13460969823E+04  0.10100000000E+03 0.  1.
<mgrwt>
<rscale>  0 0.13618367E+04</rscale>
<asrwt>0</asrwt>
<pdfrwt beam="1">  1        2 0.31731305E+00 0.13618367E+04</pdfrwt>
<pdfrwt beam="2">  1       -2 0.29819891E-01 0.13618367E+04</pdfrwt>
<totfact> 0.62519843E+01</totfact>
</mgrwt>
</event>
<event>
 8    2  0.4480234E-052  0.1330463E+04  0.7818608E-02  0.9005750E-01
          2   -1    0    0  501    0  0.00000000000E+00  0.00000000000E+00  0.15388509801E+04  0.15388509801E+04  0.25500000000E-02 0.  1.
         -2   -1    0    0    0  501 -0.00000000000E+00 -0.00000000000E+00 -0.28757370053E+03  0.28757370054E+03  0.25500000000E-02 0. -1.
    -200001    2    1    2    0    0  0.25239327864E+03 -0.71719014797E+01  0.69749262854E+03  0.96259585327E+03  0.61346638587E+03 0.  0.
   -5000001    2    3    3    0    0 -0.22852672017E+02  0.10308536143E+03  0.51587848213E+03  0.60051617205E+03  0.28868707663E+03 0.  0.
     200001    1    1    2    0    0 -0.25239327864E+03  0.71719014797E+01  0.55378465100E+03  0.86382882734E+03  0.61300000000E+03 0.  1.
         13    1    4    4    0    0  0.13660877942E+02 -0.98900776383E+02  0.17521184014E+03  0.20166106031E+03  0.10566000000E+00 0.  1.
    -200003    1    4    4    0    0 -0.36513549959E+02  0.20198613781E+03  0.34066664198E+03  0.39885511174E+03  0.30000000000E+02 0.  1.
    -200000    1    3    3    0    0  0.27524595066E+03 -0.11025726291E+03  0.18161414641E+03  0.36207968122E+03  0.10100000000E+03 0. -1.
<mgrwt>
<rscale>  0 0.13304632E+04</rscale>
<asrwt>0</asrwt>
<pdfrwt beam="1">  1        2 0.21983586E+00 0.13304632E+04</pdfrwt>
<pdfrwt beam="2">  1       -2 0.41081957E-01 0.13304632E+04</pdfrwt>
<totfact> 0.76526406E+01</totfact>
</mgrwt>
</event>
<event>
 8    2  0.4480234E-052  0.1601288E+04  0.7818608E-02  0.8819757E-01
         -2   -1    0    0    0  501 -0.00000000000E+00  0.00000000000E+00  0.63934719586E+03  0.63934719587E+03  0.25500000000E-02 0. -1.
          2   -1    0    0  501    0  0.00000000000E+00 -0.00000000000E+00 -0.10026327865E+04  0.10026327865E+04  0.25500000000E-02 0.  1.
    -200001    2    1    2    0    0  0.39823729468E+03 -0.14411392656E+03 -0.48317289874E+03  0.88732527108E+03  0.61198718934E+03 0.  0.
   -5000001    2    3    3    0    0  0.50580616323E+03 -0.12032308691E+03 -0.19203380171E+03  0.56006384752E+03  0.80479887486E+02 0.  0.
     200001    1    1    2    0    0 -0.39823729468E+03  0.14411392656E+03  0.11988730806E+03  0.75465471133E+03  0.61300000000E+03 0. -1.
         13    1    4    4    0    0  0.59026276222E+01  0.58126151308E+01  0.17377000370E+01  0.84651209654E+01  0.10566000000E+00 0.  1.
    -200003    1    4    4    0    0  0.49990353561E+03 -0.12613570204E+03 -0.19377150174E+03  0.55159872655E+03  0.30000000000E+02 0.  1.
    -200000    1    3    3    0    0 -0.10756886855E+03 -0.23790839656E+02 -0.29113909703E+03  0.32726142356E+03  0.10100000000E+03 0.  1.
<mgrwt>
<rscale>  0 0.16012876E+04</rscale>
<asrwt>0</asrwt>
<pdfrwt beam="1">  1        2 0.14323325E+00 0.16012876E+04</pdfrwt>
<pdfrwt beam="2">  1       -2 0.91335314E-01 0.16012876E+04</pdfrwt>
<totfact> 0.27471650E+01</totfact>
</mgrwt>
</event>
<event>
 8    2  0.4480234E-052  0.1651294E+04  0.7818608E-02  0.8789641E-01
          2   -1    0    0  501    0  0.00000000000E+00  0.00000000000E+00  0.17357986154E+04  0.17357986154E+04  0.25500000000E-02 0.  1.
         -2   -1    0    0    0  501 -0.00000000000E+00 -0.00000000000E+00 -0.39272601226E+03  0.39272601226E+03  0.25500000000E-02 0. -1.
    -200001    2    1    2    0    0 -0.42271903099E+03  0.25904396991E+03  0.35690431990E+03  0.86595104946E+03  0.61375513764E+03 0.  0.
   -5000001    2    3    3    0    0 -0.61274226118E+02  0.38000154873E+03  0.19812496644E+03  0.44088050716E+03  0.83465031281E+02 0.  0.
     200001    1    1    2    0    0  0.42271903099E+03 -0.25904396991E+03  0.98616828322E+03  0.12625735782E+04  0.61300000000E+03 0.  1.
         13    1    4    4    0    0 -0.63177024736E+02  0.16933344434E+03  0.99836762518E+02  0.20647649295E+03  0.10566000000E+00 0.  1.
    -200003    1    4    4    0    0  0.19027986183E+01  0.21066810438E+03  0.98288203919E+02  0.23440401421E+03  0.30000000000E+02 0.  1.
    -200000    1    3    3    0    0 -0.36144480487E+03 -0.12095757882E+03  0.15877935347E+03  0.42507054230E+03  0.10100000000E+03 0. -1.
<mgrwt>
<rscale>  0 0.16512944E+04</rscale>
<asrwt>0</asrwt>
<pdfrwt beam="1">  1        2 0.24797123E+00 0.16512944E+04</pdfrwt>
<pdfrwt beam="2">  1       -2 0.56103715E-01 0.16512944E+04</pdfrwt>
<totfact> 0.31372069E+01</totfact>
</mgrwt>
</event>
<event>
 8    2  0.4480234E-052  0.1301976E+04  0.7818608E-02  0.9028000E-01
         -2   -1    0    0    0  501 -0.00000000000E+00  0.00000000000E+00  0.22574375370E+03  0.22574375372E+03  0.25500000000E-02 0.  1.
          2   -1    0    0  501    0  0.00000000000E+00 -0.00000000000E+00 -0.18772845137E+04  0.18772845137E+04  0.25500000000E-02 0. -1.
    -200001    2    1    2    0    0  0.36306537073E+02 -0.45801490116E+02 -0.48270538547E+03  0.78190712465E+03  0.61233840422E+03 0.  0.
   -5000001    2    3    3    0    0  0.17263080586E+03  0.20585228293E+03 -0.10738917074E+03  0.29923001851E+03  0.76351898879E+02 0.  0.
     200001    1    1    2    0    0 -0.36306537073E+02  0.45801490116E+02 -0.11688353745E+04  0.13211211427E+04  0.61300000000E+03 0. -1.
         13    1    4    4    0    0  0.11365204137E+03  0.16806382585E+03 -0.83211948892E+02  0.21928628701E+03  0.10566000000E+00 0.  1.
    -200003    1    4    4    0    0  0.58978764492E+02  0.37788457077E+02 -0.24177221850E+02  0.79943731497E+02  0.30000000000E+02 0.  1.
    -200000    1    3    3    0    0 -0.13632426879E+03 -0.25165377305E+03 -0.37531621473E+03  0.48267710614E+03  0.10100000000E+03 0. -1.
<mgrwt>
<rscale>  0 0.13019758E+04</rscale>
<asrwt>0</asrwt>
<pdfrwt beam="1">  1        2 0.26818349E+00 0.13019758E+04</pdfrwt>
<pdfrwt beam="2">  1       -2 0.32249109E-01 0.13019758E+04</pdfrwt>
<totfact> 0.81460204E+01</totfact>
</mgrwt>
</event>
<event>
 8    2  0.4480234E-052  0.1713055E+04  0.7818608E-02  0.8753953E-01
          2   -1    0    0  501    0  0.00000000000E+00  0.00000000000E+00  0.12474452281E+04  0.12474452281E+04  0.25500000000E-02 0.  1.
         -2   -1    0    0    0  501 -0.00000000000E+00 -0.00000000000E+00 -0.58811357030E+03  0.58811357031E+03  0.25500000000E-02 0. -1.
    -200001    2    1    2    0    0 -0.56275421013E+03 -0.15778817382E+03  0.19205611872E+03  0.86824042361E+03  0.61267158546E+03 0.  0.
   -5000001    2    3    3    0    0  0.39639679888E+02 -0.10464058704E+03 -0.93436746363E+02  0.19191931590E+03  0.12482644579E+03 0.  0.
     200001    1    1    2    0    0  0.56275421013E+03  0.15778817382E+03  0.46727553909E+03  0.96731837481E+03  0.61300000000E+03 0.  1.
         13    1    4    4    0    0  0.56195268307E+02 -0.11723407644E+03 -0.81815132218E+02  0.15360815045E+03  0.10566000000E+00 0.  1.
    -200003    1    4    4    0    0 -0.16555588418E+02  0.12593489403E+02 -0.11621614145E+02  0.38311165456E+02  0.30000000000E+02 0.  1.
    -200000    1    3    3    0    0 -0.60239389002E+03 -0.53147586782E+02  0.28549286509E+03  0.67632110771E+03  0.10100000000E+03 0.  1.
<mgrwt>
<rscale>  0 0.17130551E+04</rscale>
<asrwt>0</asrwt>
<pdfrwt beam="1">  1        2 0.17820646E+00 0.17130551E+04</pdfrwt>
<pdfrwt beam="2">  1       -2 0.84016224E-01 0.17130551E+04</pdfrwt>
<totfact> 0.23692509E+01</totfact>
</mgrwt>
</event>
<event>
 8    2  0.4480234E-052  0.1443950E+04  0.7818608E-02  0.8922606E-01
          2   -1    0    0  501    0  0.00000000000E+00  0.00000000000E+00  0.11068782384E+04  0.11068782384E+04  0.25500000000E-02 0.  1.
         -2   -1    0    0    0  501 -0.00000000000E+00 -0.00000000000E+00 -0.47091686377E+03  0.47091686378E+03  0.25500000000E-02 0. -1.
    -200001    2    1    2    0    0 -0.18590516263E+03  0.12241739286E+03 -0.20117452113E+02  0.65272474029E+03  0.61326839731E+03 0.  0.
   -5000001    2    3    3    0    0 -0.11658360911E+03  0.35941959108E+03 -0.25414526469E+02  0.38588287937E+03  0.74064283318E+02 0.  0.
     200001    1    1    2    0    0  0.18590516263E+03 -0.12241739286E+03  0.65607882678E+03  0.92507036193E+03  0.61300000000E+03 0.  1.
         13    1    4    4    0    0 -0.98379591858E+02  0.26105691283E+03 -0.34257665134E+02  0.28107446454E+03  0.10566000000E+00 0.  1.
    -200003    1    4    4    0    0 -0.18204017257E+02  0.98362678253E+02  0.88431386648E+01  0.10480841483E+03  0.30000000000E+02 0. -1.
    -200000    1    3    3    0    0 -0.69321553517E+02 -0.23700219823E+03  0.52970743564E+01  0.26684186093E+03  0.10100000000E+03 0. -1.
<mgrwt>
<rscale>  0 0.14439496E+04</rscale>
<asrwt>0</asrwt>
<pdfrwt beam="1">  1        2 0.15812546E+00 0.14439496E+04</pdfrwt>
<pdfrwt beam="2">  1       -2 0.67273838E-01 0.14439496E+04</pdfrwt>
<totfact> 0.47673406E+01</totfact>
</mgrwt>
</event>
<event>
 8    2  0.4480234E-052  0.1769283E+04  0.7818608E-02  0.8722807E-01
         -2   -1    0    0    0  501 -0.00000000000E+00  0.00000000000E+00  0.83339392856E+03  0.83339392857E+03  0.25500000000E-02 0. -1.
          2   -1    0    0  501    0  0.00000000000E+00 -0.00000000000E+00 -0.93904055882E+03  0.93904055882E+03  0.25500000000E-02 0.  1.
    -200001    2    1    2    0    0 -0.15711547494E+03  0.50961219222E+03 -0.40376771668E+03  0.90696638221E+03  0.61251105337E+03 0.  0.
   -5000001    2    3    3    0    0  0.72881713070E+02  0.44422248908E+03 -0.88561440795E+02  0.49863989993E+03  0.19532858752E+03 0.  0.
     200001    1    1    2    0    0  0.15711547494E+03 -0.50961219222E+03  0.29812108643E+03  0.86546810519E+03  0.61300000000E+03 0.  1.
         13    1    4    4    0    0  0.98823110124E+02  0.17357573595E+03 -0.10298414897E+03  0.22472269424E+03  0.10566000000E+00 0.  1.
    -200003    1    4    4    0    0 -0.25941397054E+02  0.27064675313E+03  0.14422708172E+02  0.27391720569E+03  0.30000000000E+02 0.  1.
    -200000    1    3    3    0    0 -0.22999718801E+03  0.65389703135E+02 -0.31520627589E+03  0.40832648227E+03  0.10100000000E+03 0.  1.
<mgrwt>
<rscale>  0 0.17692831E+04</rscale>
<asrwt>0</asrwt>
<pdfrwt beam="1">  1        2 0.13414865E+00 0.17692831E+04</pdfrwt>
<pdfrwt beam="2">  1       -2 0.11905628E+00 0.17692831E+04</pdfrwt>
<totfact> 0.15770830E+01</totfact>
</mgrwt>
</event>
<event>
 8    2  0.4480234E-052  0.1727592E+04  0.7818608E-02  0.8745782E-01
         -2   -1    0    0    0  501 -0.00000000000E+00  0.00000000000E+00  0.49592712598E+03  0.49592712599E+03  0.25500000000E-02 0. -1.
          2   -1    0    0  501    0  0.00000000000E+00 -0.00000000000E+00 -0.15045430685E+04  0.15045430685E+04  0.25500000000E-02 0.  1.
    -200001    2    1    2    0    0 -0.26710545388E+03  0.27154274164E+03  0.45417618074E+02  0.72303662249E+03  0.61289347639E+03 0.  0.
   -5000001    2    3    3    0    0 -0.23618217669E+03  0.39449974801E+03 -0.13155990096E+03  0.48304346273E+03  0.67903663967E+02 0.  0.
     200001    1    1    2    0    0  0.26710545388E+03 -0.27154274164E+03 -0.10540335606E+04  0.12774335720E+04  0.61300000000E+03 0.  1.
         13    1    4    4    0    0 -0.59088910972E+02  0.14852510880E+03 -0.54355379730E+02  0.16883638770E+03  0.10566000000E+00 0.  1.
    -200003    1    4    4    0    0 -0.17709326572E+03  0.24597463921E+03 -0.77204521232E+02  0.31420707502E+03  0.30000000000E+02 0.  1.
    -200000    1    3    3    0    0 -0.30923277188E+02 -0.12295700637E+03  0.17697751904E+03  0.23999315976E+03  0.10100000000E+03 0. -1.
<mgrwt>
<rscale>  0 0.17275922E+04</rscale>
<asrwt>0</asrwt>
<pdfrwt beam="1">  1        2 0.21493472E+00 0.17275922E+04</pdfrwt>
<pdfrwt beam="2">  1       -2 0.70846733E-01 0.17275922E+04</pdfrwt>
<totfact> 0.25058997E+01</totfact>
</mgrwt>
</event>
<event>
 8    2  0.4480234E-052  0.1351818E+04  0.7818608E-02  0.8989453E-01
         -2   -1    0    0    0  501 -0.00000000000E+00  0.00000000000E+00  0.32629219090E+03  0.32629219091E+03  0.25500000000E-02 0. -1.
          2   -1    0    0  501    0  0.00000000000E+00 -0.00000000000E+00 -0.14001340515E+04  0.14001340515E+04  0.25500000000E-02 0.  1.
    -200001    2    1    2    0    0 -0.14269902518E+03  0.10167115262E+03 -0.82300076909E+03  0.10413056047E+04  0.61342241670E+03 0.  0.
   -5000001    2    3    3    0    0  0.68634702660E+02 -0.20953404080E+03 -0.20071798346E+03  0.30717517877E+03  0.73848797586E+02 0.  0.
     200001    1    1    2    0    0  0.14269902518E+03 -0.10167115262E+03 -0.25084109149E+03  0.68512063773E+03  0.61300000000E+03 0.  1.
         13    1    4    4    0    0  0.26414125882E+02 -0.41380590614E+02 -0.14973327171E+02  0.51325149939E+02  0.10566000000E+00 0.  1.
    -200003    1    4    4    0    0  0.42220576778E+02 -0.16815345018E+03 -0.18574465629E+03  0.25585002883E+03  0.30000000000E+02 0.  1.
    -200000    1    3    3    0    0 -0.21133372784E+03  0.31120519341E+03 -0.62228278563E+03  0.73413042590E+03  0.10100000000E+03 0. -1.
<mgrwt>
<rscale>  0 0.13518177E+04</rscale>
<asrwt>0</asrwt>
<pdfrwt beam="1">  1        2 0.20001915E+00 0.13518177E+04</pdfrwt>
<pdfrwt beam="2">  1       -2 0.46613171E-01 0.13518177E+04</pdfrwt>
<totfact> 0.70523327E+01</totfact>
</mgrwt>
</event>
<event>
 8    2  0.4480234E-052  0.1870994E+04  0.7818608E-02  0.8669431E-01
          2   -1    0    0  501    0  0.00000000000E+00  0.00000000000E+00  0.31853330166E+04  0.31853330166E+04  0.25500000000E-02 0.  1.
         -2   -1    0    0    0  501 -0.00000000000E+00 -0.00000000000E+00 -0.27474518589E+03  0.27474518590E+03  0.25500000000E-02 0. -1.
    -200001    2    1    2    0    0 -0.38647635588E+03 -0.40939181283E+02  0.25467034977E+04  0.26481540693E+04  0.61317312356E+03 0.  0.
   -5000001    2    3    3    0    0 -0.12492485276E+03 -0.27737487693E+03  0.16379658314E+04  0.16681968391E+04  0.86055725443E+02 0.  0.
     200001    1    1    2    0    0  0.38647635588E+03  0.40939181283E+02  0.36388433300E+03  0.81192413317E+03  0.61300000000E+03 0. -1.
         13    1    4    4    0    0 -0.53450384599E+02 -0.19484175517E+03  0.98874794496E+03  0.10091792522E+04  0.10566000000E+00 0.  1.
    -200003    1    4    4    0    0 -0.71474468164E+02 -0.82533121764E+02  0.64921788648E+03  0.65901758695E+03  0.30000000000E+02 0.  1.
    -200000    1    3    3    0    0 -0.26155150311E+03  0.23643569565E+03  0.90873766629E+03  0.97995723023E+03  0.10100000000E+03 0.  1.
<mgrwt>
<rscale>  0 0.18709943E+04</rscale>
<asrwt>0</asrwt>
<pdfrwt beam="1">  1        2 0.45504757E+00 0.18709943E+04</pdfrwt>
<pdfrwt beam="2">  1       -2 0.39249312E-01 0.18709943E+04</pdfrwt>
<totfact> 0.10718195E+01</totfact>
</mgrwt>
</event>
<event>
 8    2  0.4480234E-052  0.1425325E+04  0.7818608E-02  0.8935689E-01
         -2   -1    0    0    0  501 -0.00000000000E+00  0.00000000000E+00  0.25970524736E+04  0.25970524736E+04  0.25500000000E-02 0. -1.
          2   -1    0    0  501    0  0.00000000000E+00 -0.00000000000E+00 -0.19556310834E+03  0.19556310836E+03  0.25500000000E-02 0.  1.
    -200001    2    1    2    0    0 -0.20588000125E+03  0.21208448875E+03  0.78600353596E+03  0.10396381520E+04  0.61292701300E+03 0.  0.
   -5000001    2    3    3    0    0 -0.31150709688E+03  0.30323722586E+02  0.13985546773E+03  0.35268663586E+03  0.82898200859E+02 0.  0.
     200001    1    1    2    0    0  0.20588000125E+03 -0.21208448875E+03  0.16154858293E+04  0.17529774300E+04  0.61300000000E+03 0. -1.
         13    1    4    4    0    0 -0.21935712898E+03 -0.80341847320E+01  0.92158125127E+02  0.23806559884E+03  0.10566000000E+00 0.  1.
    -200003    1    4    4    0    0 -0.92149967893E+02  0.38357907318E+02  0.47697342606E+02  0.11462103702E+03  0.30000000000E+02 0. -1.
    -200000    1    3    3    0    0  0.10562709562E+03  0.18176076617E+03  0.64614806823E+03  0.68695151614E+03  0.10100000000E+03 0. -1.
<mgrwt>
<rscale>  0 0.14253247E+04</rscale>
<asrwt>0</asrwt>
<pdfrwt beam="1">  1        2 0.27937587E-01 0.14253247E+04</pdfrwt>
<pdfrwt beam="2">  1       -2 0.37100750E+00 0.14253247E+04</pdfrwt>
<totfact> 0.21715661E+00</totfact>
</mgrwt>
</event>
<event>
 8    2  0.4480234E-052  0.1857404E+04  0.7818608E-02  0.8676354E-01
          2   -1    0    0  501    0  0.00000000000E+00  0.00000000000E+00  0.28465434304E+04  0.28465434305E+04  0.25500000000E-02 0.  1.
         -2   -1    0    0    0  501 -0.00000000000E+00 -0.00000000000E+00 -0.30299467313E+03  0.30299467314E+03  0.25500000000E-02 0. -1.
    -200001    2    1    2    0    0 -0.14699248066E+03  0.12777806773E+03  0.24085446396E+04  0.24923249450E+04  0.61046074973E+03 0.  0.
   -5000001    2    3    3    0    0 -0.10534023695E+03  0.35210772004E+03  0.11290061579E+04  0.11886844929E+04  0.56916668437E+02 0.  0.
     200001    1    1    2    0    0  0.14699248066E+03 -0.12777806773E+03  0.13500411777E+03  0.65721315856E+03  0.61300000000E+03 0. -1.
         13    1    4    4    0    0 -0.61900969267E+02  0.24093812267E+03  0.74379127040E+03  0.78428845079E+03  0.10566000000E+00 0.  1.
    -200003    1    4    4    0    0 -0.43439267682E+02  0.11116959737E+03  0.38521488751E+03  0.40439604216E+03  0.30000000000E+02 0.  1.
    -200000    1    3    3    0    0 -0.41652243713E+02 -0.22432965231E+03  0.12795384816E+04  0.13036404521E+04  0.10100000000E+03 0.  1.
<mgrwt>
<rscale>  0 0.18574041E+04</rscale>
<asrwt>0</asrwt>
<pdfrwt beam="1">  1        2 0.40664903E+00 0.18574041E+04</pdfrwt>
<pdfrwt beam="2">  1       -2 0.43284956E-01 0.18574041E+04</pdfrwt>
<totfact> 0.13704856E+01</totfact>
</mgrwt>
</event>
<event>
 8    2  0.4480234E-052  0.1569316E+04  0.7818608E-02  0.8839624E-01
          2   -1    0    0  501    0  0.00000000000E+00  0.00000000000E+00  0.24022900291E+04  0.24022900291E+04  0.25500000000E-02 0.  1.
         -2   -1    0    0    0  501 -0.00000000000E+00 -0.00000000000E+00 -0.25629206436E+03  0.25629206437E+03  0.25500000000E-02 0. -1.
    -200001    2    1    2    0    0  0.45171915199E+03  0.17289536466E+03  0.94116082743E+03  0.12228437723E+04  0.61287860868E+03 0.  0.
   -5000001    2    3    3    0    0 -0.45746241586E+01 -0.76321826089E+02  0.41327598294E+03  0.47506263630E+03  0.22145320501E+03 0.  0.
     200001    1    1    2    0    0 -0.45171915199E+03 -0.17289536466E+03  0.12048371373E+04  0.14357383211E+04  0.61300000000E+03 0. -1.
         13    1    4    4    0    0  0.45171376289E+02  0.40048046049E+02  0.24575185301E+02  0.65178601740E+02  0.10566000000E+00 0.  1.
    -200003    1    4    4    0    0 -0.49746000448E+02 -0.11636987214E+03  0.38870079764E+03  0.40988403456E+03  0.30000000000E+02 0.  1.
    -200000    1    3    3    0    0  0.45629377615E+03  0.24921719075E+03  0.52788484449E+03  0.74778113600E+03  0.10100000000E+03 0. -1.
<mgrwt>
<rscale>  0 0.15693156E+04</rscale>
<asrwt>0</asrwt>
<pdfrwt beam="1">  1        2 0.34318431E+00 0.15693156E+04</pdfrwt>
<pdfrwt beam="2">  1       -2 0.36613150E-01 0.15693156E+04</pdfrwt>
<totfact> 0.33592443E+01</totfact>
</mgrwt>
</event>
<event>
 8    2  0.4480234E-052  0.1307521E+04  0.7818608E-02  0.9023622E-01
         -2   -1    0    0    0  501 -0.00000000000E+00  0.00000000000E+00  0.38353937190E+03  0.38353937191E+03  0.25500000000E-02 0. -1.
          2   -1    0    0  501    0  0.00000000000E+00 -0.00000000000E+00 -0.11143644574E+04  0.11143644574E+04  0.25500000000E-02 0.  1.
    -200001    2    1    2    0    0  0.12128556010E+03  0.52445169918E+02 -0.15530875306E+03  0.64675828837E+03  0.61377096043E+03 0.  0.
   -5000001    2    3    3    0    0  0.83216445531E+02  0.15740840772E+03  0.18849844019E+03  0.27143053173E+03  0.80252650914E+02 0.  0.
     200001    1    1    2    0    0 -0.12128556010E+03 -0.52445169918E+02 -0.57551633241E+03  0.85114554091E+03  0.61300000000E+03 0.  1.
         13    1    4    4    0    0  0.36356109759E+02  0.11003351338E+03  0.80769874365E+02  0.14125482134E+03  0.10566000000E+00 0.  1.
    -200003    1    4    4    0    0  0.46860335773E+02  0.47374894334E+02  0.10772856582E+03  0.13017571039E+03  0.30000000000E+02 0. -1.
    -200000    1    3    3    0    0  0.38069114567E+02 -0.10496323780E+03 -0.34380719325E+03  0.37532775664E+03  0.10100000000E+03 0.  1.
<mgrwt>
<rscale>  0 0.13075208E+04</rscale>
<asrwt>0</asrwt>
<pdfrwt beam="1">  1        2 0.15919492E+00 0.13075208E+04</pdfrwt>
<pdfrwt beam="2">  1       -2 0.54791339E-01 0.13075208E+04</pdfrwt>
<totfact> 0.73604031E+01</totfact>
</mgrwt>
</event>
<event>
 8    2  0.4480234E-052  0.1730704E+04  0.7818608E-02  0.8744044E-01
          2   -1    0    0  501    0  0.00000000000E+00  0.00000000000E+00  0.26655556701E+04  0.26655556701E+04  0.25500000000E-02 0.  1.
         -2   -1    0    0    0  501 -0.00000000000E+00 -0.00000000000E+00 -0.28092967959E+03  0.28092967960E+03  0.25500000000E-02 0. -1.
    -200001    2    1    2    0    0 -0.45677442844E+03 -0.12846564486E+03  0.18532167373E+04  0.20066390352E+04  0.60583961749E+03 0.  0.
   -5000001    2    3    3    0    0 -0.49359047553E+03 -0.14851481826E+03  0.18193297280E+04  0.18921544508E+04  0.67820333904E+02 0.  0.
     200001    1    1    2    0    0  0.45677442844E+03  0.12846564486E+03  0.53140925328E+03  0.93984631449E+03  0.61300000000E+03 0. -1.
         13    1    4    4    0    0 -0.69893104052E+02 -0.43490229838E+02  0.29467958147E+03  0.30596162012E+03  0.10566000000E+00 0.  1.
    -200003    1    4    4    0    0 -0.42369737148E+03 -0.10502458843E+03  0.15246501465E+04  0.15861928307E+04  0.30000000000E+02 0.  1.
    -200000    1    3    3    0    0  0.36816047084E+02  0.20049173402E+02  0.33887009234E+02  0.11448458443E+03  0.10100000000E+03 0. -1.
<mgrwt>
<rscale>  0 0.17307036E+04</rscale>
<asrwt>0</asrwt>
<pdfrwt beam="1">  1        2 0.38079366E+00 0.17307036E+04</pdfrwt>
<pdfrwt beam="2">  1       -2 0.40132813E-01 0.17307036E+04</pdfrwt>
<totfact> 0.20142570E+01</totfact>
</mgrwt>
</event>
<event>
 8    2  0.4480234E-052  0.1295478E+04  0.7818608E-02  0.9033159E-01
          2   -1    0    0  501    0  0.00000000000E+00  0.00000000000E+00  0.32208363479E+04  0.32208363479E+04  0.25500000000E-02 0.  1.
         -2   -1    0    0    0  501 -0.00000000000E+00 -0.00000000000E+00 -0.13026617085E+03  0.13026617087E+03  0.25500000000E-02 0. -1.
    -200001    2    1    2    0    0 -0.19698921054E+03 -0.10723213466E+02  0.13668820943E+04  0.15110510676E+04  0.61317936427E+03 0.  0.
   -5000001    2    3    3    0    0 -0.18251629901E+03 -0.24013042985E+03  0.11051699369E+04  0.11483785026E+04  0.79986079952E+02 0.  0.
     200001    1    1    2    0    0  0.19698921054E+03  0.10723213466E+02  0.17236880827E+04  0.18400514511E+04  0.61300000000E+03 0. -1.
         13    1    4    4    0    0 -0.28981046286E+02 -0.56175235518E+02  0.14262081716E+03  0.15600085506E+03  0.10566000000E+00 0.  1.
    -200003    1    4    4    0    0 -0.15353525272E+03 -0.18395519433E+03  0.96254911973E+03  0.99237764749E+03  0.30000000000E+02 0.  1.
    -200000    1    3    3    0    0 -0.14472911538E+02  0.22940721638E+03  0.26171215744E+03  0.36267256506E+03  0.10100000000E+03 0. -1.
<mgrwt>
<rscale>  0 0.12954783E+04</rscale>
<asrwt>0</asrwt>
<pdfrwt beam="1">  1        2 0.46011951E+00 0.12954783E+04</pdfrwt>
<pdfrwt beam="2">  1       -2 0.18609452E-01 0.12954783E+04</pdfrwt>
<totfact> 0.42475701E+01</totfact>
</mgrwt>
</event>
<event>
 8    2  0.4480234E-052  0.1501336E+04  0.7818608E-02  0.8883565E-01
         -2   -1    0    0    0  501 -0.00000000000E+00  0.00000000000E+00  0.25530283358E+03  0.25530283360E+03  0.25500000000E-02 0.  1.
          2   -1    0    0  501    0  0.00000000000E+00 -0.00000000000E+00 -0.22071924117E+04  0.22071924117E+04  0.25500000000E-02 0. -1.
    -200001    2    1    2    0    0  0.28362340453E+03 -0.28007196491E+03 -0.69671051175E+03  0.10098679601E+04  0.61281744303E+03 0.  0.
   -5000001    2    3    3    0    0  0.16134743278E+03 -0.32270765722E+03 -0.97188838695E+02  0.38826000325E+03  0.10548428157E+03 0.  0.
     200001    1    1    2    0    0 -0.28362340453E+03  0.28007196491E+03 -0.12551790663E+04  0.14526272852E+04  0.61300000000E+03 0. -1.
         13    1    4    4    0    0  0.13403695039E+03 -0.30099732399E+03 -0.79370364209E+02  0.33891733357E+03  0.10566000000E+00 0.  1.
    -200003    1    4    4    0    0  0.27310482387E+02 -0.21710333236E+02 -0.17818474487E+02  0.49342669673E+02  0.30000000000E+02 0. -1.
    -200000    1    3    3    0    0  0.12227597175E+03  0.42635692318E+02 -0.59952167306E+03  0.62160795683E+03  0.10100000000E+03 0. -1.
<mgrwt>
<rscale>  0 0.15013360E+04</rscale>
<asrwt>0</asrwt>
<pdfrwt beam="1">  1        2 0.31531319E+00 0.15013360E+04</pdfrwt>
<pdfrwt beam="2">  1       -2 0.36471835E-01 0.15013360E+04</pdfrwt>
<totfact> 0.42954790E+01</totfact>
</mgrwt>
</event>
<event>
 8    2  0.4480234E-052  0.1472330E+04  0.7818608E-02  0.8903064E-01
         -2   -1    0    0    0  501 -0.00000000000E+00  0.00000000000E+00  0.35276382251E+03  0.35276382252E+03  0.25500000000E-02 0. -1.
          2   -1    0    0  501    0  0.00000000000E+00 -0.00000000000E+00 -0.15362663661E+04  0.15362663661E+04  0.25500000000E-02 0.  1.
    -200001    2    1    2    0    0  0.27087658592E+03 -0.40801435682E+02 -0.20483453779E+03  0.70218607607E+03  0.61324482517E+03 0.  0.
   -5000001    2    3    3    0    0  0.16645746342E+03 -0.31193116454E+03 -0.95110106299E+02  0.37560510007E+03  0.83810025334E+02 0.  0.
     200001    1    1    2    0    0 -0.27087658592E+03  0.40801435682E+02 -0.97866800577E+03  0.11868441125E+04  0.61300000000E+03 0.  1.
         13    1    4    4    0    0  0.15030883376E+03 -0.27244471634E+03 -0.79191695133E+02  0.32107663370E+03  0.10566000000E+00 0.  1.
    -200003    1    4    4    0    0  0.16148629660E+02 -0.39486448194E+02 -0.15918411166E+02  0.54528466372E+02  0.30000000000E+02 0. -1.
    -200000    1    3    3    0    0  0.10441912250E+03  0.27112972885E+03 -0.10972443149E+03  0.32658097599E+03  0.10100000000E+03 0. -1.
<mgrwt>
<rscale>  0 0.14723304E+04</rscale>
<asrwt>0</asrwt>
<pdfrwt beam="1">  1        2 0.21946662E+00 0.14723304E+04</pdfrwt>
<pdfrwt beam="2">  1       -2 0.50394833E-01 0.14723304E+04</pdfrwt>
<totfact> 0.50473164E+01</totfact>
</mgrwt>
</event>
<event>
 8    2  0.4480234E-052  0.1497458E+04  0.7818608E-02  0.8886145E-01
         -2   -1    0    0    0  501 -0.00000000000E+00  0.00000000000E+00  0.33118406948E+03  0.33118406949E+03  0.25500000000E-02 0. -1.
          2   -1    0    0  501    0  0.00000000000E+00 -0.00000000000E+00 -0.16926984663E+04  0.16926984663E+04  0.25500000000E-02 0.  1.
    -200001    2    1    2    0    0 -0.71639627364E+02  0.16401942405E+02 -0.10794075159E+03  0.62652175778E+03  0.61276181930E+03 0.  0.
   -5000001    2    3    3    0    0 -0.20888204689E+03  0.58539312973E+02 -0.28996365935E+03  0.37364950018E+03  0.92067717293E+02 0.  0.
     200001    1    1    2    0    0  0.71639627364E+02 -0.16401942405E+02 -0.12535736453E+04  0.13973607780E+04  0.61300000000E+03 0.  1.
         13    1    4    4    0    0 -0.42524145386E+02  0.16192173440E+02 -0.14621164504E+02  0.47794131825E+02  0.10566000000E+00 0.  1.
    -200003    1    4    4    0    0 -0.16635790150E+03  0.42347139533E+02 -0.27534249484E+03  0.32585536836E+03  0.30000000000E+02 0.  1.
    -200000    1    3    3    0    0  0.13724241952E+03 -0.42137370568E+02  0.18202290776E+03  0.25287225760E+03  0.10100000000E+03 0. -1.
<mgrwt>
<rscale>  0 0.14974575E+04</rscale>
<asrwt>0</asrwt>
<pdfrwt beam="1">  1        2 0.24181406E+00 0.14974575E+04</pdfrwt>
<pdfrwt beam="2">  1       -2 0.47312011E-01 0.14974575E+04</pdfrwt>
<totfact> 0.47404158E+01</totfact>
</mgrwt>
</event>
<event>
 8    2  0.4480234E-052  0.1273457E+04  0.7818608E-02  0.9050883E-01
         -2   -1    0    0    0  501 -0.00000000000E+00  0.00000000000E+00  0.26427275665E+03  0.26427275666E+03  0.25500000000E-02 0. -1.
          2   -1    0    0  501    0  0.00000000000E+00 -0.00000000000E+00 -0.15341096367E+04  0.15341096367E+04  0.25500000000E-02 0.  1.
    -200001    2    1    2    0    0 -0.26110581292E+01  0.13311320237E+03 -0.79077794157E+03  0.10090837118E+04  0.61253101323E+03 0.  0.
   -5000001    2    3    3    0    0 -0.12477164446E+03 -0.51111024143E+02 -0.74569288790E+03  0.76190880091E+03  0.79163361389E+02 0.  0.
     200001    1    1    2    0    0  0.26110581292E+01 -0.13311320237E+03 -0.47905893848E+03  0.78929868162E+03  0.61300000000E+03 0. -1.
         13    1    4    4    0    0 -0.12422671691E+02 -0.12584028656E+02 -0.27394168376E+03  0.27451181726E+03  0.10566000000E+00 0.  1.
    -200003    1    4    4    0    0 -0.11234897276E+03 -0.38526995487E+02 -0.47175120414E+03  0.48739698364E+03  0.30000000000E+02 0.  1.
    -200000    1    3    3    0    0  0.12216058633E+03  0.18422422652E+03 -0.45085053676E+02  0.24717491085E+03  0.10100000000E+03 0.  1.
<mgrwt>
<rscale>  0 0.12734573E+04</rscale>
<asrwt>0</asrwt>
<pdfrwt beam="1">  1        2 0.21915852E+00 0.12734573E+04</pdfrwt>
<pdfrwt beam="2">  1       -2 0.37753252E-01 0.12734573E+04</pdfrwt>
<totfact> 0.91112538E+01</totfact>
</mgrwt>
</event>
<event>
 8    2  0.4480234E-052  0.1786015E+04  0.7818608E-02  0.8713772E-01
          2   -1    0    0  501    0  0.00000000000E+00  0.00000000000E+00  0.28777387824E+04  0.28777387824E+04  0.25500000000E-02 0.  1.
         -2   -1    0    0    0  501 -0.00000000000E+00 -0.00000000000E+00 -0.27711438458E+03  0.27711438459E+03  0.25500000000E-02 0. -1.
    -200001    2    1    2    0    0 -0.49605090189E+03  0.24703294594E+03  0.18968309854E+04  0.20694104273E+04  0.61432886639E+03 0.  0.
   -5000001    2    3    3    0    0 -0.34386207650E+03 -0.24488238952E+02  0.15456692571E+04  0.15894096442E+04  0.13523595373E+03 0.  0.
     200001    1    1    2    0    0  0.49605090189E+03 -0.24703294594E+03  0.70379341243E+03  0.10854427396E+04  0.61300000000E+03 0. -1.
         13    1    4    4    0    0 -0.14646442442E+03 -0.66929647881E+02  0.81536280833E+03  0.83111246277E+03  0.10566000000E+00 0.  1.
    -200003    1    4    4    0    0 -0.19739765208E+03  0.42441408928E+02  0.73030644881E+03  0.75829718146E+03  0.30000000000E+02 0.  1.
    -200000    1    3    3    0    0 -0.15218882539E+03  0.27152118489E+03  0.35116172821E+03  0.48000078310E+03  0.10100000000E+03 0. -1.
<mgrwt>
<rscale>  0 0.17860155E+04</rscale>
<asrwt>0</asrwt>
<pdfrwt beam="1">  1        2 0.41110550E+00 0.17860155E+04</pdfrwt>
<pdfrwt beam="2">  1       -2 0.39587773E-01 0.17860155E+04</pdfrwt>
<totfact> 0.15803680E+01</totfact>
</mgrwt>
</event>
<event>
 8    2  0.4480234E-052  0.2532326E+04  0.7818608E-02  0.8391559E-01
          2   -1    0    0  501    0  0.00000000000E+00  0.00000000000E+00  0.19946560416E+04  0.19946560416E+04  0.25500000000E-02 0.  1.
         -2   -1    0    0    0  501 -0.00000000000E+00 -0.00000000000E+00 -0.80373171380E+03  0.80373171380E+03  0.25500000000E-02 0. -1.
    -200001    2    1    2    0    0 -0.53914789084E+02  0.80230421711E+03 -0.24643900761E+03  0.10410086787E+04  0.61348840525E+03 0.  0.
   -5000001    2    3    3    0    0  0.15793228516E+03  0.73987501322E+03 -0.18031875547E+03  0.78931546046E+03  0.13470857682E+03 0.  0.
     200001    1    1    2    0    0  0.53914789084E+02 -0.80230421711E+03  0.14373633354E+04  0.17573790767E+04  0.61300000000E+03 0.  1.
         13    1    4    4    0    0  0.94510918644E+02  0.59416906623E+03 -0.17860230699E+03  0.62758902813E+03  0.10566000000E+00 0.  1.
    -200003    1    4    4    0    0  0.63421366514E+02  0.14570594699E+03 -0.17164484796E+01  0.16172643233E+03  0.30000000000E+02 0.  1.
    -200000    1    3    3    0    0 -0.21184707424E+03  0.62429203890E+02 -0.66120252139E+02  0.25169321824E+03  0.10100000000E+03 0. -1.
<mgrwt>
<rscale>  0 0.25323257E+04</rscale>
<asrwt>0</asrwt>
<pdfrwt beam="1">  1        2 0.28495086E+00 0.25323257E+04</pdfrwt>
<pdfrwt beam="2">  1       -2 0.11481882E+00 0.25323257E+04</pdfrwt>
<totfact> 0.42775845E+00</totfact>
</mgrwt>
</event>
<event>
 8    2  0.4480234E-052  0.1411134E+04  0.7818608E-02  0.8945798E-01
         -2   -1    0    0    0  501 -0.00000000000E+00  0.00000000000E+00  0.81757928160E+03  0.81757928161E+03  0.25500000000E-02 0. -1.
          2   -1    0    0  501    0  0.00000000000E+00 -0.00000000000E+00 -0.60890095139E+03  0.60890095140E+03  0.25500000000E-02 0.  1.
    -200001    2    1    2    0    0 -0.33051994298E+02  0.34379518853E+03  0.15894371527E+03  0.72112209851E+03  0.61275313981E+03 0.  0.
   -5000001    2    3    3    0    0  0.25939901281E+02  0.49609879141E+03  0.62794078057E+02  0.50636133875E+03  0.75311485306E+02 0.  0.
     200001    1    1    2    0    0  0.33051994298E+02 -0.34379518853E+03  0.49734614933E+02  0.70535813450E+03  0.61300000000E+03 0.  1.
         13    1    4    4    0    0  0.33421848021E+02  0.38961005503E+03  0.58491763744E+02  0.39539134095E+03  0.10566000000E+00 0.  1.
    -200003    1    4    4    0    0 -0.74819467393E+01  0.10648873638E+03  0.43023143131E+01  0.11096999780E+03  0.30000000000E+02 0.  1.
    -200000    1    3    3    0    0 -0.58991895579E+02 -0.15230360288E+03  0.96149637218E+02  0.21476075976E+03  0.10100000000E+03 0.  1.
<mgrwt>
<rscale>  0 0.14111340E+04</rscale>
<asrwt>0</asrwt>
<pdfrwt beam="1">  1        2 0.86985851E-01 0.14111340E+04</pdfrwt>
<pdfrwt beam="2">  1       -2 0.11679704E+00 0.14111340E+04</pdfrwt>
<totfact> 0.29484051E+01</totfact>
</mgrwt>
</event>
<event>
 8    2  0.4480234E-052  0.1366126E+04  0.7818608E-02  0.8978710E-01
         -2   -1    0    0    0  501 -0.00000000000E+00  0.00000000000E+00  0.13591253717E+03  0.13591253719E+03  0.25500000000E-02 0. -1.
          2   -1    0    0  501    0  0.00000000000E+00 -0.00000000000E+00 -0.34329074125E+04  0.34329074125E+04  0.25500000000E-02 0.  1.
    -200001    2    1    2    0    0 -0.27877312171E+03  0.11125513423E+03 -0.17221658605E+04  0.18524436553E+04  0.61286220834E+03 0.  0.
   -5000001    2    3    3    0    0 -0.15144978485E+03 -0.23479413831E+03 -0.59204063844E+03  0.65940327507E+03  0.78963516177E+02 0.  0.
     200001    1    1    2    0    0  0.27877312171E+03 -0.11125513423E+03 -0.15748290148E+04  0.17163762945E+04  0.61300000000E+03 0. -1.
         13    1    4    4    0    0 -0.81244379669E+02 -0.69902835626E+02 -0.25232491942E+03  0.27414399826E+03  0.10566000000E+00 0.  1.
    -200003    1    4    4    0    0 -0.70205405182E+02 -0.16489130268E+03 -0.33971571902E+03  0.38525927681E+03  0.30000000000E+02 0.  1.
    -200000    1    3    3    0    0 -0.12732333686E+03  0.34604927254E+03 -0.11301252221E+04  0.11930403802E+04  0.10100000000E+03 0. -1.
<mgrwt>
<rscale>  0 0.13661261E+04</rscale>
<asrwt>0</asrwt>
<pdfrwt beam="1">  1        2 0.49041529E+00 0.13661261E+04</pdfrwt>
<pdfrwt beam="2">  1       -2 0.19416079E-01 0.13661261E+04</pdfrwt>
<totfact> 0.29424856E+01</totfact>
</mgrwt>
</event>
<event>
 8    2  0.4480234E-052  0.1628604E+04  0.7818608E-02  0.8803165E-01
          2   -1    0    0  501    0  0.00000000000E+00  0.00000000000E+00  0.15657095651E+04  0.15657095651E+04  0.25500000000E-02 0.  1.
         -2   -1    0    0    0  501 -0.00000000000E+00 -0.00000000000E+00 -0.42350639660E+03  0.42350639661E+03  0.25500000000E-02 0. -1.
    -200001    2    1    2    0    0  0.77286466194E+02 -0.52606165616E+03  0.64902372341E+03  0.10396323535E+04  0.61391332687E+03 0.  0.
   -5000001    2    3    3    0    0  0.30488146090E+03 -0.13646449594E+03  0.23120684602E+03  0.41644909641E+03  0.91640495386E+02 0.  0.
     200001    1    1    2    0    0 -0.77286466194E+02  0.52606165616E+03  0.49317944506E+03  0.94958360820E+03  0.61300000000E+03 0. -1.
         13    1    4    4    0    0  0.12693649193E+03 -0.99437863210E+02  0.92920426636E+02  0.18610475135E+03  0.10566000000E+00 0.  1.
    -200003    1    4    4    0    0  0.17794496897E+03 -0.37026632731E+02  0.13828641939E+03  0.23034434506E+03  0.30000000000E+02 0.  1.
    -200000    1    3    3    0    0 -0.22759499471E+03 -0.38959716022E+03  0.41781687739E+03  0.62318325707E+03  0.10100000000E+03 0.  1.
<mgrwt>
<rscale>  0 0.16286043E+04</rscale>
<asrwt>0</asrwt>
<pdfrwt beam="1">  1        2 0.22367279E+00 0.16286043E+04</pdfrwt>
<pdfrwt beam="2">  1       -2 0.60500914E-01 0.16286043E+04</pdfrwt>
<totfact> 0.32915334E+01</totfact>
</mgrwt>
</event>
<event>
 8    2  0.4480234E-052  0.1646927E+04  0.7818608E-02  0.8792226E-01
         -2   -1    0    0    0  501 -0.00000000000E+00  0.00000000000E+00  0.29258021024E+03  0.29258021025E+03  0.25500000000E-02 0. -1.
          2   -1    0    0  501    0  0.00000000000E+00 -0.00000000000E+00 -0.23176281957E+04  0.23176281957E+04  0.25500000000E-02 0.  1.
    -200001    2    1    2    0    0  0.50617722136E+03  0.13171681208E+03 -0.74520662398E+03  0.10978170516E+04  0.61343676809E+03 0.  0.
   -5000001    2    3    3    0    0  0.51229974206E+03 -0.87633354392E+02 -0.34085006833E+03  0.62679984932E+03  0.81047217775E+02 0.  0.
     200001    1    1    2    0    0 -0.50617722136E+03 -0.13171681208E+03 -0.12798413614E+04  0.15123913543E+04  0.61300000000E+03 0.  1.
         13    1    4    4    0    0  0.32797564278E+03 -0.60653112530E+02 -0.25314963524E+03  0.41872612924E+03  0.10566000000E+00 0.  1.
    -200003    1    4    4    0    0  0.18432409928E+03 -0.26980241862E+02 -0.87700433092E+02  0.20807372009E+03  0.30000000000E+02 0.  1.
    -200000    1    3    3    0    0 -0.61225207001E+01  0.21935016647E+03 -0.40435655565E+03  0.47101720232E+03  0.10100000000E+03 0. -1.
<mgrwt>
<rscale>  0 0.16469270E+04</rscale>
<asrwt>0</asrwt>
<pdfrwt beam="1">  1        2 0.33108973E+00 0.16469270E+04</pdfrwt>
<pdfrwt beam="2">  1       -2 0.41797174E-01 0.16469270E+04</pdfrwt>
<totfact> 0.28547139E+01</totfact>
</mgrwt>
</event>
<event>
 8    2  0.4480234E-052  0.2310854E+04  0.7818608E-02  0.8473654E-01
         -2   -1    0    0    0  501 -0.00000000000E+00  0.00000000000E+00  0.34048499971E+03  0.34048499972E+03  0.25500000000E-02 0.  1.
          2   -1    0    0  501    0  0.00000000000E+00 -0.00000000000E+00 -0.39209102755E+04  0.39209102755E+04  0.25500000000E-02 0. -1.
    -200001    2    1    2    0    0 -0.51108543095E+03 -0.12041790903E+03 -0.26662285240E+03  0.85071143004E+03  0.61393273347E+03 0.  0.
   -5000001    2    3    3    0    0  0.80796427687E+02 -0.14472096249E+03  0.16776924498E+02  0.18630853530E+03  0.83409744135E+02 0.  0.
     200001    1    1    2    0    0  0.51108543095E+03  0.12041790903E+03 -0.33138024234E+04  0.34106838452E+04  0.61300000000E+03 0. -1.
         13    1    4    4    0    0  0.12014845852E+02 -0.40674702798E+02 -0.27559570705E+02  0.50579927541E+02  0.10566000000E+00 0.  1.
    -200003    1    4    4    0    0  0.68781581834E+02 -0.10404625970E+03  0.44336495204E+02  0.13572860776E+03  0.30000000000E+02 0. -1.
    -200000    1    3    3    0    0 -0.59188185864E+03  0.24303053462E+02 -0.28339977690E+03  0.66440289474E+03  0.10100000000E+03 0.  1.
<mgrwt>
<rscale>  0 0.23108536E+04</rscale>
<asrwt>0</asrwt>
<pdfrwt beam="1">  1        2 0.56013001E+00 0.23108536E+04</pdfrwt>
<pdfrwt beam="2">  1       -2 0.48640717E-01 0.23108536E+04</pdfrwt>
<totfact> 0.23552530E+00</totfact>
</mgrwt>
</event>
<event>
 8    2  0.4480234E-052  0.2191616E+04  0.7818608E-02  0.8521926E-01
          2   -1    0    0  501    0  0.00000000000E+00  0.00000000000E+00  0.20709386784E+04  0.20709386784E+04  0.25500000000E-02 0.  1.
         -2   -1    0    0    0  501 -0.00000000000E+00 -0.00000000000E+00 -0.57983138250E+03  0.57983138250E+03  0.25500000000E-02 0. -1.
    -200001    2    1    2    0    0 -0.28317682962E+03 -0.45873384651E+03  0.16298855882E+04  0.18227276265E+04  0.61252192681E+03 0.  0.
   -5000001    2    3    3    0    0 -0.62829247668E+02 -0.24890494179E+03  0.13928807357E+04  0.14240378645E+04  0.14787126647E+03 0.  0.
     200001    1    1    2    0    0  0.28317682962E+03  0.45873384651E+03 -0.13877829234E+03  0.82804243442E+03  0.61300000000E+03 0. -1.
         13    1    4    4    0    0  0.43858050184E+02 -0.11089633058E+03  0.56344148089E+03  0.57592346562E+03  0.10566000000E+00 0.  1.
    -200003    1    4    4    0    0 -0.10668729785E+03 -0.13800861121E+03  0.82943925476E+03  0.84811439891E+03  0.30000000000E+02 0. -1.
    -200000    1    3    3    0    0 -0.22034758195E+03 -0.20982890472E+03  0.23700485255E+03  0.39868976192E+03  0.10100000000E+03 0. -1.
<mgrwt>
<rscale>  0 0.21916161E+04</rscale>
<asrwt>0</asrwt>
<pdfrwt beam="1">  1        2 0.29584839E+00 0.21916161E+04</pdfrwt>
<pdfrwt beam="2">  1       -2 0.82833053E-01 0.21916161E+04</pdfrwt>
<totfact> 0.86580812E+00</totfact>
</mgrwt>
</event>
<event>
 8    2  0.4480234E-052  0.1301612E+04  0.7818608E-02  0.9028288E-01
          2   -1    0    0  501    0  0.00000000000E+00  0.00000000000E+00  0.27885940435E+04  0.27885940435E+04  0.25500000000E-02 0.  1.
         -2   -1    0    0    0  501 -0.00000000000E+00 -0.00000000000E+00 -0.15188609278E+03  0.15188609280E+03  0.25500000000E-02 0. -1.
    -200001    2    1    2    0    0  0.13352250474E+03 -0.46851671516E+02  0.16891403460E+04  0.18030810401E+04  0.61472171793E+03 0.  0.
   -5000001    2    3    3    0    0 -0.46912555048E+02  0.11504698330E+03  0.68555305834E+02  0.16135485786E+03  0.76804713456E+02 0.  0.
     200001    1    1    2    0    0 -0.13352250474E+03  0.46851671516E+02  0.94756760475E+03  0.11373990962E+04  0.61300000000E+03 0. -1.
         13    1    4    4    0    0 -0.61894462875E+01  0.44372197630E+02  0.58765008258E+02  0.73895456744E+02  0.10566000000E+00 0.  1.
    -200003    1    4    4    0    0 -0.40723108760E+02  0.70674785674E+02  0.97902975759E+01  0.87459401117E+02  0.30000000000E+02 0.  1.
    -200000    1    3    3    0    0  0.18043505979E+03 -0.16189865482E+03  0.16205850401E+04  0.16417261823E+04  0.10100000000E+03 0.  1.
<mgrwt>
<rscale>  0 0.13016123E+04</rscale>
<asrwt>0</asrwt>
<pdfrwt beam="1">  1        2 0.39837058E+00 0.13016123E+04</pdfrwt>
<pdfrwt beam="2">  1       -2 0.21698013E-01 0.13016123E+04</pdfrwt>
<totfact> 0.56354718E+01</totfact>
</mgrwt>
</event>
<event>
 8    2  0.4480234E-052  0.1776316E+04  0.7818608E-02  0.8718997E-01
         -2   -1    0    0    0  501 -0.00000000000E+00  0.00000000000E+00  0.24048135365E+04  0.24048135365E+04  0.25500000000E-02 0. -1.
          2   -1    0    0  501    0  0.00000000000E+00 -0.00000000000E+00 -0.32801897179E+03  0.32801897180E+03  0.25500000000E-02 0.  1.
    -200001    2    1    2    0    0  0.25471593389E+03  0.57383180557E+03  0.82521672860E+03  0.12043105988E+04  0.61255058657E+03 0.  0.
   -5000001    2    3    3    0    0  0.32905705644E+03  0.50585870070E+03  0.86308043155E+03  0.10567246730E+04  0.87107013011E+02 0.  0.
     200001    1    1    2    0    0 -0.25471593389E+03 -0.57383180557E+03  0.12515778361E+04  0.15285219095E+04  0.61300000000E+03 0.  1.
         13    1    4    4    0    0  0.26344139359E+02  0.73858017924E+02  0.14965629231E+03  0.16895572640E+03  0.10566000000E+00 0.  1.
    -200003    1    4    4    0    0  0.30271291708E+03  0.43200068278E+03  0.71342413925E+03  0.88776894660E+03  0.30000000000E+02 0.  1.
    -200000    1    3    3    0    0 -0.74341122547E+02  0.67973104874E+02 -0.37863702957E+02  0.14758592578E+03  0.10100000000E+03 0. -1.
<mgrwt>
<rscale>  0 0.17763158E+04</rscale>
<asrwt>0</asrwt>
<pdfrwt beam="1">  1        2 0.46859852E-01 0.17763158E+04</pdfrwt>
<pdfrwt beam="2">  1       -2 0.34354480E+00 0.17763158E+04</pdfrwt>
<totfact> 0.17556223E+00</totfact>
</mgrwt>
</event>
<event>
 8    2  0.4480234E-052  0.1476930E+04  0.7818608E-02  0.8899941E-01
          2   -1    0    0  501    0  0.00000000000E+00  0.00000000000E+00  0.11595077390E+04  0.11595077390E+04  0.25500000000E-02 0.  1.
         -2   -1    0    0    0  501 -0.00000000000E+00 -0.00000000000E+00 -0.47031206154E+03  0.47031206154E+03  0.25500000000E-02 0. -1.
    -200001    2    1    2    0    0 -0.24243899375E+03 -0.30671600945E+03  0.48744086595E+03  0.87528326723E+03  0.61291991642E+03 0.  0.
   -5000001    2    3    3    0    0 -0.39746044612E+03 -0.21737484109E+03  0.25708085755E+03  0.56660831113E+03  0.22299727162E+03 0.  0.
     200001    1    1    2    0    0  0.24243899375E+03  0.30671600945E+03  0.20175481152E+03  0.75453653332E+03  0.61300000000E+03 0.  1.
         13    1    4    4    0    0 -0.29495592521E+03 -0.23690958106E+03  0.13132069278E+03  0.40046258619E+03  0.10566000000E+00 0.  1.
    -200003    1    4    4    0    0 -0.10250452091E+03  0.19534739977E+02  0.12576016477E+03  0.16614572494E+03  0.30000000000E+02 0.  1.
    -200000    1    3    3    0    0  0.15502145236E+03 -0.89341168359E+02  0.23036000839E+03  0.30867495610E+03  0.10100000000E+03 0. -1.
<mgrwt>
<rscale>  0 0.14769299E+04</rscale>
<asrwt>0</asrwt>
<pdfrwt beam="1">  1        2 0.16564396E+00 0.14769299E+04</pdfrwt>
<pdfrwt beam="2">  1       -2 0.67187440E-01 0.14769299E+04</pdfrwt>
<totfact> 0.44432331E+01</totfact>
</mgrwt>
</event>
<event>
 8    2  0.4480234E-052  0.1437631E+04  0.7818608E-02  0.8927021E-01
         -2   -1    0    0    0  501 -0.00000000000E+00  0.00000000000E+00  0.26128629418E+03  0.26128629419E+03  0.25500000000E-02 0. -1.
          2   -1    0    0  501    0  0.00000000000E+00 -0.00000000000E+00 -0.19775087055E+04  0.19775087055E+04  0.25500000000E-02 0.  1.
    -200001    2    1    2    0    0 -0.19949015775E+03  0.16199516154E+03 -0.12841744850E+04  0.14460320048E+04  0.61307886580E+03 0.  0.
   -5000001    2    3    3    0    0 -0.10980441309E+03  0.31209543538E+03 -0.34136551769E+03  0.48184147707E+03  0.78614390751E+02 0.  0.
     200001    1    1    2    0    0  0.19949015775E+03 -0.16199516154E+03 -0.43204792634E+03  0.79276299488E+03  0.61300000000E+03 0.  1.
         13    1    4    4    0    0 -0.64530749908E+02  0.12448217728E+03 -0.10472152819E+03  0.17500468501E+03  0.10566000000E+00 0.  1.
    -200003    1    4    4    0    0 -0.45273663184E+02  0.18761325810E+03 -0.23664398951E+03  0.30683679206E+03  0.30000000000E+02 0.  1.
    -200000    1    3    3    0    0 -0.89685744653E+02 -0.15010027385E+03 -0.94280896732E+03  0.96419052778E+03  0.10100000000E+03 0.  1.
<mgrwt>
<rscale>  0 0.14376313E+04</rscale>
<asrwt>0</asrwt>
<pdfrwt beam="1">  1        2 0.28250123E+00 0.14376313E+04</pdfrwt>
<pdfrwt beam="2">  1       -2 0.37326615E-01 0.14376313E+04</pdfrwt>
<totfact> 0.54190307E+01</totfact>
</mgrwt>
</event>
<event>
 8    2  0.4480234E-052  0.1438381E+04  0.7818608E-02  0.8926495E-01
          2   -1    0    0  501    0  0.00000000000E+00  0.00000000000E+00  0.15322729842E+04  0.15322729842E+04  0.25500000000E-02 0.  1.
         -2   -1    0    0    0  501 -0.00000000000E+00 -0.00000000000E+00 -0.33756067404E+03  0.33756067405E+03  0.25500000000E-02 0. -1.
    -200001    2    1    2    0    0  0.19504142663E+02 -0.71021147047E+02  0.11723679935E+03  0.62800158775E+03  0.61254968140E+03 0.  0.
   -5000001    2    3    3    0    0  0.18680420411E+02  0.18418366046E+03 -0.14965921781E+03  0.24516395080E+03  0.58608040457E+02 0.  0.
     200001    1    1    2    0    0 -0.19504142663E+02  0.71021147047E+02  0.10774755108E+04  0.12418320705E+04  0.61300000000E+03 0.  1.
         13    1    4    4    0    0 -0.50112455561E+01  0.10055814756E+03 -0.62713684704E+02  0.11861733025E+03  0.10566000000E+00 0.  1.
    -200003    1    4    4    0    0  0.23691665968E+02  0.83625512908E+02 -0.86945533103E+02  0.12654662055E+03  0.30000000000E+02 0.  1.
    -200000    1    3    3    0    0  0.82372225162E+00 -0.25520480751E+03  0.26689601716E+03  0.38283763695E+03  0.10100000000E+03 0.  1.
<mgrwt>
<rscale>  0 0.14383812E+04</rscale>
<asrwt>0</asrwt>
<pdfrwt beam="1">  1        2 0.21889614E+00 0.14383812E+04</pdfrwt>
<pdfrwt beam="2">  1       -2 0.48222953E-01 0.14383812E+04</pdfrwt>
<totfact> 0.55609894E+01</totfact>
</mgrwt>
</event>
<event>
 8    2  0.4480234E-052  0.1438633E+04  0.7818608E-02  0.8926319E-01
         -2   -1    0    0    0  501 -0.00000000000E+00  0.00000000000E+00  0.18137733370E+03  0.18137733372E+03  0.25500000000E-02 0. -1.
          2   -1    0    0  501    0  0.00000000000E+00 -0.00000000000E+00 -0.28527065137E+04  0.28527065137E+04  0.25500000000E-02 0.  1.
    -200001    2    1    2    0    0 -0.22779267062E+03  0.15846365640E+03 -0.18723022767E+04  0.19894723295E+04  0.61276757686E+03 0.  0.
   -5000001    2    3    3    0    0 -0.50140708124E+02 -0.18183919640E+03 -0.11193024172E+04  0.11382520056E+04  0.84853657131E+02 0.  0.
     200001    1    1    2    0    0  0.22779267062E+03 -0.15846365640E+03 -0.79902690326E+03  0.10446115179E+04  0.61300000000E+03 0. -1.
         13    1    4    4    0    0 -0.59319458049E+02 -0.14806382092E+03 -0.91651366019E+03  0.93028973640E+03  0.10566000000E+00 0.  1.
    -200003    1    4    4    0    0  0.91787499246E+01 -0.33775375478E+02 -0.20278875697E+03  0.20796226916E+03  0.30000000000E+02 0.  1.
    -200000    1    3    3    0    0 -0.17765196250E+03  0.34030285280E+03 -0.75299985956E+03  0.85122032395E+03  0.10100000000E+03 0.  1.
<mgrwt>
<rscale>  0 0.14386331E+04</rscale>
<asrwt>0</asrwt>
<pdfrwt beam="1">  1        2 0.40752948E+00 0.14386331E+04</pdfrwt>
<pdfrwt beam="2">  1       -2 0.25911049E-01 0.14386331E+04</pdfrwt>
<totfact> 0.37357035E+01</totfact>
</mgrwt>
</event>
<event>
 8    2  0.4480234E-052  0.1775215E+04  0.7818608E-02  0.8719592E-01
         -2   -1    0    0    0  501 -0.00000000000E+00  0.00000000000E+00  0.19279662051E+04  0.19279662051E+04  0.25500000000E-02 0. -1.
          2   -1    0    0  501    0  0.00000000000E+00 -0.00000000000E+00 -0.40864133455E+03  0.40864133456E+03  0.25500000000E-02 0.  1.
    -200001    2    1    2    0    0 -0.38456698663E+03 -0.17975390718E+03  0.13933139626E+04  0.15803992461E+04  0.61329825060E+03 0.  0.
   -5000001    2    3    3    0    0  0.80071611439E+01  0.15778202708E+03  0.50999047380E+03  0.55156186615E+03  0.13845911355E+03 0.  0.
     200001    1    1    2    0    0  0.38456698663E+03  0.17975390718E+03  0.12601090789E+03  0.75620829357E+03  0.61300000000E+03 0.  1.
         13    1    4    4    0    0 -0.21014918998E+02  0.10913989119E+03  0.15441458573E+03  0.19025513954E+03  0.10566000000E+00 0.  1.
    -200003    1    4    4    0    0  0.29022080142E+02  0.48642135886E+02  0.35557588807E+03  0.36130672661E+03  0.30000000000E+02 0.  1.
    -200000    1    3    3    0    0 -0.39257414777E+03 -0.33753593426E+03  0.88332348882E+03  0.10288373799E+04  0.10100000000E+03 0. -1.
<mgrwt>
<rscale>  0 0.17752146E+04</rscale>
<asrwt>0</asrwt>
<pdfrwt beam="1">  1        2 0.58377334E-01 0.17752146E+04</pdfrwt>
<pdfrwt beam="2">  1       -2 0.27542374E+00 0.17752146E+04</pdfrwt>
<totfact> 0.35992825E+00</totfact>
</mgrwt>
</event>
<event>
 8    2  0.4480234E-052  0.1240901E+04  0.7818608E-02  0.9077791E-01
         -2   -1    0    0    0  501 -0.00000000000E+00  0.00000000000E+00  0.19452992910E+03  0.19452992911E+03  0.25500000000E-02 0. -1.
          2   -1    0    0  501    0  0.00000000000E+00 -0.00000000000E+00 -0.19789175733E+04  0.19789175733E+04  0.25500000000E-02 0.  1.
    -200001    2    1    2    0    0  0.60331446320E+02 -0.36885865473E+02 -0.81691977087E+03  0.10259443275E+04  0.61660635793E+03 0.  0.
   -5000001    2    3    3    0    0 -0.16094710065E+02 -0.28676127090E+03 -0.59369826141E+03  0.66774393961E+03  0.10446663151E+03 0.  0.
     200001    1    1    2    0    0 -0.60331446320E+02  0.36885865473E+02 -0.96746787336E+03  0.11475031749E+04  0.61300000000E+03 0.  1.
         13    1    4    4    0    0 -0.21457534084E+01 -0.44916511948E+01  0.36902612339E+01  0.61974494879E+01  0.10566000000E+00 0.  1.
    -200003    1    4    4    0    0 -0.13948956656E+02 -0.28226961970E+03 -0.59738852265E+03  0.66154649012E+03  0.30000000000E+02 0.  1.
    -200000    1    3    3    0    0  0.76426156385E+02  0.24987540542E+03 -0.22322150946E+03  0.35820038791E+03  0.10100000000E+03 0. -1.
<mgrwt>
<rscale>  0 0.12409008E+04</rscale>
<asrwt>0</asrwt>
<pdfrwt beam="1">  1        2 0.28270250E+00 0.12409008E+04</pdfrwt>
<pdfrwt beam="2">  1       -2 0.27789991E-01 0.12409008E+04</pdfrwt>
<totfact> 0.95734439E+01</totfact>
</mgrwt>
</event>
<event>
 8    2  0.4480234E-052  0.1305645E+04  0.7818608E-02  0.9025101E-01
          2   -1    0    0  501    0  0.00000000000E+00  0.00000000000E+00  0.92621078622E+03  0.92621078623E+03  0.25500000000E-02 0.  1.
         -2   -1    0    0    0  501 -0.00000000000E+00 -0.00000000000E+00 -0.46012957600E+03  0.46012957601E+03  0.25500000000E-02 0. -1.
    -200001    2    1    2    0    0 -0.11490588412E+03  0.16358520563E+03  0.12087672462E+03  0.65497272651E+03  0.61189427862E+03 0.  0.
   -5000001    2    3    3    0    0  0.99698587468E+02  0.29153533160E+03  0.17062833045E+03  0.38092430699E+03  0.14510907135E+03 0.  0.
     200001    1    1    2    0    0  0.11490588412E+03 -0.16358520563E+03  0.34520448560E+03  0.73136763573E+03  0.61300000000E+03 0. -1.
         13    1    4    4    0    0 -0.21069443253E+02  0.71729282210E+02 -0.23308205910E+01  0.74796091168E+02  0.10566000000E+00 0.  1.
    -200003    1    4    4    0    0  0.12076803072E+03  0.21980604939E+03  0.17295915104E+03  0.30612821582E+03  0.30000000000E+02 0.  1.
    -200000    1    3    3    0    0 -0.21460447159E+03 -0.12795012596E+03 -0.49751605834E+02  0.27404841952E+03  0.10100000000E+03 0. -1.
<mgrwt>
<rscale>  0 0.13056446E+04</rscale>
<asrwt>0</asrwt>
<pdfrwt beam="1">  1        2 0.13231582E+00 0.13056446E+04</pdfrwt>
<pdfrwt beam="2">  1       -2 0.65732798E-01 0.13056446E+04</pdfrwt>
<totfact> 0.65364582E+01</totfact>
</mgrwt>
</event>
<event>
 8    2  0.4480234E-052  0.1308820E+04  0.7818608E-02  0.9022600E-01
         -2   -1    0    0    0  501 -0.00000000000E+00  0.00000000000E+00  0.17503086050E+03  0.17503086051E+03  0.25500000000E-02 0. -1.
          2   -1    0    0  501    0  0.00000000000E+00 -0.00000000000E+00 -0.24467261998E+04  0.24467261998E+04  0.25500000000E-02 0.  1.
    -200001    2    1    2    0    0 -0.11048404657E+03  0.10347602652E+03 -0.14817469771E+04  0.16104700449E+04  0.61247501886E+03 0.  0.
   -5000001    2    3    3    0    0 -0.28050721320E+03  0.66412168417E+02 -0.13174515955E+04  0.13507094259E+04  0.75115736798E+02 0.  0.
     200001    1    1    2    0    0  0.11048404657E+03 -0.10347602652E+03 -0.78994836219E+03  0.10112870154E+04  0.61300000000E+03 0. -1.
         13    1    4    4    0    0 -0.15758206848E+03  0.12401341608E+02 -0.78617580649E+03  0.80190916659E+03  0.10566000000E+00 0.  1.
    -200003    1    4    4    0    0 -0.12292514473E+03  0.54010826810E+02 -0.53127578901E+03  0.54880025930E+03  0.30000000000E+02 0. -1.
    -200000    1    3    3    0    0  0.17002316663E+03  0.37063858107E+02 -0.16429538159E+03  0.25976061899E+03  0.10100000000E+03 0. -1.
<mgrwt>
<rscale>  0 0.13088202E+04</rscale>
<asrwt>0</asrwt>
<pdfrwt beam="1">  1        2 0.34953229E+00 0.13088202E+04</pdfrwt>
<pdfrwt beam="2">  1       -2 0.25004410E-01 0.13088202E+04</pdfrwt>
<totfact> 0.66279526E+01</totfact>
</mgrwt>
</event>
<event>
 8    2  0.4480234E-052  0.1536301E+04  0.7818608E-02  0.8860666E-01
         -2   -1    0    0    0  501 -0.00000000000E+00  0.00000000000E+00  0.95500608045E+03  0.95500608045E+03  0.25500000000E-02 0. -1.
          2   -1    0    0  501    0  0.00000000000E+00 -0.00000000000E+00 -0.61785473846E+03  0.61785473846E+03  0.25500000000E-02 0.  1.
    -200001    2    1    2    0    0  0.36292453283E+03 -0.28469421524E+03  0.13124764219E+03  0.77854957871E+03  0.61330945713E+03 0.  0.
   -5000001    2    3    3    0    0  0.40761065726E+03 -0.41462379243E+03  0.47542137058E+02  0.58858601290E+03  0.78191448520E+02 0.  0.
     200001    1    1    2    0    0 -0.36292453283E+03  0.28469421524E+03  0.20590369981E+03  0.79431124021E+03  0.61300000000E+03 0.  1.
         13    1    4    4    0    0  0.32635418611E+03 -0.31913928783E+03  0.53153782261E+02  0.45954572739E+03  0.10566000000E+00 0.  1.
    -200003    1    4    4    0    0  0.81256471150E+02 -0.95484504599E+02 -0.56116452022E+01  0.12904028551E+03  0.30000000000E+02 0. -1.
    -200000    1    3    3    0    0 -0.44686124435E+02  0.12992957719E+03  0.83705505128E+02  0.18996356581E+03  0.10100000000E+03 0.  1.
<mgrwt>
<rscale>  0 0.15363008E+04</rscale>
<asrwt>0</asrwt>
<pdfrwt beam="1">  1        2 0.88264962E-01 0.15363008E+04</pdfrwt>
<pdfrwt beam="2">  1       -2 0.13642944E+00 0.15363008E+04</pdfrwt>
<totfact> 0.19420557E+01</totfact>
</mgrwt>
</event>
<event>
 8    2  0.4480234E-052  0.1496892E+04  0.7818608E-02  0.8886523E-01
          2   -1    0    0  501    0  0.00000000000E+00  0.00000000000E+00  0.82947099443E+03  0.82947099443E+03  0.25500000000E-02 0.  1.
         -2   -1    0    0    0  501 -0.00000000000E+00 -0.00000000000E+00 -0.67533543397E+03  0.67533543398E+03  0.25500000000E-02 0. -1.
    -200001    2    1    2    0    0  0.31570682820E+03 -0.24798334478E+03  0.23036025015E+03  0.76809363228E+03  0.61297262781E+03 0.  0.
   -5000001    2    3    3    0    0  0.26209383942E+03  0.83732876993E+02  0.29867186448E+03  0.41063387090E+03  0.60917304190E+02 0.  0.
     200001    1    1    2    0    0 -0.31570682820E+03  0.24798334478E+03 -0.76224689695E+02  0.73671279613E+03  0.61300000000E+03 0. -1.
         13    1    4    4    0    0  0.82063615091E+02  0.48176421630E+02  0.87623687109E+02  0.12935735862E+03  0.10566000000E+00 0.  1.
    -200003    1    4    4    0    0  0.18003022433E+03  0.35556455363E+02  0.21104817737E+03  0.28127651228E+03  0.30000000000E+02 0.  1.
    -200000    1    3    3    0    0  0.53612988775E+02 -0.33171622177E+03 -0.68311614327E+02  0.35745976138E+03  0.10100000000E+03 0. -1.
<mgrwt>
<rscale>  0 0.14968917E+04</rscale>
<asrwt>0</asrwt>
<pdfrwt beam="1">  1        2 0.11849586E+00 0.14968917E+04</pdfrwt>
<pdfrwt beam="2">  1       -2 0.96476490E-01 0.14968917E+04</pdfrwt>
<totfact> 0.31569344E+01</totfact>
</mgrwt>
</event>
<event>
 8    2  0.4480234E-052  0.1486742E+04  0.7818608E-02  0.8893318E-01
          2   -1    0    0  501    0  0.00000000000E+00  0.00000000000E+00  0.85438622224E+03  0.85438622225E+03  0.25500000000E-02 0.  1.
         -2   -1    0    0    0  501 -0.00000000000E+00 -0.00000000000E+00 -0.64678032293E+03  0.64678032294E+03  0.25500000000E-02 0. -1.
    -200001    2    1    2    0    0  0.34632419167E+02  0.22096509769E+03  0.46344367362E+03  0.80027643567E+03  0.61289261377E+03 0.  0.
   -5000001    2    3    3    0    0 -0.42971725114E+02  0.33344613959E+03  0.51703527242E+03  0.62209830161E+03  0.81534819381E+02 0.  0.
     200001    1    1    2    0    0 -0.34632419167E+02 -0.22096509769E+03 -0.25583777431E+03  0.70089010952E+03  0.61300000000E+03 0. -1.
         13    1    4    4    0    0  0.25265635431E+01  0.90438637982E+02  0.89167674822E+02  0.12702919413E+03  0.10566000000E+00 0.  1.
    -200003    1    4    4    0    0 -0.45498288657E+02  0.24300750161E+03  0.42786759759E+03  0.49506910748E+03  0.30000000000E+02 0.  1.
    -200000    1    3    3    0    0  0.77604144281E+02 -0.11248104190E+03 -0.53591598798E+02  0.17817813406E+03  0.10100000000E+03 0.  1.
<mgrwt>
<rscale>  0 0.14867417E+04</rscale>
<asrwt>0</asrwt>
<pdfrwt beam="1">  1        2 0.12205517E+00 0.14867417E+04</pdfrwt>
<pdfrwt beam="2">  1       -2 0.92397189E-01 0.14867417E+04</pdfrwt>
<totfact> 0.33607156E+01</totfact>
</mgrwt>
</event>
<event>
 8    2  0.4480234E-052  0.2065301E+04  0.7818608E-02  0.8576684E-01
         -2   -1    0    0    0  501 -0.00000000000E+00  0.00000000000E+00  0.76705136053E+03  0.76705136053E+03  0.25500000000E-02 0. -1.
          2   -1    0    0  501    0  0.00000000000E+00 -0.00000000000E+00 -0.13902160621E+04  0.13902160621E+04  0.25500000000E-02 0.  1.
    -200001    2    1    2    0    0  0.55555230082E+03 -0.61727300421E+03 -0.36431053948E+03  0.10931063456E+04  0.61032367885E+03 0.  0.
   -5000001    2    3    3    0    0  0.36446701028E+03 -0.11413278127E+01 -0.12271137890E+03  0.39690020853E+03  0.98153903663E+02 0.  0.
     200001    1    1    2    0    0 -0.55555230082E+03  0.61727300421E+03 -0.25885416213E+03  0.10641610771E+04  0.61300000000E+03 0. -1.
         13    1    4    4    0    0  0.40597125527E+02  0.19708191865E+02  0.78358176685E+01  0.45803391034E+02  0.10566000000E+00 0.  1.
    -200003    1    4    4    0    0  0.32386988476E+03 -0.20849519678E+02 -0.13054719657E+03  0.35109681749E+03  0.30000000000E+02 0.  1.
    -200000    1    3    3    0    0  0.19108529054E+03 -0.61613167639E+03 -0.24159916058E+03  0.69620613708E+03  0.10100000000E+03 0.  1.
<mgrwt>
<rscale>  0 0.20653011E+04</rscale>
<asrwt>0</asrwt>
<pdfrwt beam="1">  1        2 0.19860229E+00 0.20653011E+04</pdfrwt>
<pdfrwt beam="2">  1       -2 0.10957877E+00 0.20653011E+04</pdfrwt>
<totfact> 0.10310680E+01</totfact>
</mgrwt>
</event>
<event>
 8    2  0.4480234E-052  0.1312338E+04  0.7818608E-02  0.9019838E-01
          2   -1    0    0  501    0  0.00000000000E+00  0.00000000000E+00  0.88449787064E+03  0.88449787064E+03  0.25500000000E-02 0.  1.
         -2   -1    0    0    0  501 -0.00000000000E+00 -0.00000000000E+00 -0.48678202120E+03  0.48678202120E+03  0.25500000000E-02 0. -1.
    -200001    2    1    2    0    0  0.16610059055E+03  0.83884273010E+02  0.34617440343E+03  0.72858906563E+03  0.61349762146E+03 0.  0.
   -5000001    2    3    3    0    0 -0.99363251349E+02  0.25022360721E+03  0.72390375627E+02  0.30045530227E+03  0.11201835944E+03 0.  0.
     200001    1    1    2    0    0 -0.16610059055E+03 -0.83884273010E+02  0.51541446010E+02  0.64269082621E+03  0.61300000000E+03 0. -1.
         13    1    4    4    0    0 -0.73667604888E+02  0.19450058412E+03  0.94799244847E+02  0.22857012320E+03  0.10566000000E+00 0.  1.
    -200003    1    4    4    0    0 -0.25695646461E+02  0.55723023088E+02 -0.22408869220E+02  0.71885179063E+02  0.30000000000E+02 0. -1.
    -200000    1    3    3    0    0  0.26546384190E+03 -0.16633933420E+03  0.27378402780E+03  0.42813376337E+03  0.10100000000E+03 0.  1.
<mgrwt>
<rscale>  0 0.13123379E+04</rscale>
<asrwt>0</asrwt>
<pdfrwt beam="1">  1        2 0.12635684E+00 0.13123379E+04</pdfrwt>
<pdfrwt beam="2">  1       -2 0.69540289E-01 0.13123379E+04</pdfrwt>
<totfact> 0.61570283E+01</totfact>
</mgrwt>
</event>
<event>
 8    2  0.4480234E-052  0.1590143E+04  0.7818608E-02  0.8826626E-01
          2   -1    0    0  501    0  0.00000000000E+00  0.00000000000E+00  0.22078175532E+04  0.22078175532E+04  0.25500000000E-02 0.  1.
         -2   -1    0    0    0  501 -0.00000000000E+00 -0.00000000000E+00 -0.28631850793E+03  0.28631850794E+03  0.25500000000E-02 0. -1.
    -200001    2    1    2    0    0 -0.16525461790E+03  0.47249892773E+03  0.10970667087E+04  0.13513228643E+04  0.60988014774E+03 0.  0.
   -5000001    2    3    3    0    0 -0.16903916424E+03  0.40519422983E+03  0.11384600710E+04  0.12230315723E+04  0.83416369305E+02 0.  0.
     200001    1    1    2    0    0  0.16525461790E+03 -0.47249892773E+03  0.82443233653E+03  0.11428131969E+04  0.61300000000E+03 0. -1.
         13    1    4    4    0    0 -0.21006877210E+01  0.74730003301E+02  0.16658768005E+03  0.18259368169E+03  0.10566000000E+00 0.  1.
    -200003    1    4    4    0    0 -0.16693847652E+03  0.33046422653E+03  0.97187239095E+03  0.10404378906E+04  0.30000000000E+02 0.  1.
    -200000    1    3    3    0    0  0.37845463430E+01  0.67304697893E+02 -0.41393362264E+02  0.12829129195E+03  0.10100000000E+03 0. -1.
<mgrwt>
<rscale>  0 0.15901434E+04</rscale>
<asrwt>0</asrwt>
<pdfrwt beam="1">  1        2 0.31540252E+00 0.15901434E+04</pdfrwt>
<pdfrwt beam="2">  1       -2 0.40902642E-01 0.15901434E+04</pdfrwt>
<totfact> 0.34109012E+01</totfact>
</mgrwt>
</event>
<event>
 8    2  0.4480234E-052  0.1516722E+04  0.7818608E-02  0.8873409E-01
         -2   -1    0    0    0  501 -0.00000000000E+00  0.00000000000E+00  0.39476043014E+03  0.39476043015E+03  0.25500000000E-02 0. -1.
          2   -1    0    0  501    0  0.00000000000E+00 -0.00000000000E+00 -0.14568615472E+04  0.14568615472E+04  0.25500000000E-02 0.  1.
    -200001    2    1    2    0    0 -0.32171028350E+02  0.33976981781E+03 -0.88155699234E+03  0.11271610156E+04  0.61389797213E+03 0.  0.
   -5000001    2    3    3    0    0 -0.10432561884E+03  0.59100377874E+02 -0.47790181114E+02  0.23870746310E+03  0.20080005508E+03 0.  0.
     200001    1    1    2    0    0  0.32171028350E+02 -0.33976981781E+03 -0.18054412475E+03  0.72446096178E+03  0.61300000000E+03 0. -1.
         13    1    4    4    0    0  0.32019612647E+02  0.42862888290E+02  0.45318895981E+02  0.70116305404E+02  0.10566000000E+00 0.  1.
    -200003    1    4    4    0    0 -0.13634523148E+03  0.16237489584E+02 -0.93109077095E+02  0.16859115770E+03  0.30000000000E+02 0.  1.
    -200000    1    3    3    0    0  0.72154590486E+02  0.28066943994E+03 -0.83376681123E+03  0.88845355250E+03  0.10100000000E+03 0.  1.
<mgrwt>
<rscale>  0 0.15167218E+04</rscale>
<asrwt>0</asrwt>
<pdfrwt beam="1">  1        2 0.20812307E+00 0.15167218E+04</pdfrwt>
<pdfrwt beam="2">  1       -2 0.56394348E-01 0.15167218E+04</pdfrwt>
<totfact> 0.43962623E+01</totfact>
</mgrwt>
</event>
<event>
 8    2  0.4480234E-052  0.1507018E+04  0.7818608E-02  0.8879799E-01
          2   -1    0    0  501    0  0.00000000000E+00  0.00000000000E+00  0.12494151583E+04  0.12494151583E+04  0.25500000000E-02 0.  1.
         -2   -1    0    0    0  501 -0.00000000000E+00 -0.00000000000E+00 -0.45443338286E+03  0.45443338286E+03  0.25500000000E-02 0. -1.
    -200001    2    1    2    0    0 -0.68684822199E+02 -0.41196099421E+03  0.24874967063E+03  0.78267104584E+03  0.61340696264E+03 0.  0.
   -5000001    2    3    3    0    0  0.11201986677E+03 -0.43001341565E+03 -0.11496115712E+02  0.44964110148E+03  0.67712415949E+02 0.  0.
     200001    1    1    2    0    0  0.68684822199E+02  0.41196099421E+03  0.54623210481E+03  0.92117749532E+03  0.61300000000E+03 0. -1.
         13    1    4    4    0    0  0.40373462894E+02 -0.20875094925E+03 -0.28521434550E+02  0.21452379521E+03  0.10566000000E+00 0.  1.
    -200003    1    4    4    0    0  0.71646403875E+02 -0.22126246640E+03  0.17025318839E+02  0.23511730627E+03  0.30000000000E+02 0.  1.
    -200000    1    3    3    0    0 -0.18070468897E+03  0.18052421439E+02  0.26024578634E+03  0.33302994436E+03  0.10100000000E+03 0.  1.
<mgrwt>
<rscale>  0 0.15070182E+04</rscale>
<asrwt>0</asrwt>
<pdfrwt beam="1">  1        2 0.17848788E+00 0.15070182E+04</pdfrwt>
<pdfrwt beam="2">  1       -2 0.64919055E-01 0.15070182E+04</pdfrwt>
<totfact> 0.42427544E+01</totfact>
</mgrwt>
</event>
<event>
 8    2  0.4480234E-052  0.1515503E+04  0.7818608E-02  0.8874209E-01
         -2   -1    0    0    0  501 -0.00000000000E+00  0.00000000000E+00  0.56881352243E+03  0.56881352244E+03  0.25500000000E-02 0. -1.
          2   -1    0    0  501    0  0.00000000000E+00 -0.00000000000E+00 -0.10094470890E+04  0.10094470890E+04  0.25500000000E-02 0.  1.
    -200001    2    1    2    0    0  0.10876972479E+03  0.43182955617E+03 -0.22781258160E+03  0.79126036349E+03  0.61309605437E+03 0.  0.
   -5000001    2    3    3    0    0  0.82656751389E+02 -0.12947519939E+03 -0.95149605847E+02  0.20513291904E+03  0.97108708025E+02 0.  0.
     200001    1    1    2    0    0 -0.10876972479E+03 -0.43182955617E+03 -0.21282098494E+03  0.78700024793E+03  0.61300000000E+03 0. -1.
         13    1    4    4    0    0  0.26149722709E+01 -0.55945698547E+01 -0.46569851808E+02  0.46977649508E+02  0.10566000000E+00 0.  1.
    -200003    1    4    4    0    0  0.80041779118E+02 -0.12388062954E+03 -0.48579754039E+02  0.15815526954E+03  0.30000000000E+02 0.  1.
    -200000    1    3    3    0    0  0.26112973396E+02  0.56130475556E+03 -0.13266297575E+03  0.58612744445E+03  0.10100000000E+03 0. -1.
<mgrwt>
<rscale>  0 0.15155028E+04</rscale>
<asrwt>0</asrwt>
<pdfrwt beam="1">  1        2 0.14420673E+00 0.15155028E+04</pdfrwt>
<pdfrwt beam="2">  1       -2 0.81259075E-01 0.15155028E+04</pdfrwt>
<totfact> 0.35763303E+01</totfact>
</mgrwt>
</event>
<event>
 8    2  0.4480234E-052  0.1324469E+04  0.7818608E-02  0.9010383E-01
          2   -1    0    0  501    0  0.00000000000E+00  0.00000000000E+00  0.31040458226E+04  0.31040458226E+04  0.25500000000E-02 0.  1.
         -2   -1    0    0    0  501 -0.00000000000E+00 -0.00000000000E+00 -0.14128474967E+03  0.14128474970E+03  0.25500000000E-02 0. -1.
    -200001    2    1    2    0    0  0.95718836342E+01  0.21878519022E+03  0.17806489405E+04  0.18958430125E+04  0.61282256674E+03 0.  0.
   -5000001    2    3    3    0    0  0.26803427694E+03  0.22816439811E+03  0.11333409834E+04  0.11914997938E+04  0.10634193893E+03 0.  0.
     200001    1    1    2    0    0 -0.95718836342E+01 -0.21878519022E+03  0.11821121323E+04  0.13494875597E+04  0.61300000000E+03 0. -1.
         13    1    4    4    0    0  0.39617994406E+01  0.42734666033E+02  0.11014500523E+03  0.11821117070E+03  0.10566000000E+00 0.  1.
    -200003    1    4    4    0    0  0.26407247750E+03  0.18542973208E+03  0.10231959781E+04  0.10732886231E+04  0.30000000000E+02 0.  1.
    -200000    1    3    3    0    0 -0.25846239330E+03 -0.93792078863E+01  0.64730795719E+03  0.70434321870E+03  0.10100000000E+03 0.  1.
<mgrwt>
<rscale>  0 0.13244687E+04</rscale>
<asrwt>0</asrwt>
<pdfrwt beam="1">  1        2 0.44343517E+00 0.13244687E+04</pdfrwt>
<pdfrwt beam="2">  1       -2 0.20183533E-01 0.13244687E+04</pdfrwt>
<totfact> 0.42826247E+01</totfact>
</mgrwt>
</event>
<event>
 8    2  0.4480234E-052  0.1472737E+04  0.7818608E-02  0.8902787E-01
         -2   -1    0    0    0  501 -0.00000000000E+00  0.00000000000E+00  0.27041308013E+03  0.27041308015E+03  0.25500000000E-02 0. -1.
          2   -1    0    0  501    0  0.00000000000E+00 -0.00000000000E+00 -0.20052240676E+04  0.20052240676E+04  0.25500000000E-02 0.  1.
    -200001    2    1    2    0    0  0.40381320771E+03 -0.38752944163E+02 -0.94789847836E+03  0.11988051300E+04  0.61160061894E+03 0.  0.
   -5000001    2    3    3    0    0 -0.59157494825E+02 -0.12406700860E+03 -0.56091907649E+03  0.58108802773E+03  0.64349466075E+02 0.  0.
     200001    1    1    2    0    0 -0.40381320771E+03  0.38752944163E+02 -0.78691250908E+03  0.10768320177E+04  0.61300000000E+03 0.  1.
         13    1    4    4    0    0  0.71161594328E+01 -0.10279788915E+02 -0.20187046107E+02  0.23745352804E+02  0.10566000000E+00 0.  1.
    -200003    1    4    4    0    0 -0.66273654257E+02 -0.11378721969E+03 -0.54073203038E+03  0.55734267493E+03  0.30000000000E+02 0.  1.
    -200000    1    3    3    0    0  0.46297070253E+03  0.85314064437E+02 -0.38697940187E+03  0.61771710229E+03  0.10100000000E+03 0. -1.
<mgrwt>
<rscale>  0 0.14727373E+04</rscale>
<asrwt>0</asrwt>
<pdfrwt beam="1">  1        2 0.28646057E+00 0.14727373E+04</pdfrwt>
<pdfrwt beam="2">  1       -2 0.38630441E-01 0.14727373E+04</pdfrwt>
<totfact> 0.48935612E+01</totfact>
</mgrwt>
</event>
<event>
 8    2  0.4480234E-052  0.1297460E+04  0.7818608E-02  0.9031582E-01
         -2   -1    0    0    0  501 -0.00000000000E+00  0.00000000000E+00  0.15663541151E+03  0.15663541153E+03  0.25500000000E-02 0. -1.
          2   -1    0    0  501    0  0.00000000000E+00 -0.00000000000E+00 -0.26868166801E+04  0.26868166801E+04  0.25500000000E-02 0.  1.
    -200001    2    1    2    0    0  0.34989758550E+02 -0.18601681739E+02 -0.80630785819E+03  0.10134032287E+04  0.61260381644E+03 0.  0.
   -5000001    2    3    3    0    0 -0.19681780616E+03  0.16160840175E+03 -0.55134110880E+03  0.61163281594E+03  0.72547632225E+02 0.  0.
     200001    1    1    2    0    0 -0.34989758550E+02  0.18601681739E+02 -0.17238734104E+04  0.18300488630E+04  0.61300000000E+03 0.  1.
         13    1    4    4    0    0 -0.33094133502E+02  0.43801849224E+02 -0.70620455331E+02  0.89448776084E+02  0.10566000000E+00 0.  1.
    -200003    1    4    4    0    0 -0.16372367265E+03  0.11780655253E+03 -0.48072065347E+03  0.52218403986E+03  0.30000000000E+02 0. -1.
    -200000    1    3    3    0    0  0.23180756471E+03 -0.18021008349E+03 -0.25496674939E+03  0.40177041273E+03  0.10100000000E+03 0.  1.
<mgrwt>
<rscale>  0 0.12974600E+04</rscale>
<asrwt>0</asrwt>
<pdfrwt beam="1">  1        2 0.38383093E+00 0.12974600E+04</pdfrwt>
<pdfrwt beam="2">  1       -2 0.22376489E-01 0.12974600E+04</pdfrwt>
<totfact> 0.60517601E+01</totfact>
</mgrwt>
</event>
<event>
 8    2  0.4480234E-052  0.1312850E+04  0.7818608E-02  0.9019436E-01
         -2   -1    0    0    0  501 -0.00000000000E+00  0.00000000000E+00  0.41491597338E+03  0.41491597338E+03  0.25500000000E-02 0. -1.
          2   -1    0    0  501    0  0.00000000000E+00 -0.00000000000E+00 -0.10385092994E+04  0.10385092994E+04  0.25500000000E-02 0.  1.
    -200001    2    1    2    0    0  0.23289929899E+03 -0.28607504026E+02 -0.30629372124E+03  0.72437896979E+03  0.61306490313E+03 0.  0.
   -5000001    2    3    3    0    0  0.22960650743E+03  0.16605211003E+03 -0.38590705703E+03  0.49104982232E+03  0.10914769732E+03 0.  0.
     200001    1    1    2    0    0 -0.23289929899E+03  0.28607504026E+02 -0.31729960483E+03  0.72904630304E+03  0.61300000000E+03 0.  1.
         13    1    4    4    0    0  0.36707620925E+02  0.46260517060E+02 -0.15475691962E+03  0.16564178279E+03  0.10566000000E+00 0.  1.
    -200003    1    4    4    0    0  0.19289888650E+03  0.11979159297E+03 -0.23115013741E+03  0.32540803953E+03  0.30000000000E+02 0.  1.
    -200000    1    3    3    0    0  0.32927915604E+01 -0.19465961406E+03  0.79613335796E+02  0.23332914747E+03  0.10100000000E+03 0.  1.
<mgrwt>
<rscale>  0 0.13128505E+04</rscale>
<asrwt>0</asrwt>
<pdfrwt beam="1">  1        2 0.14835847E+00 0.13128505E+04</pdfrwt>
<pdfrwt beam="2">  1       -2 0.59273711E-01 0.13128505E+04</pdfrwt>
<totfact> 0.69286273E+01</totfact>
</mgrwt>
</event>
<event>
 8    2  0.4480234E-052  0.1487703E+04  0.7818608E-02  0.8892672E-01
          2   -1    0    0  501    0  0.00000000000E+00  0.00000000000E+00  0.28490661841E+04  0.28490661841E+04  0.25500000000E-02 0.  1.
         -2   -1    0    0    0  501 -0.00000000000E+00 -0.00000000000E+00 -0.19420929555E+03  0.19420929556E+03  0.25500000000E-02 0. -1.
    -200001    2    1    2    0    0  0.67925078561E+02 -0.41334127582E+03  0.14193806274E+04  0.16018749737E+04  0.61310459096E+03 0.  0.
   -5000001    2    3    3    0    0  0.11578593798E+03  0.11005271853E+03  0.56845004842E+03  0.59663083153E+03  0.85527231334E+02 0.  0.
     200001    1    1    2    0    0 -0.67925078561E+02  0.41334127582E+03  0.12354762611E+04  0.14414005059E+04  0.61300000000E+03 0. -1.
         13    1    4    4    0    0  0.61305045421E+02  0.82849425695E+01  0.20196971651E+03  0.21123145225E+03  0.10566000000E+00 0.  1.
    -200003    1    4    4    0    0  0.54480892558E+02  0.10176777596E+03  0.36648033190E+03  0.38539937928E+03  0.30000000000E+02 0.  1.
    -200000    1    3    3    0    0 -0.47860859418E+02 -0.52339399435E+03  0.85093057898E+03  0.10052441422E+04  0.10100000000E+03 0. -1.
<mgrwt>
<rscale>  0 0.14877031E+04</rscale>
<asrwt>0</asrwt>
<pdfrwt beam="1">  1        2 0.40700943E+00 0.14877031E+04</pdfrwt>
<pdfrwt beam="2">  1       -2 0.27744187E-01 0.14877031E+04</pdfrwt>
<totfact> 0.32971095E+01</totfact>
</mgrwt>
</event>
<event>
 8    2  0.4480234E-052  0.1332454E+04  0.7818608E-02  0.9004217E-01
         -2   -1    0    0    0  501 -0.00000000000E+00  0.00000000000E+00  0.28917647653E+03  0.28917647654E+03  0.25500000000E-02 0. -1.
          2   -1    0    0  501    0  0.00000000000E+00 -0.00000000000E+00 -0.15349056025E+04  0.15349056025E+04  0.25500000000E-02 0.  1.
    -200001    2    1    2    0    0 -0.13066486970E+03  0.22882182417E+03 -0.59044106339E+03  0.88887933078E+03  0.60996153974E+03 0.  0.
   -5000001    2    3    3    0    0 -0.14494334168E+03 -0.17440833537E+03 -0.16343442543E+03  0.29278025748E+03  0.87078286692E+02 0.  0.
     200001    1    1    2    0    0  0.13066486970E+03 -0.22882182417E+03 -0.65528806254E+03  0.93520274823E+03  0.61300000000E+03 0. -1.
         13    1    4    4    0    0 -0.13309746322E+03 -0.14320747871E+03 -0.14840976419E+03  0.24545628113E+03  0.10566000000E+00 0.  1.
    -200003    1    4    4    0    0 -0.11845878459E+02 -0.31200856658E+02 -0.15024661239E+02  0.47323976355E+02  0.30000000000E+02 0. -1.
    -200000    1    3    3    0    0  0.14278471973E+02  0.40323015954E+03 -0.42700663796E+03  0.59609907330E+03  0.10100000000E+03 0.  1.
<mgrwt>
<rscale>  0 0.13324543E+04</rscale>
<asrwt>0</asrwt>
<pdfrwt beam="1">  1        2 0.21927222E+00 0.13324543E+04</pdfrwt>
<pdfrwt beam="2">  1       -2 0.41310926E-01 0.13324543E+04</pdfrwt>
<totfact> 0.76049035E+01</totfact>
</mgrwt>
</event>
<event>
 8    2  0.4480234E-052  0.2177530E+04  0.7818608E-02  0.8527839E-01
         -2   -1    0    0    0  501 -0.00000000000E+00  0.00000000000E+00  0.10408781756E+04  0.10408781756E+04  0.25500000000E-02 0.  1.
          2   -1    0    0  501    0  0.00000000000E+00 -0.00000000000E+00 -0.11388547979E+04  0.11388547979E+04  0.25500000000E-02 0. -1.
    -200001    2    1    2    0    0 -0.89436916680E+03  0.52892736581E+02  0.34404697396E+02  0.10861207652E+04  0.61300961281E+03 0.  0.
   -5000001    2    3    3    0    0 -0.72155500416E+03 -0.18924382372E+03 -0.30142294882E+02  0.76539944875E+03  0.16873917554E+03 0.  0.
     200001    1    1    2    0    0  0.89436916680E+03 -0.52892736581E+02 -0.13238131968E+03  0.10936122082E+04  0.61300000000E+03 0.  1.
         13    1    4    4    0    0 -0.31417634432E+03 -0.23022629741E+02  0.44416249696E+02  0.31813461178E+03  0.10566000000E+00 0.  1.
    -200003    1    4    4    0    0 -0.40737865984E+03 -0.16622119398E+03 -0.74558544577E+02  0.44726483697E+03  0.30000000000E+02 0.  1.
    -200000    1    3    3    0    0 -0.17281416264E+03  0.24213656030E+03  0.64546992277E+02  0.32072131650E+03  0.10100000000E+03 0.  1.
<mgrwt>
<rscale>  0 0.21775299E+04</rscale>
<asrwt>0</asrwt>
<pdfrwt beam="1">  1        2 0.16269354E+00 0.21775299E+04</pdfrwt>
<pdfrwt beam="2">  1       -2 0.14869688E+00 0.21775299E+04</pdfrwt>
<totfact> 0.65388759E+00</totfact>
</mgrwt>
</event>
<event>
 8    2  0.4480234E-052  0.1272679E+04  0.7818608E-02  0.9051516E-01
         -2   -1    0    0    0  501 -0.00000000000E+00  0.00000000000E+00  0.88900688222E+02  0.88900688258E+02  0.25500000000E-02 0. -1.
          2   -1    0    0  501    0  0.00000000000E+00 -0.00000000000E+00 -0.45548333001E+04  0.45548333001E+04  0.25500000000E-02 0.  1.
    -200001    2    1    2    0    0  0.10949269006E+03  0.81208192828E+02 -0.18685623694E+04  0.19715280464E+04  0.61385184664E+03 0.  0.
   -5000001    2    3    3    0    0 -0.16835287194E+03 -0.82505031370E+02 -0.38118292137E+03  0.44624158198E+03  0.13667977265E+03 0.  0.
     200001    1    1    2    0    0 -0.10949269006E+03 -0.81208192828E+02 -0.25973702425E+04  0.26722059420E+04  0.61300000000E+03 0. -1.
         13    1    4    4    0    0 -0.49800778564E+01  0.30551719617E+02 -0.45937854129E+02  0.55394100344E+02  0.10566000000E+00 0.  1.
    -200003    1    4    4    0    0 -0.16337279409E+03 -0.11305675099E+03 -0.33524506724E+03  0.39084748164E+03  0.30000000000E+02 0.  1.
    -200000    1    3    3    0    0  0.27784556200E+03  0.16371322420E+03 -0.14873794480E+04  0.15252864644E+04  0.10100000000E+03 0.  1.
<mgrwt>
<rscale>  0 0.12726788E+04</rscale>
<asrwt>0</asrwt>
<pdfrwt beam="1">  1        2 0.65069033E+00 0.12726788E+04</pdfrwt>
<pdfrwt beam="2">  1       -2 0.12700101E-01 0.12726788E+04</pdfrwt>
<totfact> 0.10444052E+01</totfact>
</mgrwt>
</event>
<event>
 8    2  0.4480234E-052  0.1836851E+04  0.7818608E-02  0.8686944E-01
         -2   -1    0    0    0  501 -0.00000000000E+00  0.00000000000E+00  0.11774155735E+04  0.11774155735E+04  0.25500000000E-02 0. -1.
          2   -1    0    0  501    0  0.00000000000E+00 -0.00000000000E+00 -0.71640453496E+03  0.71640453497E+03  0.25500000000E-02 0.  1.
    -200001    2    1    2    0    0 -0.27779243999E+03 -0.30181163286E+03 -0.33347632854E+03  0.80973612745E+03  0.61335734523E+03 0.  0.
   -5000001    2    3    3    0    0 -0.80606009365E+02 -0.38923436689E+02 -0.43197710353E+03  0.45211049249E+03  0.98930868664E+02 0.  0.
     200001    1    1    2    0    0  0.27779243999E+03  0.30181163286E+03  0.79448736705E+03  0.10840839810E+04  0.61300000000E+03 0. -1.
         13    1    4    4    0    0  0.21126085507E+02 -0.25122761194E+01 -0.68223801667E+02  0.71464125952E+02  0.10566000000E+00 0.  1.
    -200003    1    4    4    0    0 -0.10173209487E+03 -0.36411160570E+02 -0.36375330186E+03  0.38064636653E+03  0.30000000000E+02 0.  1.
    -200000    1    3    3    0    0 -0.19718643062E+03 -0.26288819617E+03  0.98500774987E+02  0.35762563496E+03  0.10100000000E+03 0. -1.
<mgrwt>
<rscale>  0 0.18368515E+04</rscale>
<asrwt>0</asrwt>
<pdfrwt beam="1">  1        2 0.10234350E+00 0.18368515E+04</pdfrwt>
<pdfrwt beam="2">  1       -2 0.16820222E+00 0.18368515E+04</pdfrwt>
<totfact> 0.90599028E+00</totfact>
</mgrwt>
</event>
<event>
 8    2  0.4480234E-052  0.1326610E+04  0.7818608E-02  0.9008726E-01
         -2   -1    0    0    0  501 -0.00000000000E+00  0.00000000000E+00  0.32792291533E+03  0.32792291534E+03  0.25500000000E-02 0. -1.
          2   -1    0    0  501    0  0.00000000000E+00 -0.00000000000E+00 -0.13416971826E+04  0.13416971826E+04  0.25500000000E-02 0.  1.
    -200001    2    1    2    0    0  0.19572710233E+03  0.60447132376E+02 -0.69379601141E+03  0.94842800246E+03  0.61335129901E+03 0.  0.
   -5000001    2    3    3    0    0  0.21053430774E+03 -0.20876479026E+02 -0.76317998514E+03  0.80061758701E+03  0.11740659602E+03 0.  0.
     200001    1    1    2    0    0 -0.19572710233E+03 -0.60447132376E+02 -0.31997825591E+03  0.72119209553E+03  0.61300000000E+03 0. -1.
         13    1    4    4    0    0  0.18795828363E+03  0.72240219566E+01 -0.52041848483E+03  0.55336779215E+03  0.10566000000E+00 0.  1.
    -200003    1    4    4    0    0  0.22576024112E+02 -0.28100500983E+02 -0.24276150032E+03  0.24724979486E+03  0.30000000000E+02 0. -1.
    -200000    1    3    3    0    0 -0.14807205406E+02  0.81323611402E+02  0.69383973739E+02  0.14781041545E+03  0.10100000000E+03 0. -1.
<mgrwt>
<rscale>  0 0.13266096E+04</rscale>
<asrwt>0</asrwt>
<pdfrwt beam="1">  1        2 0.19167102E+00 0.13266096E+04</pdfrwt>
<pdfrwt beam="2">  1       -2 0.46846131E-01 0.13266096E+04</pdfrwt>
<totfact> 0.75264501E+01</totfact>
</mgrwt>
</event>
<event>
 8    2  0.4480234E-052  0.1454914E+04  0.7818608E-02  0.8915001E-01
          2   -1    0    0  501    0  0.00000000000E+00  0.00000000000E+00  0.23678651642E+04  0.23678651642E+04  0.25500000000E-02 0.  1.
         -2   -1    0    0    0  501 -0.00000000000E+00 -0.00000000000E+00 -0.22348977131E+03  0.22348977132E+03  0.25500000000E-02 0. -1.
    -200001    2    1    2    0    0 -0.82374152880E+02 -0.26124595960E+03  0.15711280710E+04  0.17085092839E+04  0.61280144042E+03 0.  0.
   -5000001    2    3    3    0    0  0.64540356067E+02  0.76884938691E+02  0.10756087485E+04  0.10826844073E+04  0.72073535245E+02 0.  0.
     200001    1    1    2    0    0  0.82374152880E+02  0.26124595960E+03  0.57324732193E+03  0.88284565161E+03  0.61300000000E+03 0. -1.
         13    1    4    4    0    0  0.25216537201E+02  0.58601170161E+01  0.49328681565E+03  0.49396569555E+03  0.10566000000E+00 0.  1.
    -200003    1    4    4    0    0  0.39323818867E+02  0.71024821675E+02  0.58232193286E+03  0.58871871171E+03  0.30000000000E+02 0. -1.
    -200000    1    3    3    0    0 -0.14691450895E+03 -0.33813089829E+03  0.49551932244E+03  0.62582487664E+03  0.10100000000E+03 0. -1.
<mgrwt>
<rscale>  0 0.14549139E+04</rscale>
<asrwt>0</asrwt>
<pdfrwt beam="1">  1        2 0.33826644E+00 0.14549139E+04</pdfrwt>
<pdfrwt beam="2">  1       -2 0.31927111E-01 0.14549139E+04</pdfrwt>
<totfact> 0.45856527E+01</totfact>
</mgrwt>
</event>
<event>
 8    2  0.4480234E-052  0.1249200E+04  0.7818608E-02  0.9070849E-01
          2   -1    0    0  501    0  0.00000000000E+00  0.00000000000E+00  0.70003565095E+03  0.70003565095E+03  0.25500000000E-02 0.  1.
         -2   -1    0    0    0  501 -0.00000000000E+00 -0.00000000000E+00 -0.55729314916E+03  0.55729314916E+03  0.25500000000E-02 0. -1.
    -200001    2    1    2    0    0  0.95017913740E+02  0.10838045145E+02  0.20658050285E+00  0.62075095255E+03  0.61333990190E+03 0.  0.
   -5000001    2    3    3    0    0  0.18312613647E+03  0.31396103001E+02  0.25593297725E+03  0.33129856847E+03  0.98671958981E+02 0.  0.
     200001    1    1    2    0    0 -0.95017913740E+02 -0.10838045145E+02  0.14253592129E+03  0.63657784757E+03  0.61300000000E+03 0. -1.
         13    1    4    4    0    0 -0.49661613076E+01  0.12035275432E+02  0.43115366573E+02  0.45038390420E+02  0.10566000000E+00 0.  1.
    -200003    1    4    4    0    0  0.18809229777E+03  0.19360827569E+02  0.21281761067E+03  0.28626017805E+03  0.30000000000E+02 0.  1.
    -200000    1    3    3    0    0 -0.88108222728E+02 -0.20558057855E+02 -0.25572639674E+03  0.28945238408E+03  0.10100000000E+03 0. -1.
<mgrwt>
<rscale>  0 0.12491999E+04</rscale>
<asrwt>0</asrwt>
<pdfrwt beam="1">  1        2 0.10000509E+00 0.12491999E+04</pdfrwt>
<pdfrwt beam="2">  1       -2 0.79613306E-01 0.12491999E+04</pdfrwt>
<totfact> 0.61949752E+01</totfact>
</mgrwt>
</event>
<event>
 8    2  0.4480234E-052  0.1349505E+04  0.7818608E-02  0.8991203E-01
         -2   -1    0    0    0  501 -0.00000000000E+00  0.00000000000E+00  0.15041889345E+03  0.15041889347E+03  0.25500000000E-02 0. -1.
          2   -1    0    0  501    0  0.00000000000E+00 -0.00000000000E+00 -0.30268186716E+04  0.30268186716E+04  0.25500000000E-02 0.  1.
    -200001    2    1    2    0    0  0.19154118343E+02 -0.28097262191E+03 -0.14019982607E+04  0.15558365261E+04  0.61295650614E+03 0.  0.
   -5000001    2    3    3    0    0  0.13313748951E+03 -0.34327768673E+03 -0.44331196384E+03  0.58313176833E+03  0.89173990735E+02 0.  0.
     200001    1    1    2    0    0 -0.19154118343E+02  0.28097262191E+03 -0.14744015175E+04  0.16214010390E+04  0.61300000000E+03 0.  1.
         13    1    4    4    0    0  0.44748362869E+02 -0.16935930891E+03 -0.26166024433E+03  0.31488265453E+03  0.10566000000E+00 0.  1.
    -200003    1    4    4    0    0  0.88389126644E+02 -0.17391837782E+03 -0.18165171951E+03  0.26824911380E+03  0.30000000000E+02 0.  1.
    -200000    1    3    3    0    0 -0.11398337117E+03  0.62305064823E+02 -0.95868629684E+03  0.97270475775E+03  0.10100000000E+03 0.  1.
<mgrwt>
<rscale>  0 0.13495047E+04</rscale>
<asrwt>0</asrwt>
<pdfrwt beam="1">  1        2 0.43240263E+00 0.13495047E+04</pdfrwt>
<pdfrwt beam="2">  1       -2 0.21488415E-01 0.13495047E+04</pdfrwt>
<totfact> 0.42261728E+01</totfact>
</mgrwt>
</event>
<event>
 8    2  0.4480234E-052  0.1436632E+04  0.7818608E-02  0.8927721E-01
         -2   -1    0    0    0  501 -0.00000000000E+00  0.00000000000E+00  0.29871349909E+03  0.29871349910E+03  0.25500000000E-02 0. -1.
          2   -1    0    0  501    0  0.00000000000E+00 -0.00000000000E+00 -0.17273347266E+04  0.17273347266E+04  0.25500000000E-02 0.  1.
    -200001    2    1    2    0    0 -0.32262059973E+02 -0.19838478833E+03 -0.26896541313E+03  0.69903354132E+03  0.61311347537E+03 0.  0.
   -5000001    2    3    3    0    0 -0.23526663088E+02 -0.32933996880E+03 -0.32803897693E+03  0.52320336078E+03  0.23898507783E+03 0.  0.
     200001    1    1    2    0    0  0.32262059973E+02  0.19838478833E+03 -0.11596558144E+04  0.13270146844E+04  0.61300000000E+03 0.  1.
         13    1    4    4    0    0 -0.53187681147E+02 -0.23229441635E+03 -0.34161016603E+03  0.41651787716E+03  0.10566000000E+00 0.  1.
    -200003    1    4    4    0    0  0.29661018059E+02 -0.97045552446E+02  0.13571189103E+02  0.10668548362E+03  0.30000000000E+02 0.  1.
    -200000    1    3    3    0    0 -0.87353968842E+01  0.13095518047E+03  0.59073563792E+02  0.17583018054E+03  0.10100000000E+03 0.  1.
<mgrwt>
<rscale>  0 0.14366325E+04</rscale>
<asrwt>0</asrwt>
<pdfrwt beam="1">  1        2 0.24676210E+00 0.14366325E+04</pdfrwt>
<pdfrwt beam="2">  1       -2 0.42673358E-01 0.14366325E+04</pdfrwt>
<totfact> 0.56144247E+01</totfact>
</mgrwt>
</event>
<event>
 8    2  0.4480234E-052  0.2258992E+04  0.7818608E-02  0.8494268E-01
          2   -1    0    0  501    0  0.00000000000E+00  0.00000000000E+00  0.12219199807E+04  0.12219199807E+04  0.25500000000E-02 0.  1.
         -2   -1    0    0    0  501 -0.00000000000E+00 -0.00000000000E+00 -0.10440626276E+04  0.10440626276E+04  0.25500000000E-02 0. -1.
    -200001    2    1    2    0    0  0.43118219002E+03  0.11741523504E+03 -0.75026085907E+03  0.10672846338E+04  0.61359654045E+03 0.  0.
   -5000001    2    3    3    0    0  0.56642238736E+03  0.46749849816E+02 -0.59477933329E+03  0.82716172254E+03  0.86105694095E+02 0.  0.
     200001    1    1    2    0    0 -0.43118219002E+03 -0.11741523504E+03  0.92811821217E+03  0.11986979745E+04  0.61300000000E+03 0.  1.
         13    1    4    4    0    0  0.39800731021E+03  0.24705069358E+02 -0.45609659607E+03  0.60584179085E+03  0.10566000000E+00 0.  1.
    -200003    1    4    4    0    0  0.16841507715E+03  0.22044780459E+02 -0.13868273723E+03  0.22131993169E+03  0.30000000000E+02 0. -1.
    -200000    1    3    3    0    0 -0.13524019734E+03  0.70665385228E+02 -0.15548152578E+03  0.24012291124E+03  0.10100000000E+03 0. -1.
<mgrwt>
<rscale>  0 0.22589918E+04</rscale>
<asrwt>0</asrwt>
<pdfrwt beam="1">  1        2 0.17456000E+00 0.22589918E+04</pdfrwt>
<pdfrwt beam="2">  1       -2 0.14915180E+00 0.22589918E+04</pdfrwt>
<totfact> 0.57743025E+00</totfact>
</mgrwt>
</event>
<event>
 8    2  0.4480234E-052  0.1278505E+04  0.7818608E-02  0.9046787E-01
         -2   -1    0    0    0  501 -0.00000000000E+00  0.00000000000E+00  0.33791805547E+03  0.33791805548E+03  0.25500000000E-02 0. -1.
          2   -1    0    0  501    0  0.00000000000E+00 -0.00000000000E+00 -0.12092981664E+04  0.12092981664E+04  0.25500000000E-02 0.  1.
    -200001    2    1    2    0    0 -0.54103094551E+02 -0.17083542040E+03 -0.40758035341E+03  0.75791836885E+03  0.61335684855E+03 0.  0.
   -5000001    2    3    3    0    0  0.15888628627E+02 -0.14938903532E+03 -0.54596237983E+03  0.57161384936E+03  0.78089309149E+02 0.  0.
     200001    1    1    2    0    0  0.54103094551E+02  0.17083542040E+03 -0.46379975749E+03  0.78929785300E+03  0.61300000000E+03 0.  1.
         13    1    4    4    0    0  0.65577782172E+01 -0.12927699802E+03 -0.37768030271E+03  0.39924675188E+03  0.10566000000E+00 0.  1.
    -200003    1    4    4    0    0  0.93308504095E+01 -0.20112037300E+02 -0.16828207712E+03  0.17236709748E+03  0.30000000000E+02 0.  1.
    -200000    1    3    3    0    0 -0.69991723177E+02 -0.21446385083E+02  0.13838202642E+03  0.18630451949E+03  0.10100000000E+03 0. -1.
<mgrwt>
<rscale>  0 0.12785049E+04</rscale>
<asrwt>0</asrwt>
<pdfrwt beam="1">  1        2 0.17275688E+00 0.12785049E+04</pdfrwt>
<pdfrwt beam="2">  1       -2 0.48274009E-01 0.12785049E+04</pdfrwt>
<totfact> 0.84254157E+01</totfact>
</mgrwt>
</event>
<event>
 8    2  0.4480234E-052  0.1288563E+04  0.7818608E-02  0.9038684E-01
          2   -1    0    0  501    0  0.00000000000E+00  0.00000000000E+00  0.24847096750E+04  0.24847096750E+04  0.25500000000E-02 0.  1.
         -2   -1    0    0    0  501 -0.00000000000E+00 -0.00000000000E+00 -0.16706117500E+03  0.16706117502E+03  0.25500000000E-02 0. -1.
    -200001    2    1    2    0    0 -0.51402794983E+02 -0.10598109656E+03  0.14784140467E+04  0.16058465183E+04  0.61576026707E+03 0.  0.
   -5000001    2    3    3    0    0  0.83109587827E+02  0.18983756153E+03  0.26322368227E+03  0.34390718475E+03  0.77717060295E+02 0.  0.
     200001    1    1    2    0    0  0.51402794983E+02  0.10598109656E+03  0.83923445322E+03  0.10459243317E+04  0.61300000000E+03 0. -1.
         13    1    4    4    0    0  0.17773861961E+02  0.21717625316E+02  0.81162704112E+02  0.85877593825E+02  0.10566000000E+00 0.  1.
    -200003    1    4    4    0    0  0.65335725866E+02  0.16811993621E+03  0.18206097816E+03  0.25802959093E+03  0.30000000000E+02 0.  1.
    -200000    1    3    3    0    0 -0.13451238281E+03 -0.29581865808E+03  0.12151903645E+04  0.12619393335E+04  0.10100000000E+03 0.  1.
<mgrwt>
<rscale>  0 0.12885628E+04</rscale>
<asrwt>0</asrwt>
<pdfrwt beam="1">  1        2 0.35495853E+00 0.12885628E+04</pdfrwt>
<pdfrwt beam="2">  1       -2 0.23865882E-01 0.12885628E+04</pdfrwt>
<totfact> 0.68989907E+01</totfact>
</mgrwt>
</event>
<event>
 8    2  0.4480234E-052  0.1437815E+04  0.7818608E-02  0.8926892E-01
         -2   -1    0    0    0  501 -0.00000000000E+00  0.00000000000E+00  0.19296306688E+03  0.19296306690E+03  0.25500000000E-02 0. -1.
          2   -1    0    0  501    0  0.00000000000E+00 -0.00000000000E+00 -0.26783796121E+04  0.26783796121E+04  0.25500000000E-02 0.  1.
    -200001    2    1    2    0    0 -0.32473648815E+03  0.13412436702E+03 -0.97296721186E+03  0.12019969633E+04  0.61211793948E+03 0.  0.
   -5000001    2    3    3    0    0 -0.24785218021E+02 -0.31603055253E+02  0.68939420228E+02  0.10054030371E+03  0.61177192436E+02 0.  0.
     200001    1    1    2    0    0  0.32473648815E+03 -0.13412436702E+03 -0.15124493334E+04  0.16693457157E+04  0.61300000000E+03 0.  1.
         13    1    4    4    0    0 -0.94601566605E+01 -0.19656678899E+02 -0.11689654179E+01  0.21846217832E+02  0.10566000000E+00 0.  1.
    -200003    1    4    4    0    0 -0.15325061361E+02 -0.11946376354E+02  0.70108385646E+02  0.78694085874E+02  0.30000000000E+02 0.  1.
    -200000    1    3    3    0    0 -0.29995127013E+03  0.16572742228E+03 -0.10419066321E+04  0.11014566596E+04  0.10100000000E+03 0.  1.
<mgrwt>
<rscale>  0 0.14378155E+04</rscale>
<asrwt>0</asrwt>
<pdfrwt beam="1">  1        2 0.38262564E+00 0.14378155E+04</pdfrwt>
<pdfrwt beam="2">  1       -2 0.27566154E-01 0.14378155E+04</pdfrwt>
<totfact> 0.41420905E+01</totfact>
</mgrwt>
</event>
<event>
 8    2  0.4480234E-052  0.2033534E+04  0.7818608E-02  0.8591101E-01
         -2   -1    0    0    0  501 -0.00000000000E+00  0.00000000000E+00  0.53487447730E+03  0.53487447731E+03  0.25500000000E-02 0. -1.
          2   -1    0    0  501    0  0.00000000000E+00 -0.00000000000E+00 -0.19328178369E+04  0.19328178369E+04  0.25500000000E-02 0.  1.
    -200001    2    1    2    0    0  0.15404272513E+03  0.36621932893E+03  0.16198145421E+03  0.74519988091E+03  0.60929394626E+03 0.  0.
   -5000001    2    3    3    0    0  0.17957082558E+03  0.37055716711E+03 -0.75279783709E+02  0.48603893522E+03  0.24699899843E+03 0.  0.
     200001    1    1    2    0    0 -0.15404272513E+03 -0.36621932893E+03 -0.15599248138E+04  0.17224924333E+04  0.61300000000E+03 0.  1.
         13    1    4    4    0    0  0.84208155630E+02  0.14341076480E+03  0.88800940865E+02  0.18852925289E+03  0.10566000000E+00 0.  1.
    -200003    1    4    4    0    0  0.95362669950E+02  0.22714640231E+03 -0.16408072457E+03  0.29750968233E+03  0.30000000000E+02 0.  1.
    -200000    1    3    3    0    0 -0.25528100451E+02 -0.43378381720E+01  0.23726123792E+03  0.25916094569E+03  0.10100000000E+03 0. -1.
<mgrwt>
<rscale>  0 0.20335338E+04</rscale>
<asrwt>0</asrwt>
<pdfrwt beam="1">  1        2 0.27611683E+00 0.20335338E+04</pdfrwt>
<pdfrwt beam="2">  1       -2 0.76410641E-01 0.20335338E+04</pdfrwt>
<totfact> 0.12382423E+01</totfact>
</mgrwt>
</event>
<event>
 8    2  0.4480234E-052  0.1650404E+04  0.7818608E-02  0.8790168E-01
          2   -1    0    0  501    0  0.00000000000E+00  0.00000000000E+00  0.77218647008E+03  0.77218647009E+03  0.25500000000E-02 0.  1.
         -2   -1    0    0    0  501 -0.00000000000E+00 -0.00000000000E+00 -0.88185691056E+03  0.88185691056E+03  0.25500000000E-02 0. -1.
    -200001    2    1    2    0    0 -0.48440892747E+03 -0.96348767460E+02  0.19120066270E+03  0.81129340899E+03  0.61457644605E+03 0.  0.
   -5000001    2    3    3    0    0 -0.21506684974E+03 -0.20273743000E+03 -0.15571306421E+03  0.34824499221E+03  0.98345314364E+02 0.  0.
     200001    1    1    2    0    0  0.48440892747E+03  0.96348767460E+02 -0.30087110318E+03  0.84274997166E+03  0.61300000000E+03 0. -1.
         13    1    4    4    0    0 -0.16654117191E+02 -0.20358968635E+01 -0.36961600827E+02  0.40591570494E+02  0.10566000000E+00 0.  1.
    -200003    1    4    4    0    0 -0.19841273255E+03 -0.20070153314E+03 -0.11875146338E+03  0.30765342172E+03  0.30000000000E+02 0. -1.
    -200000    1    3    3    0    0 -0.26934207773E+03  0.10638866254E+03  0.34691372691E+03  0.46304841677E+03  0.10100000000E+03 0.  1.
<mgrwt>
<rscale>  0 0.16504036E+04</rscale>
<asrwt>0</asrwt>
<pdfrwt beam="1">  1        2 0.11031235E+00 0.16504036E+04</pdfrwt>
<pdfrwt beam="2">  1       -2 0.12597956E+00 0.16504036E+04</pdfrwt>
<totfact> 0.17909379E+01</totfact>
</mgrwt>
</event>
<event>
 8    2  0.4480234E-052  0.1618218E+04  0.7818608E-02  0.8809434E-01
         -2   -1    0    0    0  501 -0.00000000000E+00  0.00000000000E+00  0.44556084886E+03  0.44556084887E+03  0.25500000000E-02 0. -1.
          2   -1    0    0  501    0  0.00000000000E+00 -0.00000000000E+00 -0.14692880955E+04  0.14692880955E+04  0.25500000000E-02 0.  1.
    -200001    2    1    2    0    0 -0.26442755662E+03 -0.24246923128E+03 -0.51748890516E+02  0.71101166899E+03  0.61167506484E+03 0.  0.
   -5000001    2    3    3    0    0 -0.41270913924E+03 -0.17188251392E+03  0.84692645051E+02  0.47481851701E+03  0.13567368119E+03 0.  0.
     200001    1    1    2    0    0  0.26442755662E+03  0.24246923128E+03 -0.97197835612E+03  0.12038372754E+04  0.61300000000E+03 0.  1.
         13    1    4    4    0    0 -0.15360338830E+03 -0.32664000929E+01  0.30189443682E+01  0.15366780878E+03  0.10566000000E+00 0.  1.
    -200003    1    4    4    0    0 -0.25910575094E+03 -0.16861611383E+03  0.81673700683E+02  0.32115070823E+03  0.30000000000E+02 0.  1.
    -200000    1    3    3    0    0  0.14828158262E+03 -0.70586717361E+02 -0.13644153557E+03  0.23619315198E+03  0.10100000000E+03 0. -1.
<mgrwt>
<rscale>  0 0.16182178E+04</rscale>
<asrwt>0</asrwt>
<pdfrwt beam="1">  1        2 0.20989830E+00 0.16182178E+04</pdfrwt>
<pdfrwt beam="2">  1       -2 0.63651551E-01 0.16182178E+04</pdfrwt>
<totfact> 0.33269772E+01</totfact>
</mgrwt>
</event>
<event>
 8    2  0.4480234E-052  0.1922976E+04  0.7818608E-02  0.8643504E-01
          2   -1    0    0  501    0  0.00000000000E+00  0.00000000000E+00  0.12966465003E+04  0.12966465003E+04  0.25500000000E-02 0.  1.
         -2   -1    0    0    0  501 -0.00000000000E+00 -0.00000000000E+00 -0.71296127006E+03  0.71296127006E+03  0.25500000000E-02 0. -1.
    -200001    2    1    2    0    0 -0.80452055760E+02  0.45645076910E+03 -0.31150895244E+03  0.82979360592E+03  0.61375871732E+03 0.  0.
   -5000001    2    3    3    0    0 -0.26478728162E+03  0.70130488462E+02 -0.25227359832E+03  0.38602264935E+03  0.10169035097E+03 0.  0.
     200001    1    1    2    0    0  0.80452055760E+02 -0.45645076910E+03  0.89519418266E+03  0.11798141644E+04  0.61300000000E+03 0.  1.
         13    1    4    4    0    0 -0.11416296294E+03  0.64644522731E+02 -0.73900697485E+02  0.15057695932E+03  0.10566000000E+00 0.  1.
    -200003    1    4    4    0    0 -0.15062431868E+03  0.54859657310E+01 -0.17837290084E+03  0.23544569002E+03  0.30000000000E+02 0.  1.
    -200000    1    3    3    0    0  0.18433522586E+03  0.38632028063E+03 -0.59235354120E+02  0.44377095657E+03  0.10100000000E+03 0.  1.
<mgrwt>
<rscale>  0 0.19229755E+04</rscale>
<asrwt>0</asrwt>
<pdfrwt beam="1">  1        2 0.18523521E+00 0.19229755E+04</pdfrwt>
<pdfrwt beam="2">  1       -2 0.10185161E+00 0.19229755E+04</pdfrwt>
<totfact> 0.13989854E+01</totfact>
</mgrwt>
</event>
<event>
 8    2  0.4480234E-052  0.1615394E+04  0.7818608E-02  0.8811146E-01
         -2   -1    0    0    0  501 -0.00000000000E+00  0.00000000000E+00  0.29643213933E+03  0.29643213934E+03  0.25500000000E-02 0.  1.
          2   -1    0    0  501    0  0.00000000000E+00 -0.00000000000E+00 -0.22007547660E+04  0.22007547660E+04  0.25500000000E-02 0. -1.
    -200001    2    1    2    0    0  0.24826014456E+03  0.10722211100E+03 -0.25520278250E+03  0.71716023675E+03  0.61323785313E+03 0.  0.
   -5000001    2    3    3    0    0  0.43415952440E+03  0.12531191174E+03 -0.15875610869E+03  0.48394621228E+03  0.69302716285E+02 0.  0.
     200001    1    1    2    0    0 -0.24826014456E+03 -0.10722211100E+03 -0.16491198442E+04  0.17800266686E+04  0.61300000000E+03 0. -1.
         13    1    4    4    0    0  0.23401636159E+03  0.86726611876E+02 -0.10686550308E+03  0.27148740231E+03  0.10566000000E+00 0.  1.
    -200003    1    4    4    0    0  0.20014316281E+03  0.38585299865E+02 -0.51890605612E+02  0.21245880997E+03  0.30000000000E+02 0. -1.
    -200000    1    3    3    0    0 -0.18589937984E+03 -0.18089800743E+02 -0.96446673808E+02  0.23321402446E+03  0.10100000000E+03 0.  1.
<mgrwt>
<rscale>  0 0.16153940E+04</rscale>
<asrwt>0</asrwt>
<pdfrwt beam="1">  1        2 0.31439353E+00 0.16153940E+04</pdfrwt>
<pdfrwt beam="2">  1       -2 0.42347450E-01 0.16153940E+04</pdfrwt>
<totfact> 0.32059205E+01</totfact>
</mgrwt>
</event>
<event>
 8    2  0.4480234E-052  0.1462867E+04  0.7818608E-02  0.8909528E-01
         -2   -1    0    0    0  501 -0.00000000000E+00  0.00000000000E+00  0.41184306445E+03  0.41184306446E+03  0.25500000000E-02 0. -1.
          2   -1    0    0  501    0  0.00000000000E+00 -0.00000000000E+00 -0.12990270450E+04  0.12990270450E+04  0.25500000000E-02 0.  1.
    -200001    2    1    2    0    0  0.37469184308E+03 -0.11421925318E+03 -0.35247283474E+03  0.80802736315E+03  0.61256110333E+03 0.  0.
   -5000001    2    3    3    0    0  0.49267928086E+03 -0.14663245459E+02 -0.37026133435E+03  0.62269019778E+03  0.87759570064E+02 0.  0.
     200001    1    1    2    0    0 -0.37469184308E+03  0.11421925318E+03 -0.53471114577E+03  0.90284274626E+03  0.61300000000E+03 0. -1.
         13    1    4    4    0    0  0.76411345758E+02 -0.14060445869E+02 -0.95076629972E+02  0.12278422793E+03  0.10566000000E+00 0.  1.
    -200003    1    4    4    0    0  0.41626793511E+03 -0.60279959068E+00 -0.27518470438E+03  0.49990596985E+03  0.30000000000E+02 0.  1.
    -200000    1    3    3    0    0 -0.11798743779E+03 -0.99556007722E+02  0.17788499613E+02  0.18533716537E+03  0.10100000000E+03 0. -1.
<mgrwt>
<rscale>  0 0.14628674E+04</rscale>
<asrwt>0</asrwt>
<pdfrwt beam="1">  1        2 0.18557529E+00 0.14628674E+04</pdfrwt>
<pdfrwt beam="2">  1       -2 0.58834724E-01 0.14628674E+04</pdfrwt>
<totfact> 0.49229760E+01</totfact>
</mgrwt>
</event>
<event>
 8    2  0.4480234E-052  0.1711919E+04  0.7818608E-02  0.8754595E-01
          2   -1    0    0  501    0  0.00000000000E+00  0.00000000000E+00  0.89871878708E+03  0.89871878708E+03  0.25500000000E-02 0.  1.
         -2   -1    0    0    0  501 -0.00000000000E+00 -0.00000000000E+00 -0.81523506547E+03  0.81523506547E+03  0.25500000000E-02 0. -1.
    -200001    2    1    2    0    0 -0.23296463035E+03  0.21088583421E+03 -0.46910068431E+03  0.83085483221E+03  0.60952354025E+03 0.  0.
   -5000001    2    3    3    0    0 -0.32688424519E+03  0.19550555423E+02 -0.42379785752E+03  0.59068108453E+03  0.24912644502E+03 0.  0.
     200001    1    1    2    0    0  0.23296463035E+03 -0.21088583421E+03  0.55258440592E+03  0.88309902034E+03  0.61300000000E+03 0.  1.
         13    1    4    4    0    0 -0.30934045429E+03  0.26137538564E+02 -0.44997683426E+03  0.54667526935E+03  0.10566000000E+00 0.  1.
    -200003    1    4    4    0    0 -0.17543790909E+02 -0.65869831410E+01  0.26178976743E+02  0.44005815180E+02  0.30000000000E+02 0.  1.
    -200000    1    3    3    0    0  0.93919614848E+02  0.19133527878E+03 -0.45302826791E+02  0.24017374768E+03  0.10100000000E+03 0.  1.
<mgrwt>
<rscale>  0 0.17119195E+04</rscale>
<asrwt>0</asrwt>
<pdfrwt beam="1">  1        2 0.12838840E+00 0.17119195E+04</pdfrwt>
<pdfrwt beam="2">  1       -2 0.11646215E+00 0.17119195E+04</pdfrwt>
<totfact> 0.17757661E+01</totfact>
</mgrwt>
</event>
<event>
 8    2  0.4480234E-052  0.1770425E+04  0.7818608E-02  0.8722187E-01
          2   -1    0    0  501    0  0.00000000000E+00  0.00000000000E+00  0.10291528242E+04  0.10291528242E+04  0.25500000000E-02 0.  1.
         -2   -1    0    0    0  501 -0.00000000000E+00 -0.00000000000E+00 -0.76140397565E+03  0.76140397566E+03  0.25500000000E-02 0. -1.
    -200001    2    1    2    0    0  0.26247292824E+03 -0.42553067115E+03 -0.26062160229E+03  0.83928779298E+03  0.62170088444E+03 0.  0.
   -5000001    2    3    3    0    0  0.39105603465E+03 -0.42936198449E+03 -0.31839990829E+03  0.66582993971E+03  0.68370103513E+02 0.  0.
     200001    1    1    2    0    0 -0.26247292824E+03  0.42553067115E+03  0.52837045087E+03  0.95126900691E+03  0.61300000000E+03 0.  1.
         13    1    4    4    0    0  0.27391294817E+03 -0.32277217820E+03 -0.23903206382E+03  0.48615483222E+03  0.10566000000E+00 0.  1.
    -200003    1    4    4    0    0  0.11714308648E+03 -0.10658980629E+03 -0.79367844469E+02  0.17967510749E+03  0.30000000000E+02 0.  1.
    -200000    1    3    3    0    0 -0.12858310641E+03  0.38313133384E+01  0.57778305999E+02  0.17345785327E+03  0.10100000000E+03 0.  1.
<mgrwt>
<rscale>  0 0.17704249E+04</rscale>
<asrwt>0</asrwt>
<pdfrwt beam="1">  1        2 0.14702183E+00 0.17704249E+04</pdfrwt>
<pdfrwt beam="2">  1       -2 0.10877200E+00 0.17704249E+04</pdfrwt>
<totfact> 0.17271444E+01</totfact>
</mgrwt>
</event>
<event>
 8    2  0.4480234E-052  0.1328687E+04  0.7818608E-02  0.9007121E-01
         -2   -1    0    0    0  501 -0.00000000000E+00  0.00000000000E+00  0.31672208384E+03  0.31672208385E+03  0.25500000000E-02 0.  1.
          2   -1    0    0  501    0  0.00000000000E+00 -0.00000000000E+00 -0.13934997429E+04  0.13934997429E+04  0.25500000000E-02 0. -1.
    -200001    2    1    2    0    0 -0.36580993103E+02 -0.11873863102E+03 -0.82733859564E+03  0.10368527764E+04  0.61248469091E+03 0.  0.
   -5000001    2    3    3    0    0  0.22529990831E+02 -0.27946343486E+03 -0.17157913308E+03  0.35161701865E+03  0.12485077887E+03 0.  0.
     200001    1    1    2    0    0  0.36580993103E+02  0.11873863102E+03 -0.24943906340E+03  0.67336905030E+03  0.61300000000E+03 0. -1.
         13    1    4    4    0    0 -0.30671573880E+02 -0.34806641039E+02  0.39087160821E+00  0.46394090673E+02  0.10566000000E+00 0.  1.
    -200003    1    4    4    0    0  0.53201564711E+02 -0.24465679382E+03 -0.17197000468E+03  0.30522292798E+03  0.30000000000E+02 0. -1.
    -200000    1    3    3    0    0 -0.59110983934E+02  0.16072480385E+03 -0.65575946256E+03  0.68523575778E+03  0.10100000000E+03 0. -1.
<mgrwt>
<rscale>  0 0.13286868E+04</rscale>
<asrwt>0</asrwt>
<pdfrwt beam="1">  1        2 0.19907139E+00 0.13286868E+04</pdfrwt>
<pdfrwt beam="2">  1       -2 0.45246013E-01 0.13286868E+04</pdfrwt>
<totfact> 0.75605861E+01</totfact>
</mgrwt>
</event>
<event>
 8    2  0.4480234E-052  0.1387170E+04  0.7818608E-02  0.8963158E-01
         -2   -1    0    0    0  501 -0.00000000000E+00  0.00000000000E+00  0.13469789549E+04  0.13469789549E+04  0.25500000000E-02 0. -1.
          2   -1    0    0  501    0  0.00000000000E+00 -0.00000000000E+00 -0.35713992541E+03  0.35713992542E+03  0.25500000000E-02 0.  1.
    -200001    2    1    2    0    0 -0.71543882465E+02 -0.15722751627E+03  0.83259419902E+03  0.10481204385E+04  0.61278408460E+03 0.  0.
   -5000001    2    3    3    0    0  0.15889751189E+03  0.14595185934E+03  0.30763845024E+03  0.39176648809E+03  0.11085666688E+03 0.  0.
     200001    1    1    2    0    0  0.71543882465E+02  0.15722751627E+03  0.15724483048E+03  0.65599844184E+03  0.61300000000E+03 0.  1.
         13    1    4    4    0    0  0.73944253786E+02  0.10190725758E+03  0.23932772773E+03  0.27042672619E+03  0.10566000000E+00 0.  1.
    -200003    1    4    4    0    0  0.84953258101E+02  0.44044601764E+02  0.68310722510E+02  0.12133976189E+03  0.30000000000E+02 0.  1.
    -200000    1    3    3    0    0 -0.23044139435E+03 -0.30317937561E+03  0.52495574878E+03  0.65635395039E+03  0.10100000000E+03 0. -1.
<mgrwt>
<rscale>  0 0.13871697E+04</rscale>
<asrwt>0</asrwt>
<pdfrwt beam="1">  1        2 0.51019990E-01 0.13871697E+04</pdfrwt>
<pdfrwt beam="2">  1       -2 0.19242556E+00 0.13871697E+04</pdfrwt>
<totfact> 0.14290804E+01</totfact>
</mgrwt>
</event>
<event>
 8    2  0.4480234E-052  0.1868009E+04  0.7818608E-02  0.8670946E-01
          2   -1    0    0  501    0  0.00000000000E+00  0.00000000000E+00  0.22095115507E+04  0.22095115507E+04  0.25500000000E-02 0.  1.
         -2   -1    0    0    0  501 -0.00000000000E+00 -0.00000000000E+00 -0.39482244922E+03  0.39482244923E+03  0.25500000000E-02 0. -1.
    -200001    2    1    2    0    0  0.50928980083E+03 -0.44393081535E+03  0.62845134630E+03  0.11078782933E+04  0.61318231225E+03 0.  0.
   -5000001    2    3    3    0    0 -0.92373543206E+02 -0.57826463106E+02  0.26651160622E+03  0.30024178730E+03  0.85087738651E+02 0.  0.
     200001    1    1    2    0    0 -0.50928980083E+03  0.44393081535E+03  0.11862377551E+04  0.14964557066E+04  0.61300000000E+03 0.  1.
         13    1    4    4    0    0 -0.47534891037E+02 -0.53092866381E+02  0.21091185046E+03  0.22262578053E+03  0.10566000000E+00 0.  1.
    -200003    1    4    4    0    0 -0.44838652169E+02 -0.47335967249E+01  0.55599755762E+02  0.77616006772E+02  0.30000000000E+02 0.  1.
    -200000    1    3    3    0    0  0.60166334404E+03 -0.38610435225E+03  0.36193974008E+03  0.80763650600E+03  0.10100000000E+03 0. -1.
<mgrwt>
<rscale>  0 0.18680094E+04</rscale>
<asrwt>0</asrwt>
<pdfrwt beam="1">  1        2 0.31564451E+00 0.18680094E+04</pdfrwt>
<pdfrwt beam="2">  1       -2 0.56403206E-01 0.18680094E+04</pdfrwt>
<totfact> 0.17372733E+01</totfact>
</mgrwt>
</event>
<event>
 8    2  0.4480234E-052  0.1855836E+04  0.7818608E-02  0.8677157E-01
         -2   -1    0    0    0  501 -0.00000000000E+00  0.00000000000E+00  0.36337250509E+03  0.36337250510E+03  0.25500000000E-02 0. -1.
          2   -1    0    0  501    0  0.00000000000E+00 -0.00000000000E+00 -0.23695576495E+04  0.23695576495E+04  0.25500000000E-02 0.  1.
    -200001    2    1    2    0    0  0.36477957795E+03  0.55915878454E+03 -0.12955131535E+04  0.15811722089E+04  0.61321165723E+03 0.  0.
   -5000001    2    3    3    0    0  0.22022922264E+03  0.22566673822E+02 -0.99544338497E+02  0.25853533322E+03  0.89001561363E+02 0.  0.
     200001    1    1    2    0    0 -0.36477957795E+03 -0.55915878454E+03 -0.71067199096E+03  0.11517579457E+04  0.61300000000E+03 0. -1.
         13    1    4    4    0    0  0.20753484806E+02 -0.23603628918E+02 -0.17105909017E+02  0.35783539750E+02  0.10566000000E+00 0.  1.
    -200003    1    4    4    0    0  0.19947573783E+03  0.46170302740E+02 -0.82438429481E+02  0.22275179347E+03  0.30000000000E+02 0.  1.
    -200000    1    3    3    0    0  0.14455035531E+03  0.53659211072E+03 -0.11959688150E+04  0.13226368757E+04  0.10100000000E+03 0.  1.
<mgrwt>
<rscale>  0 0.18558363E+04</rscale>
<asrwt>0</asrwt>
<pdfrwt beam="1">  1        2 0.33850823E+00 0.18558363E+04</pdfrwt>
<pdfrwt beam="2">  1       -2 0.51910359E-01 0.18558363E+04</pdfrwt>
<totfact> 0.17054280E+01</totfact>
</mgrwt>
</event>
<event>
 8    2  0.4480234E-052  0.1448400E+04  0.7818608E-02  0.8919511E-01
         -2   -1    0    0    0  501 -0.00000000000E+00  0.00000000000E+00  0.21284440800E+03  0.21284440801E+03  0.25500000000E-02 0. -1.
          2   -1    0    0  501    0  0.00000000000E+00 -0.00000000000E+00 -0.24640795511E+04  0.24640795511E+04  0.25500000000E-02 0.  1.
    -200001    2    1    2    0    0  0.21784509637E+03  0.14483013404E+03 -0.16492247200E+04  0.17788049229E+04  0.61300287343E+03 0.  0.
   -5000001    2    3    3    0    0  0.24377096604E+03  0.32263341714E+03 -0.13774981816E+04  0.14377441221E+04  0.78040466160E+02 0.  0.
     200001    1    1    2    0    0 -0.21784509637E+03 -0.14483013404E+03 -0.60201042309E+03  0.89811903624E+03  0.61300000000E+03 0.  1.
         13    1    4    4    0    0 -0.28658739740E+01 -0.12133259730E+01 -0.18902276400E+02  0.19157051201E+02  0.10566000000E+00 0.  1.
    -200003    1    4    4    0    0  0.24663684001E+03  0.32384674312E+03 -0.13585959052E+04  0.14185870709E+04  0.30000000000E+02 0.  1.
    -200000    1    3    3    0    0 -0.25925869666E+02 -0.17780328311E+03 -0.27172653837E+03  0.34106080082E+03  0.10100000000E+03 0. -1.
<mgrwt>
<rscale>  0 0.14483999E+04</rscale>
<asrwt>0</asrwt>
<pdfrwt beam="1">  1        2 0.35201135E+00 0.14483999E+04</pdfrwt>
<pdfrwt beam="2">  1       -2 0.30406346E-01 0.14483999E+04</pdfrwt>
<totfact> 0.44788797E+01</totfact>
</mgrwt>
</event>
<event>
 8    2  0.4480234E-052  0.1346280E+04  0.7818608E-02  0.8993649E-01
         -2   -1    0    0    0  501 -0.00000000000E+00  0.00000000000E+00  0.30048376023E+03  0.30048376024E+03  0.25500000000E-02 0.  1.
          2   -1    0    0  501    0  0.00000000000E+00 -0.00000000000E+00 -0.15079597511E+04  0.15079597512E+04  0.25500000000E-02 0. -1.
    -200001    2    1    2    0    0  0.48628619408E+02  0.10263900638E+03 -0.26317236201E+03  0.67690568531E+03  0.61322272171E+03 0.  0.
   -5000001    2    3    3    0    0  0.13004450128E+03  0.95980879553E+02 -0.42773755148E+03  0.46724982906E+03  0.96120176119E+02 0.  0.
     200001    1    1    2    0    0 -0.48628619408E+02 -0.10263900638E+03 -0.94430362891E+03  0.11315378261E+04  0.61300000000E+03 0. -1.
         13    1    4    4    0    0  0.11881151415E+03  0.47587092202E+02 -0.32432637779E+03  0.34866648496E+03  0.10566000000E+00 0.  1.
    -200003    1    4    4    0    0  0.11232987127E+02  0.48393787352E+02 -0.10341117369E+03  0.11858334410E+03  0.30000000000E+02 0. -1.
    -200000    1    3    3    0    0 -0.81415881871E+02  0.66581268291E+01  0.16456518947E+03  0.20965585625E+03  0.10100000000E+03 0.  1.
<mgrwt>
<rscale>  0 0.13462799E+04</rscale>
<asrwt>0</asrwt>
<pdfrwt beam="1">  1        2 0.21542282E+00 0.13462799E+04</pdfrwt>
<pdfrwt beam="2">  1       -2 0.42926252E-01 0.13462799E+04</pdfrwt>
<totfact> 0.72792704E+01</totfact>
</mgrwt>
</event>
<event>
 8    2  0.4480234E-052  0.2338098E+04  0.7818608E-02  0.8463049E-01
          2   -1    0    0  501    0  0.00000000000E+00  0.00000000000E+00  0.12979301187E+04  0.12979301187E+04  0.25500000000E-02 0.  1.
         -2   -1    0    0    0  501 -0.00000000000E+00 -0.00000000000E+00 -0.10529650026E+04  0.10529650026E+04  0.25500000000E-02 0. -1.
    -200001    2    1    2    0    0 -0.48827123004E+03 -0.86459179821E+03  0.19013224254E+03  0.11826899101E+04  0.61374048430E+03 0.  0.
   -5000001    2    3    3    0    0 -0.51943196529E+02 -0.28590530032E+03 -0.18675945638E+03  0.35958082349E+03  0.99896634867E+02 0.  0.
     200001    1    1    2    0    0  0.48827123004E+03  0.86459179821E+03  0.54832873618E+02  0.11682052113E+04  0.61300000000E+03 0.  1.
         13    1    4    4    0    0  0.11794267970E+02 -0.62913869918E+02 -0.65447216157E+01  0.64343642499E+02  0.10566000000E+00 0.  1.
    -200003    1    4    4    0    0 -0.63737464499E+02 -0.22299143040E+03 -0.18021473476E+03  0.29523718099E+03  0.30000000000E+02 0.  1.
    -200000    1    3    3    0    0 -0.43632803351E+03 -0.57868649789E+03  0.37689169892E+03  0.82310908656E+03  0.10100000000E+03 0. -1.
<mgrwt>
<rscale>  0 0.23380975E+04</rscale>
<asrwt>0</asrwt>
<pdfrwt beam="1">  1        2 0.18541859E+00 0.23380975E+04</pdfrwt>
<pdfrwt beam="2">  1       -2 0.15042357E+00 0.23380975E+04</pdfrwt>
<totfact> 0.50864911E+00</totfact>
</mgrwt>
</event>
<event>
 8    2  0.4480234E-052  0.1660155E+04  0.7818608E-02  0.8784422E-01
          2   -1    0    0  501    0  0.00000000000E+00  0.00000000000E+00  0.41511439178E+03  0.41511439179E+03  0.25500000000E-02 0.  1.
         -2   -1    0    0    0  501 -0.00000000000E+00 -0.00000000000E+00 -0.16598523359E+04  0.16598523359E+04  0.25500000000E-02 0. -1.
    -200001    2    1    2    0    0 -0.39583978138E+03 -0.39520269354E+03 -0.60262827262E+03  0.10257059728E+04  0.61321905238E+03 0.  0.
   -5000001    2    3    3    0    0 -0.51295721436E+03 -0.19356483139E+03 -0.39880869616E+03  0.69994879284E+03  0.17403301049E+03 0.  0.
     200001    1    1    2    0    0  0.39583978138E+03  0.39520269354E+03 -0.64210967150E+03  0.10492607549E+04  0.61300000000E+03 0.  1.
         13    1    4    4    0    0 -0.36600585477E+02  0.29226081784E+02 -0.48112862928E+02  0.67146298906E+02  0.10566000000E+00 0.  1.
    -200003    1    4    4    0    0 -0.47635662889E+03 -0.22279091317E+03 -0.35069583323E+03  0.63280249393E+03  0.30000000000E+02 0.  1.
    -200000    1    3    3    0    0  0.11711743298E+03 -0.20163786215E+03 -0.20381957646E+03  0.32575717998E+03  0.10100000000E+03 0. -1.
<mgrwt>
<rscale>  0 0.16601549E+04</rscale>
<asrwt>0</asrwt>
<pdfrwt beam="1">  1        2 0.59302057E-01 0.16601549E+04</pdfrwt>
<pdfrwt beam="2">  1       -2 0.23712176E+00 0.16601549E+04</pdfrwt>
<totfact> 0.61243996E+00</totfact>
</mgrwt>
</event>
<event>
 8    2  0.4480234E-052  0.1770217E+04  0.7818608E-02  0.8722300E-01
          2   -1    0    0  501    0  0.00000000000E+00  0.00000000000E+00  0.36751838267E+04  0.36751838267E+04  0.25500000000E-02 0.  1.
         -2   -1    0    0    0  501 -0.00000000000E+00 -0.00000000000E+00 -0.21316403914E+03  0.21316403915E+03  0.25500000000E-02 0. -1.
    -200001    2    1    2    0    0  0.54710558864E+03  0.26017898295E+03  0.21746016915E+04  0.23390796572E+04  0.61268548029E+03 0.  0.
   -5000001    2    3    3    0    0  0.63431100029E+03  0.12688797244E+03  0.14370566767E+04  0.15778011758E+04  0.76639779720E+02 0.  0.
     200001    1    1    2    0    0 -0.54710558864E+03 -0.26017898295E+03  0.12874180961E+04  0.15492682087E+04  0.61300000000E+03 0. -1.
         13    1    4    4    0    0  0.28776664200E+03  0.26264724548E+02  0.66310830591E+03  0.72333402557E+03  0.10566000000E+00 0.  1.
    -200003    1    4    4    0    0  0.34654435829E+03  0.10062324789E+03  0.77394837076E+03  0.85446715027E+03  0.30000000000E+02 0.  1.
    -200000    1    3    3    0    0 -0.87205411649E+02  0.13329101052E+03  0.73754501477E+03  0.76127848132E+03  0.10100000000E+03 0.  1.
<mgrwt>
<rscale>  0 0.17702170E+04</rscale>
<asrwt>0</asrwt>
<pdfrwt beam="1">  1        2 0.52502620E+00 0.17702170E+04</pdfrwt>
<pdfrwt beam="2">  1       -2 0.30452009E-01 0.17702170E+04</pdfrwt>
<totfact> 0.89045521E+00</totfact>
</mgrwt>
</event>
<event>
 8    2  0.4480234E-052  0.1364312E+04  0.7818608E-02  0.8980064E-01
         -2   -1    0    0    0  501 -0.00000000000E+00  0.00000000000E+00  0.17495239448E+03  0.17495239449E+03  0.25500000000E-02 0. -1.
          2   -1    0    0  501    0  0.00000000000E+00 -0.00000000000E+00 -0.26597901062E+04  0.26597901062E+04  0.25500000000E-02 0.  1.
    -200001    2    1    2    0    0 -0.82716637384E+02 -0.28159153518E+03 -0.13624332620E+04  0.15226081388E+04  0.61316826101E+03 0.  0.
   -5000001    2    3    3    0    0 -0.21805347652E+03  0.87014415985E+02 -0.73614892000E+03  0.77653878263E+03  0.77320251516E+02 0.  0.
     200001    1    1    2    0    0  0.82716637384E+02  0.28159153518E+03 -0.11224044498E+04  0.13121343619E+04  0.61300000000E+03 0. -1.
         13    1    4    4    0    0 -0.31332504216E+02  0.24839006027E+02 -0.21449859393E+03  0.21819340046E+03  0.10566000000E+00 0.  1.
    -200003    1    4    4    0    0 -0.18672097230E+03  0.62175409958E+02 -0.52165032607E+03  0.55834538217E+03  0.30000000000E+02 0.  1.
    -200000    1    3    3    0    0  0.13533683913E+03 -0.36860595116E+03 -0.62628434196E+03  0.74606935619E+03  0.10100000000E+03 0.  1.
<mgrwt>
<rscale>  0 0.13643118E+04</rscale>
<asrwt>0</asrwt>
<pdfrwt beam="1">  1        2 0.37996999E+00 0.13643118E+04</pdfrwt>
<pdfrwt beam="2">  1       -2 0.24993201E-01 0.13643118E+04</pdfrwt>
<totfact> 0.50990902E+01</totfact>
</mgrwt>
</event>
<event>
 8    2  0.4480234E-052  0.1288738E+04  0.7818608E-02  0.9038544E-01
         -2   -1    0    0    0  501 -0.00000000000E+00  0.00000000000E+00  0.23327796158E+03  0.23327796159E+03  0.25500000000E-02 0. -1.
          2   -1    0    0  501    0  0.00000000000E+00 -0.00000000000E+00 -0.17799004207E+04  0.17799004207E+04  0.25500000000E-02 0.  1.
    -200001    2    1    2    0    0  0.19235018729E+02  0.13138236703E+03 -0.10081382097E+04  0.11865190818E+04  0.61143566230E+03 0.  0.
   -5000001    2    3    3    0    0  0.28885840472E+03 -0.25561818189E+02 -0.53165780847E+03  0.60810502561E+03  0.55128144752E+02 0.  0.
     200001    1    1    2    0    0 -0.19235018729E+02 -0.13138236703E+03 -0.53848424936E+03  0.82665930051E+03  0.61300000000E+03 0. -1.
         13    1    4    4    0    0  0.15363832187E+03 -0.27330932676E+02 -0.26206422226E+03  0.30500718283E+03  0.10566000000E+00 0.  1.
    -200003    1    4    4    0    0  0.13522008285E+03  0.17691144872E+01 -0.26959358621E+03  0.30309784278E+03  0.30000000000E+02 0. -1.
    -200000    1    3    3    0    0 -0.26962338599E+03  0.15694418522E+03 -0.47648040127E+03  0.57841405615E+03  0.10100000000E+03 0. -1.
<mgrwt>
<rscale>  0 0.12887382E+04</rscale>
<asrwt>0</asrwt>
<pdfrwt beam="1">  1        2 0.25427148E+00 0.12887382E+04</pdfrwt>
<pdfrwt beam="2">  1       -2 0.33325424E-01 0.12887382E+04</pdfrwt>
<totfact> 0.86017192E+01</totfact>
</mgrwt>
</event>
<event>
 8    2  0.4480234E-052  0.1514369E+04  0.7818608E-02  0.8874954E-01
         -2   -1    0    0    0  501 -0.00000000000E+00  0.00000000000E+00  0.16403524454E+03  0.16403524456E+03  0.25500000000E-02 0. -1.
          2   -1    0    0  501    0  0.00000000000E+00 -0.00000000000E+00 -0.34951514007E+04  0.34951514007E+04  0.25500000000E-02 0.  1.
    -200001    2    1    2    0    0 -0.43052646731E+03  0.18135747156E+02 -0.14020900364E+04  0.15897440355E+04  0.61298261303E+03 0.  0.
   -5000001    2    3    3    0    0 -0.33498415220E+03 -0.17621497747E+03 -0.12449983922E+04  0.13037731929E+04  0.80854446395E+02 0.  0.
     200001    1    1    2    0    0  0.43052646731E+03 -0.18135747156E+02 -0.19290261198E+04  0.20694426098E+04  0.61300000000E+03 0.  1.
         13    1    4    4    0    0 -0.11281610795E+03 -0.36068539445E+02 -0.30144111660E+03  0.32387524094E+03  0.10566000000E+00 0.  1.
    -200003    1    4    4    0    0 -0.22216804425E+03 -0.14014643802E+03 -0.94355727555E+03  0.97989795194E+03  0.30000000000E+02 0.  1.
    -200000    1    3    3    0    0 -0.95542315111E+02  0.19435072462E+03 -0.15709164424E+03  0.28597084262E+03  0.10100000000E+03 0. -1.
<mgrwt>
<rscale>  0 0.15143685E+04</rscale>
<asrwt>0</asrwt>
<pdfrwt beam="1">  1        2 0.49930730E+00 0.15143685E+04</pdfrwt>
<pdfrwt beam="2">  1       -2 0.23433609E-01 0.15143685E+04</pdfrwt>
<totfact> 0.19057027E+01</totfact>
</mgrwt>
</event>
<event>
 8    2  0.4480234E-052  0.1462182E+04  0.7818608E-02  0.8909998E-01
         -2   -1    0    0    0  501 -0.00000000000E+00  0.00000000000E+00  0.12956454493E+04  0.12956454493E+04  0.25500000000E-02 0. -1.
          2   -1    0    0  501    0  0.00000000000E+00 -0.00000000000E+00 -0.41253112420E+03  0.41253112420E+03  0.25500000000E-02 0.  1.
    -200001    2    1    2    0    0 -0.87847519360E+02  0.30539345303E+03  0.72319767675E+03  0.99942790000E+03  0.61225721704E+03 0.  0.
   -5000001    2    3    3    0    0 -0.64085781455E+02  0.11846807846E+02  0.67654345638E+03  0.68460752365E+03  0.82030962632E+02 0.  0.
     200001    1    1    2    0    0  0.87847519360E+02 -0.30539345303E+03  0.15991664837E+03  0.70874867353E+03  0.61300000000E+03 0.  1.
         13    1    4    4    0    0 -0.32023146781E+02 -0.16383257798E+02  0.47682227435E+03  0.47817714870E+03  0.10566000000E+00 0.  1.
    -200003    1    4    4    0    0 -0.32062634673E+02  0.28230065644E+02  0.19972118203E+03  0.20643037495E+03  0.30000000000E+02 0.  1.
    -200000    1    3    3    0    0 -0.23761737905E+02  0.29354664518E+03  0.46654220379E+02  0.31482037635E+03  0.10100000000E+03 0. -1.
<mgrwt>
<rscale>  0 0.14621820E+04</rscale>
<asrwt>0</asrwt>
<pdfrwt beam="1">  1        2 0.58933016E-01 0.14621820E+04</pdfrwt>
<pdfrwt beam="2">  1       -2 0.18509221E+00 0.14621820E+04</pdfrwt>
<totfact> 0.13552102E+01</totfact>
</mgrwt>
</event>
<event>
 8    2  0.4480234E-052  0.2389151E+04  0.7818608E-02  0.8443576E-01
          2   -1    0    0  501    0  0.00000000000E+00  0.00000000000E+00  0.21474927098E+04  0.21474927098E+04  0.25500000000E-02 0.  1.
         -2   -1    0    0    0  501 -0.00000000000E+00 -0.00000000000E+00 -0.66450090393E+03  0.66450090394E+03  0.25500000000E-02 0. -1.
    -200001    2    1    2    0    0 -0.60575697852E+03  0.34221002817E+03 -0.14464061665E+03  0.93875963924E+03  0.61343258136E+03 0.  0.
   -5000001    2    3    3    0    0 -0.64170393982E+03  0.24814499664E+03 -0.27515816235E+03  0.74543027283E+03  0.81205859417E+02 0.  0.
     200001    1    1    2    0    0  0.60575697852E+03 -0.34221002817E+03  0.16276324226E+04  0.18732339745E+04  0.61300000000E+03 0.  1.
         13    1    4    4    0    0 -0.18561847568E+03  0.89069924433E+02 -0.51158068079E+02  0.21214341622E+03  0.10566000000E+00 0.  1.
    -200003    1    4    4    0    0 -0.45608546414E+03  0.15907507221E+03 -0.22400009427E+03  0.53328685661E+03  0.30000000000E+02 0.  1.
    -200000    1    3    3    0    0  0.35946961296E+02  0.94065031523E+02  0.13051754570E+03  0.19332936641E+03  0.10100000000E+03 0.  1.
<mgrwt>
<rscale>  0 0.23891512E+04</rscale>
<asrwt>0</asrwt>
<pdfrwt beam="1">  1        2 0.30678467E+00 0.23891512E+04</pdfrwt>
<pdfrwt beam="2">  1       -2 0.94928702E-01 0.23891512E+04</pdfrwt>
<totfact> 0.56881292E+00</totfact>
</mgrwt>
</event>
<event>
 8    2  0.4480234E-052  0.1571166E+04  0.7818608E-02  0.8838460E-01
          2   -1    0    0  501    0  0.00000000000E+00  0.00000000000E+00  0.58945445377E+03  0.58945445378E+03  0.25500000000E-02 0.  1.
         -2   -1    0    0    0  501 -0.00000000000E+00 -0.00000000000E+00 -0.10469688508E+04  0.10469688508E+04  0.25500000000E-02 0. -1.
    -200001    2    1    2    0    0 -0.19971218899E+03 -0.44579943074E+03 -0.28770776893E+03  0.83440997441E+03  0.61224354159E+03 0.  0.
   -5000001    2    3    3    0    0 -0.79412333213E+02 -0.27521131623E+03 -0.44343321719E+03  0.55508261208E+03  0.17156952200E+03 0.  0.
     200001    1    1    2    0    0  0.19971218899E+03  0.44579943074E+03 -0.16980662815E+03  0.80201333021E+03  0.61300000000E+03 0.  1.
         13    1    4    4    0    0  0.29053464313E+02 -0.13453453110E+03 -0.27930603670E+03  0.31137680894E+03  0.10566000000E+00 0.  1.
    -200003    1    4    4    0    0 -0.10846579753E+03 -0.14067678512E+03 -0.16412718049E+03  0.24370580313E+03  0.30000000000E+02 0.  1.
    -200000    1    3    3    0    0 -0.12029985578E+03 -0.17058811451E+03  0.15572544826E+03  0.27932736233E+03  0.10100000000E+03 0.  1.
<mgrwt>
<rscale>  0 0.15711657E+04</rscale>
<asrwt>0</asrwt>
<pdfrwt beam="1">  1        2 0.84207779E-01 0.15711657E+04</pdfrwt>
<pdfrwt beam="2">  1       -2 0.14956698E+00 0.15711657E+04</pdfrwt>
<totfact> 0.16105338E+01</totfact>
</mgrwt>
</event>
<event>
 8    2  0.4480234E-052  0.2798444E+04  0.7818608E-02  0.8303752E-01
          2   -1    0    0  501    0  0.00000000000E+00  0.00000000000E+00  0.15029698934E+04  0.15029698934E+04  0.25500000000E-02 0.  1.
         -2   -1    0    0    0  501 -0.00000000000E+00 -0.00000000000E+00 -0.13026358068E+04  0.13026358068E+04  0.25500000000E-02 0. -1.
    -200001    2    1    2    0    0  0.36977701900E+03 -0.11765770455E+04 -0.14847610169E+03  0.13848642969E+04  0.61215633660E+03 0.  0.
   -5000001    2    3    3    0    0  0.16222427901E+03 -0.11141972165E+04 -0.61896863445E+02  0.11305685096E+04  0.81251334646E+02 0.  0.
     200001    1    1    2    0    0 -0.36977701900E+03  0.11765770455E+04  0.34881018823E+03  0.14207414033E+04  0.61300000000E+03 0.  1.
         13    1    4    4    0    0  0.97967868481E+02 -0.68668504120E+03 -0.69810456553E+02  0.69714242453E+03  0.10566000000E+00 0.  1.
    -200003    1    4    4    0    0  0.64256410529E+02 -0.42751217525E+03  0.79135931076E+01  0.43342608509E+03  0.30000000000E+02 0.  1.
    -200000    1    3    3    0    0  0.20755273999E+03 -0.62379828997E+02 -0.86579238247E+02  0.25429578730E+03  0.10100000000E+03 0. -1.
<mgrwt>
<rscale>  0 0.27984441E+04</rscale>
<asrwt>0</asrwt>
<pdfrwt beam="1">  1        2 0.21470999E+00 0.27984441E+04</pdfrwt>
<pdfrwt beam="2">  1       -2 0.18609083E+00 0.27984441E+04</pdfrwt>
<totfact> 0.21027706E+00</totfact>
</mgrwt>
</event>
<event>
 8    2  0.4480234E-052  0.1945421E+04  0.7818608E-02  0.8632572E-01
         -2   -1    0    0    0  501 -0.00000000000E+00  0.00000000000E+00  0.28301411678E+03  0.28301411679E+03  0.25500000000E-02 0. -1.
          2   -1    0    0  501    0  0.00000000000E+00 -0.00000000000E+00 -0.33431755200E+04  0.33431755200E+04  0.25500000000E-02 0.  1.
    -200001    2    1    2    0    0 -0.26956816145E+03  0.14508637242E+02 -0.21538637859E+03  0.70362373763E+03  0.61303962177E+03 0.  0.
   -5000001    2    3    3    0    0  0.83096822735E+02  0.19455473539E+03 -0.18727213723E+03  0.29401343613E+03  0.81341380794E+02 0.  0.
     200001    1    1    2    0    0  0.26956816145E+03 -0.14508637242E+02 -0.28447750246E+04  0.29225658992E+04  0.61300000000E+03 0.  1.
         13    1    4    4    0    0  0.42025988107E+02  0.95678105572E+02 -0.45856783428E+02  0.11411984627E+03  0.10566000000E+00 0.  1.
    -200003    1    4    4    0    0  0.41070834629E+02  0.98876629823E+02 -0.14141535380E+03  0.17989358986E+03  0.30000000000E+02 0.  1.
    -200000    1    3    3    0    0 -0.35266498418E+03 -0.18004609815E+03 -0.28114241361E+02  0.40961030150E+03  0.10100000000E+03 0. -1.
<mgrwt>
<rscale>  0 0.19454212E+04</rscale>
<asrwt>0</asrwt>
<pdfrwt beam="1">  1        2 0.47759648E+00 0.19454212E+04</pdfrwt>
<pdfrwt beam="2">  1       -2 0.40430590E-01 0.19454212E+04</pdfrwt>
<totfact> 0.81289955E+00</totfact>
</mgrwt>
</event>
<event>
 8    2  0.4480234E-052  0.1921633E+04  0.7818608E-02  0.8644162E-01
         -2   -1    0    0    0  501 -0.00000000000E+00  0.00000000000E+00  0.71535763685E+03  0.71535763685E+03  0.25500000000E-02 0. -1.
          2   -1    0    0  501    0  0.00000000000E+00 -0.00000000000E+00 -0.12904993466E+04  0.12904993466E+04  0.25500000000E-02 0.  1.
    -200001    2    1    2    0    0  0.50650842307E+03 -0.48267423350E+03 -0.53878400112E+03  0.10749348163E+04  0.61292043618E+03 0.  0.
   -5000001    2    3    3    0    0 -0.10189622339E+03 -0.14829203670E+03 -0.64842442737E+02  0.22830073468E+03  0.12467283019E+03 0.  0.
     200001    1    1    2    0    0 -0.50650842307E+03  0.48267423350E+03 -0.36357708625E+02  0.93092216716E+03  0.61300000000E+03 0. -1.
         13    1    4    4    0    0 -0.37218720029E+02  0.17195089850E+01  0.19464674056E+02  0.42036585636E+02  0.10566000000E+00 0.  1.
    -200003    1    4    4    0    0 -0.64677503361E+02 -0.15001154568E+03 -0.84307116793E+02  0.18626414905E+03  0.30000000000E+02 0.  1.
    -200000    1    3    3    0    0  0.60840464646E+03 -0.33438219680E+03 -0.47394155838E+03  0.84663408161E+03  0.10100000000E+03 0. -1.
<mgrwt>
<rscale>  0 0.19216332E+04</rscale>
<asrwt>0</asrwt>
<pdfrwt beam="1">  1        2 0.18435705E+00 0.19216332E+04</pdfrwt>
<pdfrwt beam="2">  1       -2 0.10219395E+00 0.19216332E+04</pdfrwt>
<totfact> 0.13989278E+01</totfact>
</mgrwt>
</event>
<event>
 8    2  0.4480234E-052  0.1892111E+04  0.7818608E-02  0.8658793E-01
          2   -1    0    0  501    0  0.00000000000E+00  0.00000000000E+00  0.34513681923E+03  0.34513681924E+03  0.25500000000E-02 0.  1.
         -2   -1    0    0    0  501 -0.00000000000E+00 -0.00000000000E+00 -0.25932363259E+04  0.25932363259E+04  0.25500000000E-02 0. -1.
    -200001    2    1    2    0    0 -0.63088010834E+02 -0.34638131030E+03 -0.20992374046E+04  0.22159542675E+04  0.61619438944E+03 0.  0.
   -5000001    2    3    3    0    0  0.12188091379E+03  0.92777407891E+02 -0.24533448729E+03  0.29912592108E+03  0.76319731707E+02 0.  0.
     200001    1    1    2    0    0  0.63088010834E+02  0.34638131030E+03 -0.14886210199E+03  0.72241887755E+03  0.61300000000E+03 0.  1.
         13    1    4    4    0    0  0.15654990466E+02  0.48097927380E+02 -0.91935192248E+02  0.10493131126E+03  0.10566000000E+00 0.  1.
    -200003    1    4    4    0    0  0.10622592333E+03  0.44679480511E+02 -0.15339929504E+03  0.19419460982E+03  0.30000000000E+02 0.  1.
    -200000    1    3    3    0    0 -0.18496892463E+03 -0.43915871819E+03 -0.18539029174E+04  0.19168283465E+04  0.10100000000E+03 0. -1.
<mgrwt>
<rscale>  0 0.18921113E+04</rscale>
<asrwt>0</asrwt>
<pdfrwt beam="1">  1        2 0.49305262E-01 0.18921113E+04</pdfrwt>
<pdfrwt beam="2">  1       -2 0.37046232E+00 0.18921113E+04</pdfrwt>
<totfact> 0.11094353E+00</totfact>
</mgrwt>
</event>
<event>
 8    2  0.4480234E-052  0.1447333E+04  0.7818608E-02  0.8920252E-01
          2   -1    0    0  501    0  0.00000000000E+00  0.00000000000E+00  0.18808789631E+04  0.18808789631E+04  0.25500000000E-02 0.  1.
         -2   -1    0    0    0  501 -0.00000000000E+00 -0.00000000000E+00 -0.27842996452E+03  0.27842996454E+03  0.25500000000E-02 0. -1.
    -200001    2    1    2    0    0  0.37549349309E+03  0.30225588700E+02  0.91977587417E+03  0.11674820555E+04  0.61246856376E+03 0.  0.
   -5000001    2    3    3    0    0  0.11726148731E+03 -0.26926595271E+03  0.40408678218E+03  0.50982318358E+03  0.10187807071E+03 0.  0.
     200001    1    1    2    0    0 -0.37549349309E+03 -0.30225588700E+02  0.68267312443E+03  0.99182687219E+03  0.61300000000E+03 0. -1.
         13    1    4    4    0    0  0.45715814636E+02 -0.92032217264E+02  0.21977521198E+03  0.24261290091E+03  0.10566000000E+00 0.  1.
    -200003    1    4    4    0    0  0.71545672671E+02 -0.17723373544E+03  0.18431157020E+03  0.26721028268E+03  0.30000000000E+02 0.  1.
    -200000    1    3    3    0    0  0.25823200578E+03  0.29949154141E+03  0.51568909199E+03  0.65765887190E+03  0.10100000000E+03 0.  1.
<mgrwt>
<rscale>  0 0.14473328E+04</rscale>
<asrwt>0</asrwt>
<pdfrwt beam="1">  1        2 0.26869700E+00 0.14473328E+04</pdfrwt>
<pdfrwt beam="2">  1       -2 0.39775708E-01 0.14473328E+04</pdfrwt>
<totfact> 0.53663826E+01</totfact>
</mgrwt>
</event>
<event>
 8    2  0.4480234E-052  0.1659216E+04  0.7818608E-02  0.8784973E-01
          2   -1    0    0  501    0  0.00000000000E+00  0.00000000000E+00  0.19237073889E+04  0.19237073889E+04  0.25500000000E-02 0.  1.
         -2   -1    0    0    0  501 -0.00000000000E+00 -0.00000000000E+00 -0.35777262426E+03  0.35777262427E+03  0.25500000000E-02 0. -1.
    -200001    2    1    2    0    0  0.35803903684E+03  0.42223852969E+03  0.86074915077E+03  0.11954169036E+04  0.61778244156E+03 0.  0.
   -5000001    2    3    3    0    0  0.10877708629E+02  0.32292877372E+03  0.70812909774E+03  0.79059929530E+03  0.13856085027E+03 0.  0.
     200001    1    1    2    0    0 -0.35803903684E+03 -0.42223852969E+03  0.70518561383E+03  0.10860631095E+04  0.61300000000E+03 0.  1.
         13    1    4    4    0    0 -0.58476985068E+02  0.10580032657E+03  0.21947662877E+03  0.25056589677E+03  0.10566000000E+00 0.  1.
    -200003    1    4    4    0    0  0.69354693696E+02  0.21712844715E+03  0.48865246897E+03  0.54003339853E+03  0.30000000000E+02 0.  1.
    -200000    1    3    3    0    0  0.34716132821E+03  0.99309755968E+02  0.15262005304E+03  0.40481760834E+03  0.10100000000E+03 0. -1.
<mgrwt>
<rscale>  0 0.16592165E+04</rscale>
<asrwt>0</asrwt>
<pdfrwt beam="1">  1        2 0.27481534E+00 0.16592165E+04</pdfrwt>
<pdfrwt beam="2">  1       -2 0.51110374E-01 0.16592165E+04</pdfrwt>
<totfact> 0.30398945E+01</totfact>
</mgrwt>
</event>
<event>
 8    2  0.4480234E-052  0.1556937E+04  0.7818608E-02  0.8847449E-01
          2   -1    0    0  501    0  0.00000000000E+00  0.00000000000E+00  0.12142532135E+04  0.12142532135E+04  0.25500000000E-02 0.  1.
         -2   -1    0    0    0  501 -0.00000000000E+00 -0.00000000000E+00 -0.49908307417E+03  0.49908307418E+03  0.25500000000E-02 0. -1.
    -200001    2    1    2    0    0  0.21167839293E+03 -0.16750519364E+03 -0.78702251577E+02  0.67465052914E+03  0.61326467381E+03 0.  0.
   -5000001    2    3    3    0    0 -0.16929452330E+03  0.87412754149E+01 -0.14206820662E+03  0.23827978652E+03  0.88638794093E+02 0.  0.
     200001    1    1    2    0    0 -0.21167839293E+03  0.16750519364E+03  0.79387239089E+03  0.10386857585E+04  0.61300000000E+03 0. -1.
         13    1    4    4    0    0 -0.50461998583E+02  0.40177919812E+02 -0.53947198779E+02  0.84089178624E+02  0.10566000000E+00 0.  1.
    -200003    1    4    4    0    0 -0.11883252472E+03 -0.31436644398E+02 -0.88121007838E+02  0.15419060790E+03  0.30000000000E+02 0.  1.
    -200000    1    3    3    0    0  0.38097291623E+03 -0.17624646906E+03  0.63365955041E+02  0.43637074262E+03  0.10100000000E+03 0.  1.
<mgrwt>
<rscale>  0 0.15569370E+04</rscale>
<asrwt>0</asrwt>
<pdfrwt beam="1">  1        2 0.17346475E+00 0.15569370E+04</pdfrwt>
<pdfrwt beam="2">  1       -2 0.71297581E-01 0.15569370E+04</pdfrwt>
<totfact> 0.36107157E+01</totfact>
</mgrwt>
</event>
<event>
 8    2  0.4480234E-052  0.1291035E+04  0.7818608E-02  0.9036705E-01
          2   -1    0    0  501    0  0.00000000000E+00  0.00000000000E+00  0.11868118391E+04  0.11868118391E+04  0.25500000000E-02 0.  1.
         -2   -1    0    0    0  501 -0.00000000000E+00 -0.00000000000E+00 -0.35110258740E+03  0.35110258741E+03  0.25500000000E-02 0. -1.
    -200001    2    1    2    0    0 -0.48451912176E+02  0.31282212157E+02  0.63542376316E+03  0.89045057309E+03  0.62113822917E+03 0.  0.
   -5000001    2    3    3    0    0  0.18319275996E+03 -0.11252909941E+03  0.53568126966E+03  0.58305748196E+03  0.82336013333E+02 0.  0.
     200001    1    1    2    0    0  0.48451912176E+02 -0.31282212157E+02  0.20028548856E+03  0.64746385344E+03  0.61300000000E+03 0. -1.
         13    1    4    4    0    0  0.10615417856E+03 -0.99600656813E+02  0.31368057662E+03  0.34580994170E+03  0.10566000000E+00 0.  1.
    -200003    1    4    4    0    0  0.77038581393E+02 -0.12928442600E+02  0.22200069305E+03  0.23724754027E+03  0.30000000000E+02 0.  1.
    -200000    1    3    3    0    0 -0.23164467213E+03  0.14381131157E+03  0.99742493498E+02  0.30739309113E+03  0.10100000000E+03 0. -1.
<mgrwt>
<rscale>  0 0.12910348E+04</rscale>
<asrwt>0</asrwt>
<pdfrwt beam="1">  1        2 0.16954455E+00 0.12910348E+04</pdfrwt>
<pdfrwt beam="2">  1       -2 0.50157513E-01 0.12910348E+04</pdfrwt>
<totfact> 0.80221024E+01</totfact>
</mgrwt>
</event>
<event>
 8    2  0.4480234E-052  0.1364985E+04  0.7818608E-02  0.8979561E-01
         -2   -1    0    0    0  501 -0.00000000000E+00  0.00000000000E+00  0.27306568701E+03  0.27306568703E+03  0.25500000000E-02 0. -1.
          2   -1    0    0  501    0  0.00000000000E+00 -0.00000000000E+00 -0.17058031755E+04  0.17058031755E+04  0.25500000000E-02 0.  1.
    -200001    2    1    2    0    0  0.20868803776E+03  0.35877092376E+02 -0.10302983171E+04  0.12156099618E+04  0.60938911559E+03 0.  0.
   -5000001    2    3    3    0    0  0.42710662098E+02 -0.24110781698E+03 -0.23311212892E+03  0.34959844466E+03  0.88997908915E+02 0.  0.
     200001    1    1    2    0    0 -0.20868803776E+03 -0.35877092376E+02 -0.40243917143E+03  0.76325890074E+03  0.61300000000E+03 0. -1.
         13    1    4    4    0    0 -0.10906784505E+02 -0.41789593672E+02 -0.10307286581E+02  0.44402470744E+02  0.10566000000E+00 0.  1.
    -200003    1    4    4    0    0  0.53617446602E+02 -0.19931822331E+03 -0.22280484234E+03  0.30519597392E+03  0.30000000000E+02 0. -1.
    -200000    1    3    3    0    0  0.16597737566E+03  0.27698490936E+03 -0.79718618814E+03  0.86601151713E+03  0.10100000000E+03 0. -1.
<mgrwt>
<rscale>  0 0.13649854E+04</rscale>
<asrwt>0</asrwt>
<pdfrwt beam="1">  1        2 0.24368616E+00 0.13649854E+04</pdfrwt>
<pdfrwt beam="2">  1       -2 0.39009385E-01 0.13649854E+04</pdfrwt>
<totfact> 0.69066446E+01</totfact>
</mgrwt>
</event>
<event>
 8    2  0.4480234E-052  0.1443872E+04  0.7818608E-02  0.8922660E-01
         -2   -1    0    0    0  501 -0.00000000000E+00  0.00000000000E+00  0.68997557713E+03  0.68997557713E+03  0.25500000000E-02 0. -1.
          2   -1    0    0  501    0  0.00000000000E+00 -0.00000000000E+00 -0.75537685247E+03  0.75537685247E+03  0.25500000000E-02 0.  1.
    -200001    2    1    2    0    0  0.36424342448E+03  0.10857970664E+03  0.54172363143E+01  0.72061310642E+03  0.61220182761E+03 0.  0.
   -5000001    2    3    3    0    0  0.58067408311E+02 -0.22600681637E+03  0.64826437332E+02  0.25218771491E+03  0.70322625236E+02 0.  0.
     200001    1    1    2    0    0 -0.36424342448E+03 -0.10857970664E+03 -0.70818511657E+02  0.72473932318E+03  0.61300000000E+03 0.  1.
         13    1    4    4    0    0 -0.84261475468E+01 -0.10149910989E+02  0.12993323181E+02  0.18516432348E+02  0.10566000000E+00 0.  1.
    -200003    1    4    4    0    0  0.66493555857E+02 -0.21585690538E+03  0.51833114152E+02  0.23367128256E+03  0.30000000000E+02 0.  1.
    -200000    1    3    3    0    0  0.30617601617E+03  0.33458652300E+03 -0.59409201018E+02  0.46842539152E+03  0.10100000000E+03 0. -1.
<mgrwt>
<rscale>  0 0.14438720E+04</rscale>
<asrwt>0</asrwt>
<pdfrwt beam="1">  1        2 0.10791098E+00 0.14438720E+04</pdfrwt>
<pdfrwt beam="2">  1       -2 0.98567940E-01 0.14438720E+04</pdfrwt>
<totfact> 0.33992760E+01</totfact>
</mgrwt>
</event>
<event>
 8    2  0.4480234E-052  0.1418325E+04  0.7818608E-02  0.8940660E-01
         -2   -1    0    0    0  501 -0.00000000000E+00  0.00000000000E+00  0.22876538556E+04  0.22876538556E+04  0.25500000000E-02 0. -1.
          2   -1    0    0  501    0  0.00000000000E+00 -0.00000000000E+00 -0.21983730352E+03  0.21983730354E+03  0.25500000000E-02 0.  1.
    -200001    2    1    2    0    0  0.33621754061E+03  0.83657567207E+02  0.11725550056E+04  0.13684990346E+04  0.61470606259E+03 0.  0.
   -5000001    2    3    3    0    0 -0.10270654992E+03  0.33874465513E+02  0.49542447861E+03  0.55373559344E+03  0.22244455181E+03 0.  0.
     200001    1    1    2    0    0 -0.33621754061E+03 -0.83657567207E+02  0.89526154646E+03  0.11389921245E+04  0.61300000000E+03 0.  1.
         13    1    4    4    0    0  0.31711372514E+02 -0.19379276095E+02  0.32962702411E+03  0.33171547096E+03  0.10566000000E+00 0.  1.
    -200003    1    4    4    0    0 -0.13441792244E+03  0.53253741608E+02  0.16579745450E+03  0.22202012248E+03  0.30000000000E+02 0.  1.
    -200000    1    3    3    0    0  0.43892409053E+03  0.49783101694E+02  0.67713052702E+03  0.81476344118E+03  0.10100000000E+03 0. -1.
<mgrwt>
<rscale>  0 0.14183253E+04</rscale>
<asrwt>0</asrwt>
<pdfrwt beam="1">  1        2 0.31405328E-01 0.14183253E+04</pdfrwt>
<pdfrwt beam="2">  1       -2 0.32680771E+00 0.14183253E+04</pdfrwt>
<totfact> 0.36018506E+00</totfact>
</mgrwt>
</event>
<event>
 8    2  0.4480234E-052  0.1457214E+04  0.7818608E-02  0.8913415E-01
          2   -1    0    0  501    0  0.00000000000E+00  0.00000000000E+00  0.16145261980E+04  0.16145261980E+04  0.25500000000E-02 0.  1.
         -2   -1    0    0    0  501 -0.00000000000E+00 -0.00000000000E+00 -0.32880720640E+03  0.32880720641E+03  0.25500000000E-02 0. -1.
    -200001    2    1    2    0    0  0.20232262385E+03 -0.83387538193E+01  0.10906874480E+04  0.12689371693E+04  0.61611561536E+03 0.  0.
   -5000001    2    3    3    0    0 -0.17940584070E+03  0.55893025505E+02  0.58719638376E+03  0.62586128429E+03  0.10766739569E+03 0.  0.
     200001    1    1    2    0    0 -0.20232262385E+03  0.83387538193E+01  0.19503154362E+03  0.67439623512E+03  0.61300000000E+03 0. -1.
         13    1    4    4    0    0 -0.11876076608E+03  0.10552369051E+02  0.22519123299E+03  0.25480693599E+03  0.10566000000E+00 0.  1.
    -200003    1    4    4    0    0 -0.60645074620E+02  0.45340656454E+02  0.36200515077E+03  0.37105434829E+03  0.30000000000E+02 0.  1.
    -200000    1    3    3    0    0  0.38172846454E+03 -0.64231779324E+02  0.50349106420E+03  0.64307588499E+03  0.10100000000E+03 0.  1.
<mgrwt>
<rscale>  0 0.14572136E+04</rscale>
<asrwt>0</asrwt>
<pdfrwt beam="1">  1        2 0.23064660E+00 0.14572136E+04</pdfrwt>
<pdfrwt beam="2">  1       -2 0.46972457E-01 0.14572136E+04</pdfrwt>
<totfact> 0.52997036E+01</totfact>
</mgrwt>
</event>
<event>
 8    2  0.4480234E-052  0.1403450E+04  0.7818608E-02  0.8951325E-01
         -2   -1    0    0    0  501 -0.00000000000E+00  0.00000000000E+00  0.28291681040E+03  0.28291681041E+03  0.25500000000E-02 0. -1.
          2   -1    0    0  501    0  0.00000000000E+00 -0.00000000000E+00 -0.17405046716E+04  0.17405046716E+04  0.25500000000E-02 0.  1.
    -200001    2    1    2    0    0 -0.17543562391E+03  0.17850475128E+03 -0.10623098021E+04  0.12522824878E+04  0.61405839237E+03 0.  0.
   -5000001    2    3    3    0    0 -0.10157667991E+03 -0.20608917926E+03 -0.55700231148E+03  0.60505432471E+03  0.55214030399E+02 0.  0.
     200001    1    1    2    0    0  0.17543562391E+03 -0.17850475128E+03 -0.39527805905E+03  0.77113899417E+03  0.61300000000E+03 0. -1.
         13    1    4    4    0    0 -0.43890925641E+02 -0.48676663619E+02 -0.17194471021E+03  0.18401311222E+03  0.10566000000E+00 0.  1.
    -200003    1    4    4    0    0 -0.57685754274E+02 -0.15741251564E+03 -0.38505760127E+03  0.42104121250E+03  0.30000000000E+02 0.  1.
    -200000    1    3    3    0    0 -0.73858943998E+02  0.38459393054E+03 -0.50530749064E+03  0.64722816310E+03  0.10100000000E+03 0.  1.
<mgrwt>
<rscale>  0 0.14034501E+04</rscale>
<asrwt>0</asrwt>
<pdfrwt beam="1">  1        2 0.24864352E+00 0.14034501E+04</pdfrwt>
<pdfrwt beam="2">  1       -2 0.40416688E-01 0.14034501E+04</pdfrwt>
<totfact> 0.61658246E+01</totfact>
</mgrwt>
</event>
<event>
 8    2  0.4480234E-052  0.1560282E+04  0.7818608E-02  0.8845327E-01
         -2   -1    0    0    0  501 -0.00000000000E+00  0.00000000000E+00  0.24056801692E+03  0.24056801694E+03  0.25500000000E-02 0. -1.
          2   -1    0    0  501    0  0.00000000000E+00 -0.00000000000E+00 -0.25299294237E+04  0.25299294237E+04  0.25500000000E-02 0.  1.
    -200001    2    1    2    0    0 -0.20371586512E+03 -0.32411357985E+03 -0.16667450252E+04  0.18165740030E+04  0.61266007123E+03 0.  0.
   -5000001    2    3    3    0    0  0.88561873337E+02 -0.50050724172E+02 -0.11107571553E+04  0.11238545527E+04  0.13754750909E+03 0.  0.
     200001    1    1    2    0    0  0.20371586512E+03  0.32411357985E+03 -0.62261638159E+03  0.95392343769E+03  0.61300000000E+03 0. -1.
         13    1    4    4    0    0 -0.30575722607E+02 -0.19477448408E+02 -0.42230710898E+03  0.42386029687E+03  0.10566000000E+00 0.  1.
    -200003    1    4    4    0    0  0.11913759594E+03 -0.30573275764E+02 -0.68845004630E+03  0.69999425584E+03  0.30000000000E+02 0.  1.
    -200000    1    3    3    0    0 -0.29227773846E+03 -0.27406285567E+03 -0.55598786994E+03  0.69271945027E+03  0.10100000000E+03 0. -1.
<mgrwt>
<rscale>  0 0.15602822E+04</rscale>
<asrwt>0</asrwt>
<pdfrwt beam="1">  1        2 0.36141847E+00 0.15602822E+04</pdfrwt>
<pdfrwt beam="2">  1       -2 0.34366861E-01 0.15602822E+04</pdfrwt>
<totfact> 0.32531031E+01</totfact>
</mgrwt>
</event>
<event>
 8    2  0.4480234E-052  0.1904641E+04  0.7818608E-02  0.8652550E-01
          2   -1    0    0  501    0  0.00000000000E+00  0.00000000000E+00  0.15591536893E+04  0.15591536893E+04  0.25500000000E-02 0.  1.
         -2   -1    0    0    0  501 -0.00000000000E+00 -0.00000000000E+00 -0.58167082305E+03  0.58167082306E+03  0.25500000000E-02 0. -1.
    -200001    2    1    2    0    0  0.64428585046E+02 -0.68080990257E+03  0.20656907818E+03  0.94177062089E+03  0.61368391888E+03 0.  0.
   -5000001    2    3    3    0    0 -0.61507102135E+02 -0.55631788096E+03 -0.99680273922E+02  0.57387426807E+03  0.78248388198E+02 0.  0.
     200001    1    1    2    0    0 -0.64428585046E+02  0.68080990257E+03  0.77091378804E+03  0.11990538914E+04  0.61300000000E+03 0. -1.
         13    1    4    4    0    0 -0.30238556980E+02 -0.19850522362E+03 -0.68259334657E+02  0.21208027269E+03  0.10566000000E+00 0.  1.
    -200003    1    4    4    0    0 -0.31268545155E+02 -0.35781265734E+03 -0.31420939265E+02  0.36179399538E+03  0.30000000000E+02 0. -1.
    -200000    1    3    3    0    0  0.12593568718E+03 -0.12449202161E+03  0.30624935210E+03  0.36789635281E+03  0.10100000000E+03 0.  1.
<mgrwt>
<rscale>  0 0.19046409E+04</rscale>
<asrwt>0</asrwt>
<pdfrwt beam="1">  1        2 0.22273624E+00 0.19046409E+04</pdfrwt>
<pdfrwt beam="2">  1       -2 0.83095833E-01 0.19046409E+04</pdfrwt>
<totfact> 0.16208790E+01</totfact>
</mgrwt>
</event>
<event>
 8    2  0.4480234E-052  0.1676609E+04  0.7818608E-02  0.8774819E-01
          2   -1    0    0  501    0  0.00000000000E+00  0.00000000000E+00  0.28868373040E+04  0.28868373040E+04  0.25500000000E-02 0.  1.
         -2   -1    0    0    0  501 -0.00000000000E+00 -0.00000000000E+00 -0.24343403143E+03  0.24343403144E+03  0.25500000000E-02 0. -1.
    -200001    2    1    2    0    0  0.44256963628E+03  0.86822024729E+02  0.19781606629E+04  0.21194683494E+04  0.61287888585E+03 0.  0.
   -5000001    2    3    3    0    0  0.38912621010E+03  0.18956638060E+03  0.18828866410E+04  0.19386625372E+04  0.16061043023E+03 0.  0.
     200001    1    1    2    0    0 -0.44256963628E+03 -0.86822024729E+02  0.66524260961E+03  0.10108029860E+04  0.61300000000E+03 0. -1.
         13    1    4    4    0    0  0.32607420728E+03  0.13618758393E+03  0.12256158618E+04  0.12755413355E+04  0.10566000000E+00 0.  1.
    -200003    1    4    4    0    0  0.63052002829E+02  0.53378796667E+02  0.65727077920E+03  0.66312120173E+03  0.30000000000E+02 0.  1.
    -200000    1    3    3    0    0  0.53443426176E+02 -0.10274435587E+03  0.95274021971E+02  0.18080581220E+03  0.10100000000E+03 0. -1.
<mgrwt>
<rscale>  0 0.16766090E+04</rscale>
<asrwt>0</asrwt>
<pdfrwt beam="1">  1        2 0.41240532E+00 0.16766090E+04</pdfrwt>
<pdfrwt beam="2">  1       -2 0.34776291E-01 0.16766090E+04</pdfrwt>
<totfact> 0.20253214E+01</totfact>
</mgrwt>
</event>
<event>
 8    2  0.4480234E-052  0.1257980E+04  0.7818608E-02  0.9063568E-01
          2   -1    0    0  501    0  0.00000000000E+00  0.00000000000E+00  0.40318842272E+03  0.40318842273E+03  0.25500000000E-02 0.  1.
         -2   -1    0    0    0  501 -0.00000000000E+00 -0.00000000000E+00 -0.98124918620E+03  0.98124918620E+03  0.25500000000E-02 0. -1.
    -200001    2    1    2    0    0  0.17484822611E+01  0.73937712088E+02 -0.42141636478E+03  0.74743187105E+03  0.61285626936E+03 0.  0.
   -5000001    2    3    3    0    0  0.18417440076E+03  0.25179665859E+03 -0.13347483716E+03  0.34990911205E+03  0.85434696518E+02 0.  0.
     200001    1    1    2    0    0 -0.17484822611E+01 -0.73937712088E+02 -0.15664439869E+03  0.63700573789E+03  0.61300000000E+03 0.  1.
         13    1    4    4    0    0  0.10281241601E+03  0.89761356126E+02 -0.81316458794E+02  0.15887061268E+03  0.10566000000E+00 0.  1.
    -200003    1    4    4    0    0  0.81361984749E+02  0.16203530247E+03 -0.52158378368E+02  0.19103849937E+03  0.30000000000E+02 0.  1.
    -200000    1    3    3    0    0 -0.18242591850E+03 -0.17785894650E+03 -0.28794152762E+03  0.39752275899E+03  0.10100000000E+03 0. -1.
<mgrwt>
<rscale>  0 0.12579798E+04</rscale>
<asrwt>0</asrwt>
<pdfrwt beam="1">  1        2 0.57598346E-01 0.12579798E+04</pdfrwt>
<pdfrwt beam="2">  1       -2 0.14017845E+00 0.12579798E+04</pdfrwt>
<totfact> 0.30173988E+01</totfact>
</mgrwt>
</event>
<event>
 8    2  0.4480234E-052  0.1253805E+04  0.7818608E-02  0.9067022E-01
         -2   -1    0    0    0  501 -0.00000000000E+00  0.00000000000E+00  0.12025005623E+03  0.12025005626E+03  0.25500000000E-02 0. -1.
          2   -1    0    0  501    0  0.00000000000E+00 -0.00000000000E+00 -0.32682476433E+04  0.32682476433E+04  0.25500000000E-02 0.  1.
    -200001    2    1    2    0    0  0.92572349234E+02  0.90826137283E+02 -0.15230878470E+04  0.16469697238E+04  0.61310166719E+03 0.  0.
   -5000001    2    3    3    0    0  0.82763698486E+02  0.16059170907E+03 -0.13547118358E+03  0.25389957147E+03  0.11607335613E+03 0.  0.
     200001    1    1    2    0    0 -0.92572349234E+02 -0.90826137283E+02 -0.16249097400E+04  0.17415279758E+04  0.61300000000E+03 0.  1.
         13    1    4    4    0    0 -0.27733698216E+02  0.33531463172E+02 -0.23298545230E+02  0.49359400453E+02  0.10566000000E+00 0.  1.
    -200003    1    4    4    0    0  0.11049739670E+03  0.12706024590E+03 -0.11217263835E+03  0.20454017102E+03  0.30000000000E+02 0.  1.
    -200000    1    3    3    0    0  0.98086507479E+01 -0.69765571790E+02 -0.13876166635E+04  0.13930701523E+04  0.10100000000E+03 0.  1.
<mgrwt>
<rscale>  0 0.12538053E+04</rscale>
<asrwt>0</asrwt>
<pdfrwt beam="1">  1        2 0.46689246E+00 0.12538053E+04</pdfrwt>
<pdfrwt beam="2">  1       -2 0.17178582E-01 0.12538053E+04</pdfrwt>
<totfact> 0.45997631E+01</totfact>
</mgrwt>
</event>
<event>
 8    2  0.4480234E-052  0.1781796E+04  0.7818608E-02  0.8716041E-01
         -2   -1    0    0    0  501 -0.00000000000E+00  0.00000000000E+00  0.83893368455E+03  0.83893368455E+03  0.25500000000E-02 0. -1.
          2   -1    0    0  501    0  0.00000000000E+00 -0.00000000000E+00 -0.94608078179E+03  0.94608078179E+03  0.25500000000E-02 0.  1.
    -200001    2    1    2    0    0 -0.26320968267E+03 -0.45410428136E+03  0.32494826709E+03  0.86960994414E+03  0.61248676987E+03 0.  0.
   -5000001    2    3    3    0    0 -0.55766353903E+02 -0.39624607655E+03  0.44581748203E+03  0.60279413945E+03  0.66982892236E+02 0.  0.
     200001    1    1    2    0    0  0.26320968267E+03  0.45410428136E+03 -0.43209536433E+03  0.91540452220E+03  0.61300000000E+03 0.  1.
         13    1    4    4    0    0 -0.23212469283E+02 -0.12279217501E+03  0.17798238111E+03  0.21747293193E+03  0.10566000000E+00 0.  1.
    -200003    1    4    4    0    0 -0.32553884621E+02 -0.27345390154E+03  0.26783510093E+03  0.38532120752E+03  0.30000000000E+02 0.  1.
    -200000    1    3    3    0    0 -0.20744332876E+03 -0.57858204808E+02 -0.12086921495E+03  0.26681580469E+03  0.10100000000E+03 0.  1.
<mgrwt>
<rscale>  0 0.17817958E+04</rscale>
<asrwt>0</asrwt>
<pdfrwt beam="1">  1        2 0.13515440E+00 0.17817958E+04</pdfrwt>
<pdfrwt beam="2">  1       -2 0.11984767E+00 0.17817958E+04</pdfrwt>
<totfact> 0.15339010E+01</totfact>
</mgrwt>
</event>
<event>
 8    2  0.4480234E-052  0.1784760E+04  0.7818608E-02  0.8714446E-01
         -2   -1    0    0    0  501 -0.00000000000E+00  0.00000000000E+00  0.41112513602E+03  0.41112513603E+03  0.25500000000E-02 0.  1.
          2   -1    0    0  501    0  0.00000000000E+00 -0.00000000000E+00 -0.19369816790E+04  0.19369816790E+04  0.25500000000E-02 0. -1.
    -200001    2    1    2    0    0 -0.64669373655E+03  0.43372038104E+02 -0.72229600599E+03  0.11474518025E+04  0.61224194251E+03 0.  0.
   -5000001    2    3    3    0    0 -0.73359673561E+03  0.10053644848E+03 -0.57059233998E+03  0.93760685177E+03  0.72520631936E+02 0.  0.
     200001    1    1    2    0    0  0.64669373655E+03 -0.43372038104E+02 -0.80356053699E+03  0.12006550126E+04  0.61300000000E+03 0. -1.
         13    1    4    4    0    0 -0.45506620734E+03  0.50499043365E+02 -0.32207877438E+03  0.55979474320E+03  0.10566000000E+00 0.  1.
    -200003    1    4    4    0    0 -0.27853052827E+03  0.50037405113E+02 -0.24851356561E+03  0.37781210857E+03  0.30000000000E+02 0.  1.
    -200000    1    3    3    0    0  0.86902999065E+02 -0.57164410374E+02 -0.15170366601E+03  0.20984495072E+03  0.10100000000E+03 0. -1.
<mgrwt>
<rscale>  0 0.17847598E+04</rscale>
<asrwt>0</asrwt>
<pdfrwt beam="1">  1        2 0.27671167E+00 0.17847598E+04</pdfrwt>
<pdfrwt beam="2">  1       -2 0.58732163E-01 0.17847598E+04</pdfrwt>
<totfact> 0.22203783E+01</totfact>
</mgrwt>
</event>
<event>
 8    2  0.4480234E-052  0.2409157E+04  0.7818608E-02  0.8436083E-01
          2   -1    0    0  501    0  0.00000000000E+00  0.00000000000E+00  0.34081495579E+04  0.34081495579E+04  0.25500000000E-02 0. -1.
         -2   -1    0    0    0  501 -0.00000000000E+00 -0.00000000000E+00 -0.42574699029E+03  0.42574699030E+03  0.25500000000E-02 0.  1.
    -200001    2    1    2    0    0  0.25441563652E+03 -0.13804826505E+03 -0.95961320700E+02  0.68177379227E+03  0.60977232568E+03 0.  0.
   -5000001    2    3    3    0    0  0.30620257651E+03  0.16176694638E+03 -0.65211275175E+02  0.35972160168E+03  0.72239584070E+02 0.  0.
     200001    1    1    2    0    0 -0.25441563652E+03  0.13804826505E+03  0.30783638883E+04  0.31521227559E+04  0.61300000000E+03 0. -1.
         13    1    4    4    0    0  0.92341342914E+02  0.69542782558E+02 -0.44932479709E+02  0.12402443757E+03  0.10566000000E+00 0.  1.
    -200003    1    4    4    0    0  0.21386123359E+03  0.92224163825E+02 -0.20278795466E+02  0.23569716412E+03  0.30000000000E+02 0.  1.
    -200000    1    3    3    0    0 -0.51786939989E+02 -0.29981521144E+03 -0.30750045525E+02  0.32205219059E+03  0.10100000000E+03 0. -1.
<mgrwt>
<rscale>  0 0.24091570E+04</rscale>
<asrwt>0</asrwt>
<pdfrwt beam="1">  1        2 0.48687848E+00 0.24091570E+04</pdfrwt>
<pdfrwt beam="2">  1       -2 0.60821002E-01 0.24091570E+04</pdfrwt>
<totfact> 0.31074997E+00</totfact>
</mgrwt>
</event>
<event>
 8    2  0.4480234E-052  0.1258910E+04  0.7818608E-02  0.9062800E-01
          2   -1    0    0  501    0  0.00000000000E+00  0.00000000000E+00  0.31133709123E+04  0.31133709123E+04  0.25500000000E-02 0.  1.
         -2   -1    0    0    0  501 -0.00000000000E+00 -0.00000000000E+00 -0.12726194196E+03  0.12726194199E+03  0.25500000000E-02 0. -1.
    -200001    2    1    2    0    0 -0.76746019541E+02  0.12096059438E+03  0.14744567614E+04  0.16031400093E+04  0.61279175173E+03 0.  0.
   -5000001    2    3    3    0    0 -0.25141223674E+03  0.37852127008E+02  0.38454294282E+03  0.49159674118E+03  0.17074303721E+03 0.  0.
     200001    1    1    2    0    0  0.76746019541E+02 -0.12096059438E+03  0.15116522089E+04  0.16374928450E+04  0.61300000000E+03 0.  1.
         13    1    4    4    0    0 -0.20600834442E+03  0.17279801076E+02  0.16508546395E+03  0.26455859666E+03  0.10566000000E+00 0.  1.
    -200003    1    4    4    0    0 -0.45403892329E+02  0.20572325932E+02  0.21945747887E+03  0.22703814452E+03  0.30000000000E+02 0.  1.
    -200000    1    3    3    0    0  0.17466621720E+03  0.83108467372E+02  0.10899138186E+04  0.11115432681E+04  0.10100000000E+03 0.  1.
<mgrwt>
<rscale>  0 0.12589100E+04</rscale>
<asrwt>0</asrwt>
<pdfrwt beam="1">  1        2 0.44476729E+00 0.12589100E+04</pdfrwt>
<pdfrwt beam="2">  1       -2 0.18180277E-01 0.12589100E+04</pdfrwt>
<totfact> 0.51102948E+01</totfact>
</mgrwt>
</event>
<event>
 8    2  0.4480234E-052  0.3422704E+04  0.7818608E-02  0.8132356E-01
         -2   -1    0    0    0  501 -0.00000000000E+00  0.00000000000E+00  0.22045007506E+04  0.22045007506E+04  0.25500000000E-02 0. -1.
          2   -1    0    0  501    0  0.00000000000E+00 -0.00000000000E+00 -0.13285209563E+04  0.13285209563E+04  0.25500000000E-02 0.  1.
    -200001    2    1    2    0    0 -0.74615349826E+02  0.12658018896E+04 -0.56549339679E+03  0.15177212740E+04  0.61308499392E+03 0.  0.
   -5000001    2    3    3    0    0 -0.12176819066E+03  0.67051872814E+03 -0.58303466834E+03  0.91183834071E+03  0.16461129387E+03 0.  0.
     200001    1    1    2    0    0  0.74615349826E+02 -0.12658018896E+04  0.14414731911E+04  0.20153004329E+04  0.61300000000E+03 0. -1.
         13    1    4    4    0    0  0.59974964400E+01  0.39419398261E+03 -0.30481533485E+03  0.49833449150E+03  0.10566000000E+00 0.  1.
    -200003    1    4    4    0    0 -0.12776568710E+03  0.27632474552E+03 -0.27821933348E+03  0.41350384921E+03  0.30000000000E+02 0.  1.
    -200000    1    3    3    0    0  0.47152840831E+02  0.59528316144E+03  0.17541271547E+02  0.60588293333E+03  0.10100000000E+03 0. -1.
<mgrwt>
<rscale>  0 0.34227039E+04</rscale>
<asrwt>0</asrwt>
<pdfrwt beam="1">  1        2 0.18978871E+00 0.34227039E+04</pdfrwt>
<pdfrwt beam="2">  1       -2 0.31492867E+00 0.34227039E+04</pdfrwt>
<totfact> 0.38833301E-01</totfact>
</mgrwt>
</event>
<event>
 8    2  0.4480234E-052  0.1422375E+04  0.7818608E-02  0.8937780E-01
          2   -1    0    0  501    0  0.00000000000E+00  0.00000000000E+00  0.21719613528E+04  0.21719613528E+04  0.25500000000E-02 0.  1.
         -2   -1    0    0    0  501 -0.00000000000E+00 -0.00000000000E+00 -0.23287136246E+03  0.23287136248E+03  0.25500000000E-02 0. -1.
    -200001    2    1    2    0    0 -0.29683150907E+03 -0.81786580051E+02  0.12862705584E+04  0.14578690412E+04  0.61326356667E+03 0.  0.
   -5000001    2    3    3    0    0 -0.32608658933E+03 -0.26183314122E+03  0.10154802141E+04  0.11161073779E+04  0.19901395961E+03 0.  0.
     200001    1    1    2    0    0  0.29683150907E+03  0.81786580051E+02  0.65281943192E+03  0.94696367415E+03  0.61300000000E+03 0. -1.
         13    1    4    4    0    0 -0.11653508614E+03 -0.21452864297E+03  0.59032601678E+03  0.63881748740E+03  0.10566000000E+00 0.  1.
    -200003    1    4    4    0    0 -0.20955150319E+03 -0.47304498252E+02  0.42515419733E+03  0.47728989048E+03  0.30000000000E+02 0. -1.
    -200000    1    3    3    0    0  0.29255080254E+02  0.18004656117E+03  0.27079034434E+03  0.34176166329E+03  0.10100000000E+03 0. -1.
<mgrwt>
<rscale>  0 0.14223749E+04</rscale>
<asrwt>0</asrwt>
<pdfrwt beam="1">  1        2 0.31028021E+00 0.14223749E+04</pdfrwt>
<pdfrwt beam="2">  1       -2 0.33267336E-01 0.14223749E+04</pdfrwt>
<totfact> 0.53717907E+01</totfact>
</mgrwt>
</event>
<event>
 8    2  0.4480234E-052  0.1463477E+04  0.7818608E-02  0.8909111E-01
         -2   -1    0    0    0  501 -0.00000000000E+00  0.00000000000E+00  0.60495406298E+03  0.60495406299E+03  0.25500000000E-02 0. -1.
          2   -1    0    0  501    0  0.00000000000E+00 -0.00000000000E+00 -0.88509346106E+03  0.88509346106E+03  0.25500000000E-02 0.  1.
    -200001    2    1    2    0    0  0.33312049423E+03 -0.43071049668E+02  0.80634848925E+02  0.70343997495E+03  0.61278172337E+03 0.  0.
   -5000001    2    3    3    0    0  0.12193379121E+03 -0.29737597663E+03 -0.42679308907E+02  0.33645468787E+03  0.89888334412E+02 0.  0.
     200001    1    1    2    0    0 -0.33312049423E+03  0.43071049668E+02 -0.36077424700E+03  0.78660754910E+03  0.61300000000E+03 0.  1.
         13    1    4    4    0    0  0.71526260021E+02 -0.22942844848E+03 -0.87104213870E+01  0.24047723686E+03  0.10566000000E+00 0.  1.
    -200003    1    4    4    0    0  0.50407531186E+02 -0.67947528157E+02 -0.33968887519E+02  0.95977451010E+02  0.30000000000E+02 0. -1.
    -200000    1    3    3    0    0  0.21118670303E+03  0.25430492696E+03  0.12331415783E+03  0.36698528708E+03  0.10100000000E+03 0. -1.
<mgrwt>
<rscale>  0 0.14634765E+04</rscale>
<asrwt>0</asrwt>
<pdfrwt beam="1">  1        2 0.12644192E+00 0.14634765E+04</pdfrwt>
<pdfrwt beam="2">  1       -2 0.86422009E-01 0.14634765E+04</pdfrwt>
<totfact> 0.37459797E+01</totfact>
</mgrwt>
</event>
<event>
 8    2  0.4480234E-052  0.1906288E+04  0.7818608E-02  0.8651733E-01
          2   -1    0    0  501    0  0.00000000000E+00  0.00000000000E+00  0.21241932219E+04  0.21241932219E+04  0.25500000000E-02 0.  1.
         -2   -1    0    0    0  501 -0.00000000000E+00 -0.00000000000E+00 -0.42768387701E+03  0.42768387702E+03  0.25500000000E-02 0. -1.
    -200001    2    1    2    0    0 -0.52929746315E+03  0.37349732405E+03  0.12985845034E+04  0.15752660018E+04  0.61276847856E+03 0.  0.
   -5000001    2    3    3    0    0 -0.58218790704E+03  0.44488616872E+03  0.95564254605E+03  0.12068858282E+04  0.80338435370E+02 0.  0.
     200001    1    1    2    0    0  0.52929746315E+03 -0.37349732405E+03  0.39792484148E+03  0.97661109713E+03  0.61300000000E+03 0. -1.
         13    1    4    4    0    0 -0.42929819206E+03  0.29525544031E+03  0.68208639694E+03  0.85832078898E+03  0.10566000000E+00 0.  1.
    -200003    1    4    4    0    0 -0.15288971497E+03  0.14963072841E+03  0.27355614912E+03  0.34856503919E+03  0.30000000000E+02 0.  1.
    -200000    1    3    3    0    0  0.52890443886E+02 -0.71388844679E+02  0.34294195731E+03  0.36838017358E+03  0.10100000000E+03 0. -1.
<mgrwt>
<rscale>  0 0.19062877E+04</rscale>
<asrwt>0</asrwt>
<pdfrwt beam="1">  1        2 0.30345617E+00 0.19062877E+04</pdfrwt>
<pdfrwt beam="2">  1       -2 0.61097698E-01 0.19062877E+04</pdfrwt>
<totfact> 0.16201379E+01</totfact>
</mgrwt>
</event>
<event>
 8    2  0.4480234E-052  0.1376452E+04  0.7818608E-02  0.8971043E-01
          2   -1    0    0  501    0  0.00000000000E+00  0.00000000000E+00  0.13655399005E+04  0.13655399005E+04  0.25500000000E-02 0.  1.
         -2   -1    0    0    0  501 -0.00000000000E+00 -0.00000000000E+00 -0.34686263688E+03  0.34686263689E+03  0.25500000000E-02 0. -1.
    -200001    2    1    2    0    0  0.27020936470E+03 -0.14082290818E+02  0.31539470835E+03  0.74101859465E+03  0.61353347413E+03 0.  0.
   -5000001    2    3    3    0    0  0.29737188647E+03 -0.87286335133E+02  0.45051687581E+03  0.55512713483E+03  0.95664712800E+02 0.  0.
     200001    1    1    2    0    0 -0.27020936470E+03  0.14082290818E+02  0.70328255531E+03  0.97138394278E+03  0.61300000000E+03 0.  1.
         13    1    4    4    0    0  0.33837177845E+01  0.18104307250E+01 -0.41104176158E+01  0.56244024098E+01  0.10566000000E+00 0.  1.
    -200003    1    4    4    0    0  0.29398816868E+03 -0.89096765858E+02  0.45462729343E+03  0.54950273242E+03  0.30000000000E+02 0.  1.
    -200000    1    3    3    0    0 -0.27162521770E+02  0.73204044314E+02 -0.13512216746E+03  0.18589145982E+03  0.10100000000E+03 0. -1.
<mgrwt>
<rscale>  0 0.13764516E+04</rscale>
<asrwt>0</asrwt>
<pdfrwt beam="1">  1        2 0.19507712E+00 0.13764516E+04</pdfrwt>
<pdfrwt beam="2">  1       -2 0.49551807E-01 0.13764516E+04</pdfrwt>
<totfact> 0.64964956E+01</totfact>
</mgrwt>
</event>
<event>
 8    2  0.4480234E-052  0.1376134E+04  0.7818608E-02  0.8971278E-01
         -2   -1    0    0    0  501 -0.00000000000E+00  0.00000000000E+00  0.40204829472E+03  0.40204829473E+03  0.25500000000E-02 0. -1.
          2   -1    0    0  501    0  0.00000000000E+00 -0.00000000000E+00 -0.11775602714E+04  0.11775602714E+04  0.25500000000E-02 0.  1.
    -200001    2    1    2    0    0 -0.28588112652E+03  0.10520648294E+03 -0.46845220607E+03  0.82937451914E+03  0.61287698690E+03 0.  0.
   -5000001    2    3    3    0    0  0.96750013164E+02 -0.70708435852E+02 -0.35453002747E+03  0.38156662452E+03  0.74439912824E+02 0.  0.
     200001    1    1    2    0    0  0.28588112652E+03 -0.10520648294E+03 -0.30705977063E+03  0.75023404701E+03  0.61300000000E+03 0. -1.
         13    1    4    4    0    0  0.61246637781E+02 -0.62875574117E+02 -0.27950163488E+03  0.29296017396E+03  0.10566000000E+00 0.  1.
    -200003    1    4    4    0    0  0.35503375383E+02 -0.78328617356E+01 -0.75028392583E+02  0.88606450556E+02  0.30000000000E+02 0. -1.
    -200000    1    3    3    0    0 -0.38263113968E+03  0.17591491880E+03 -0.11392217861E+03  0.44780789463E+03  0.10100000000E+03 0. -1.
<mgrwt>
<rscale>  0 0.13761339E+04</rscale>
<asrwt>0</asrwt>
<pdfrwt beam="1">  1        2 0.16822289E+00 0.13761339E+04</pdfrwt>
<pdfrwt beam="2">  1       -2 0.57435471E-01 0.13761339E+04</pdfrwt>
<totfact> 0.61011089E+01</totfact>
</mgrwt>
</event>
<event>
 8    2  0.4480234E-052  0.1505369E+04  0.7818608E-02  0.8880891E-01
         -2   -1    0    0    0  501 -0.00000000000E+00  0.00000000000E+00  0.45291173631E+03  0.45291173632E+03  0.25500000000E-02 0. -1.
          2   -1    0    0  501    0  0.00000000000E+00 -0.00000000000E+00 -0.12508702918E+04  0.12508702918E+04  0.25500000000E-02 0.  1.
    -200001    2    1    2    0    0 -0.11974440296E+03  0.41584432429E+03 -0.46730748976E+03  0.88380376537E+03  0.61275409555E+03 0.  0.
   -5000001    2    3    3    0    0 -0.25928548501E+03  0.54772611664E+01 -0.62043800942E+02  0.28187976888E+03  0.91366338103E+02 0.  0.
     200001    1    1    2    0    0  0.11974440296E+03 -0.41584432429E+03 -0.33065106570E+03  0.81997826272E+03  0.61300000000E+03 0. -1.
         13    1    4    4    0    0 -0.39155598190E+02 -0.29844624585E+02 -0.19406607730E+02  0.52919656781E+02  0.10566000000E+00 0.  1.
    -200003    1    4    4    0    0 -0.22012988682E+03  0.35321885751E+02 -0.42637193211E+02  0.22896011210E+03  0.30000000000E+02 0.  1.
    -200000    1    3    3    0    0  0.13954108205E+03  0.41036706313E+03 -0.40526368882E+03  0.60192399650E+03  0.10100000000E+03 0. -1.
<mgrwt>
<rscale>  0 0.15053688E+04</rscale>
<asrwt>0</asrwt>
<pdfrwt beam="1">  1        2 0.17869575E+00 0.15053688E+04</pdfrwt>
<pdfrwt beam="2">  1       -2 0.64701677E-01 0.15053688E+04</pdfrwt>
<totfact> 0.42659033E+01</totfact>
</mgrwt>
</event>
<event>
 8    2  0.4480234E-052  0.1698353E+04  0.7818608E-02  0.8762304E-01
         -2   -1    0    0    0  501 -0.00000000000E+00  0.00000000000E+00  0.45031623683E+03  0.45031623683E+03  0.25500000000E-02 0. -1.
          2   -1    0    0  501    0  0.00000000000E+00 -0.00000000000E+00 -0.16013208610E+04  0.16013208610E+04  0.25500000000E-02 0.  1.
    -200001    2    1    2    0    0  0.22751393775E+03 -0.99658179690E+01 -0.12305361059E+04  0.13928836038E+04  0.61159113491E+03 0.  0.
   -5000001    2    3    3    0    0  0.88335909598E+02  0.24468115321E+03 -0.26720275465E+03  0.38173190936E+03  0.81546544204E+02 0.  0.
     200001    1    1    2    0    0 -0.22751393775E+03  0.99658179690E+01  0.79531481708E+02  0.65875349409E+03  0.61300000000E+03 0. -1.
         13    1    4    4    0    0  0.82207932316E+02  0.21399980574E+03 -0.22271215010E+03  0.31961660463E+03  0.10566000000E+00 0.  1.
    -200003    1    4    4    0    0  0.61279772813E+01  0.30681347477E+02 -0.44490604549E+02  0.62115304730E+02  0.30000000000E+02 0. -1.
    -200000    1    3    3    0    0  0.13917802815E+03 -0.25464697118E+03 -0.96333335125E+03  0.10111516944E+04  0.10100000000E+03 0.  1.
<mgrwt>
<rscale>  0 0.16983531E+04</rscale>
<asrwt>0</asrwt>
<pdfrwt beam="1">  1        2 0.22876012E+00 0.16983531E+04</pdfrwt>
<pdfrwt beam="2">  1       -2 0.64330892E-01 0.16983531E+04</pdfrwt>
<totfact> 0.27512902E+01</totfact>
</mgrwt>
</event>
<event>
 8    2  0.4480234E-052  0.1452535E+04  0.7818608E-02  0.8916645E-01
         -2   -1    0    0    0  501 -0.00000000000E+00  0.00000000000E+00  0.11220954586E+04  0.11220954586E+04  0.25500000000E-02 0. -1.
          2   -1    0    0  501    0  0.00000000000E+00 -0.00000000000E+00 -0.47007073842E+03  0.47007073842E+03  0.25500000000E-02 0.  1.
    -200001    2    1    2    0    0 -0.22566924082E+03  0.93508813266E+02 -0.72265425249E+01  0.65940056099E+03  0.61244295449E+03 0.  0.
   -5000001    2    3    3    0    0 -0.12694389774E+03  0.38171793725E+02  0.28834859812E+03  0.32717391717E+03  0.79536274944E+02 0.  0.
     200001    1    1    2    0    0  0.22566924082E+03 -0.93508813266E+02  0.65925126275E+03  0.93276563607E+03  0.61300000000E+03 0. -1.
         13    1    4    4    0    0  0.35661631352E+01  0.18678362565E+02  0.41979721813E+02  0.46085865026E+02  0.10566000000E+00 0.  1.
    -200003    1    4    4    0    0 -0.13051006088E+03  0.19493431160E+02  0.24636887630E+03  0.28108805215E+03  0.30000000000E+02 0.  1.
    -200000    1    3    3    0    0 -0.98725343078E+02  0.55337019541E+02 -0.29557514064E+03  0.33222664382E+03  0.10100000000E+03 0.  1.
<mgrwt>
<rscale>  0 0.14525347E+04</rscale>
<asrwt>0</asrwt>
<pdfrwt beam="1">  1        2 0.67152962E-01 0.14525347E+04</pdfrwt>
<pdfrwt beam="2">  1       -2 0.16029935E+00 0.14525347E+04</pdfrwt>
<totfact> 0.17525194E+01</totfact>
</mgrwt>
</event>
<event>
 8    2  0.4480234E-052  0.3322501E+04  0.7818608E-02  0.8157193E-01
          2   -1    0    0  501    0  0.00000000000E+00  0.00000000000E+00  0.81562386534E+03  0.81562386534E+03  0.25500000000E-02 0.  1.
         -2   -1    0    0    0  501 -0.00000000000E+00 -0.00000000000E+00 -0.33836106708E+04  0.33836106708E+04  0.25500000000E-02 0. -1.
    -200001    2    1    2    0    0 -0.37116527614E+03  0.12063256978E+04 -0.24079365270E+04  0.27870127253E+04  0.61342991581E+03 0.  0.
   -5000001    2    3    3    0    0  0.15654437611E+02  0.81156002543E+03 -0.11776882800E+04  0.14345404793E+04  0.10991799467E+03 0.  0.
     200001    1    1    2    0    0  0.37116527614E+03 -0.12063256978E+04 -0.16005027841E+03  0.14122218108E+04  0.61300000000E+03 0.  1.
         13    1    4    4    0    0 -0.43541448421E+02  0.34275620107E+03 -0.48419841753E+03  0.59483257292E+03  0.10566000000E+00 0.  1.
    -200003    1    4    4    0    0  0.59195886032E+02  0.46880382436E+03 -0.69348986247E+03  0.83970790636E+03  0.30000000000E+02 0. -1.
    -200000    1    3    3    0    0 -0.38681971375E+03  0.39476567233E+03 -0.12302482470E+04  0.13524722460E+04  0.10100000000E+03 0.  1.
<mgrwt>
<rscale>  0 0.33225012E+04</rscale>
<asrwt>0</asrwt>
<pdfrwt beam="1">  1        2 0.11651770E+00 0.33225012E+04</pdfrwt>
<pdfrwt beam="2">  1       -2 0.48337295E+00 0.33225012E+04</pdfrwt>
<totfact> 0.65229214E-02</totfact>
</mgrwt>
</event>
<event>
 8    2  0.4480234E-052  0.2626524E+04  0.7818608E-02  0.8359247E-01
         -2   -1    0    0    0  501 -0.00000000000E+00  0.00000000000E+00  0.18568992885E+04  0.18568992885E+04  0.25500000000E-02 0. -1.
          2   -1    0    0  501    0  0.00000000000E+00 -0.00000000000E+00 -0.92878365738E+03  0.92878365739E+03  0.25500000000E-02 0.  1.
    -200001    2    1    2    0    0  0.45230750111E+03 -0.10681054195E+04  0.40281631383E+03  0.13724810370E+04  0.61319813394E+03 0.  0.
   -5000001    2    3    3    0    0  0.23316667310E+03 -0.61250400603E+02 -0.24239777869E+02  0.25249994918E+03  0.71065803926E+02 0.  0.
     200001    1    1    2    0    0 -0.45230750111E+03  0.10681054195E+04  0.52529931730E+03  0.14132019089E+04  0.61300000000E+03 0.  1.
         13    1    4    4    0    0  0.17601921589E+03 -0.51374683240E+02 -0.15325921097E+01  0.18336979698E+03  0.10566000000E+00 0.  1.
    -200003    1    4    4    0    0  0.57147457210E+02 -0.98757173630E+01 -0.22707185759E+02  0.69130152207E+02  0.30000000000E+02 0.  1.
    -200000    1    3    3    0    0  0.21914082801E+03 -0.10068550189E+04  0.42705609169E+03  0.11199810878E+04  0.10100000000E+03 0. -1.
<mgrwt>
<rscale>  0 0.26265245E+04</rscale>
<asrwt>0</asrwt>
<pdfrwt beam="1">  1        2 0.13268338E+00 0.26265245E+04</pdfrwt>
<pdfrwt beam="2">  1       -2 0.26527132E+00 0.26265245E+04</pdfrwt>
<totfact> 0.14318414E+00</totfact>
</mgrwt>
</event>
<event>
 8    2  0.4480234E-052  0.1461684E+04  0.7818608E-02  0.8910340E-01
         -2   -1    0    0    0  501 -0.00000000000E+00  0.00000000000E+00  0.10275660240E+04  0.10275660240E+04  0.25500000000E-02 0. -1.
          2   -1    0    0  501    0  0.00000000000E+00 -0.00000000000E+00 -0.51980097716E+03  0.51980097717E+03  0.25500000000E-02 0.  1.
    -200001    2    1    2    0    0 -0.37732784415E+03 -0.11994273544E+03  0.21270771407E+03  0.76022635849E+03  0.61313700163E+03 0.  0.
   -5000001    2    3    3    0    0 -0.30588534781E+03  0.12324927501E+03 -0.91078493862E+02  0.35189629058E+03  0.82337582452E+02 0.  0.
     200001    1    1    2    0    0  0.37732784415E+03  0.11994273544E+03  0.29505733278E+03  0.78714064269E+03  0.61300000000E+03 0.  1.
         13    1    4    4    0    0 -0.12504986635E+03  0.30367854764E+02 -0.40956632737E+01  0.12874960699E+03  0.10566000000E+00 0.  1.
    -200003    1    4    4    0    0 -0.18083548146E+03  0.92881420250E+02 -0.86982830588E+02  0.22314668359E+03  0.30000000000E+02 0.  1.
    -200000    1    3    3    0    0 -0.71442496340E+02 -0.24319201045E+03  0.30378620793E+03  0.40833006791E+03  0.10100000000E+03 0. -1.
<mgrwt>
<rscale>  0 0.14616837E+04</rscale>
<asrwt>0</asrwt>
<pdfrwt beam="1">  1        2 0.74257281E-01 0.14616837E+04</pdfrwt>
<pdfrwt beam="2">  1       -2 0.14679515E+00 0.14616837E+04</pdfrwt>
<totfact> 0.19757484E+01</totfact>
</mgrwt>
</event>
<event>
 8    2  0.4480234E-052  0.1297082E+04  0.7818608E-02  0.9031882E-01
         -2   -1    0    0    0  501 -0.00000000000E+00  0.00000000000E+00  0.26958369656E+03  0.26958369657E+03  0.25500000000E-02 0. -1.
          2   -1    0    0  501    0  0.00000000000E+00 -0.00000000000E+00 -0.15602037807E+04  0.15602037807E+04  0.25500000000E-02 0.  1.
    -200001    2    1    2    0    0 -0.93671728546E+02  0.41923059894E+02 -0.90624863355E+03  0.10990054662E+04  0.61318389837E+03 0.  0.
   -5000001    2    3    3    0    0  0.16513148721E+03 -0.18128973000E+03 -0.38149554003E+03  0.46467915961E+03  0.10125956766E+03 0.  0.
     200001    1    1    2    0    0  0.93671728546E+02 -0.41923059894E+02 -0.38437145058E+03  0.73078201107E+03  0.61300000000E+03 0. -1.
         13    1    4    4    0    0  0.63755789725E+02 -0.29021024028E+02 -0.54340212182E+02  0.88656022825E+02  0.10566000000E+00 0.  1.
    -200003    1    4    4    0    0  0.10137569749E+03 -0.15226870597E+03 -0.32715532785E+03  0.37602313679E+03  0.30000000000E+02 0.  1.
    -200000    1    3    3    0    0 -0.25880321576E+03  0.22321278989E+03 -0.52475309352E+03  0.63432630658E+03  0.10100000000E+03 0. -1.
<mgrwt>
<rscale>  0 0.12970821E+04</rscale>
<asrwt>0</asrwt>
<pdfrwt beam="1">  1        2 0.22288625E+00 0.12970821E+04</pdfrwt>
<pdfrwt beam="2">  1       -2 0.38511957E-01 0.12970821E+04</pdfrwt>
<totfact> 0.84789232E+01</totfact>
</mgrwt>
</event>
<event>
 8    2  0.4480234E-052  0.1742013E+04  0.7818608E-02  0.8737759E-01
          2   -1    0    0  501    0  0.00000000000E+00  0.00000000000E+00  0.18448449711E+04  0.18448449711E+04  0.25500000000E-02 0.  1.
         -2   -1    0    0    0  501 -0.00000000000E+00 -0.00000000000E+00 -0.41122821913E+03  0.41122821914E+03  0.25500000000E-02 0. -1.
    -200001    2    1    2    0    0 -0.84176820071E+02  0.61277858030E+03  0.72927466982E+03  0.11360508270E+04  0.61334053505E+03 0.  0.
   -5000001    2    3    3    0    0 -0.16347273564E+03  0.69446785312E+03  0.57816263047E+03  0.92158211607E+03  0.77670039846E+02 0.  0.
     200001    1    1    2    0    0  0.84176820071E+02 -0.61277858030E+03  0.70434208213E+03  0.11200223632E+04  0.61300000000E+03 0. -1.
         13    1    4    4    0    0 -0.11077855113E+03  0.39715564040E+03  0.29956855704E+03  0.50965264801E+03  0.10566000000E+00 0.  1.
    -200003    1    4    4    0    0 -0.52694184507E+02  0.29731221272E+03  0.27859407343E+03  0.41192946807E+03  0.30000000000E+02 0.  1.
    -200000    1    3    3    0    0  0.79295915566E+02 -0.81689272822E+02  0.15111203935E+03  0.21446871091E+03  0.10100000000E+03 0.  1.
<mgrwt>
<rscale>  0 0.17420130E+04</rscale>
<asrwt>0</asrwt>
<pdfrwt beam="1">  1        2 0.26354928E+00 0.17420130E+04</pdfrwt>
<pdfrwt beam="2">  1       -2 0.58746889E-01 0.17420130E+04</pdfrwt>
<totfact> 0.24840808E+01</totfact>
</mgrwt>
</event>
<event>
 8    2  0.4480234E-052  0.2203980E+04  0.7818608E-02  0.8516774E-01
          2   -1    0    0  501    0  0.00000000000E+00  0.00000000000E+00  0.36360908725E+04  0.36360908725E+04  0.25500000000E-02 0.  1.
         -2   -1    0    0    0  501 -0.00000000000E+00 -0.00000000000E+00 -0.33397995237E+03  0.33397995238E+03  0.25500000000E-02 0. -1.
    -200001    2    1    2    0    0 -0.68037277004E+03  0.13046805512E+03  0.57267322643E+03  0.10881395031E+04  0.61332204782E+03 0.  0.
   -5000001    2    3    3    0    0 -0.35528395805E+03 -0.21776420899E+03  0.18472180344E+03  0.46551943273E+03  0.94542350390E+02 0.  0.
     200001    1    1    2    0    0  0.68037277004E+03 -0.13046805512E+03  0.27294376937E+04  0.28819313218E+04  0.61300000000E+03 0. -1.
         13    1    4    4    0    0 -0.29324579411E+03 -0.14703131064E+03  0.15143590953E+03  0.36130893697E+03  0.10566000000E+00 0.  1.
    -200003    1    4    4    0    0 -0.62038163941E+02 -0.70732898347E+02  0.33285893911E+02  0.10421049576E+03  0.30000000000E+02 0. -1.
    -200000    1    3    3    0    0 -0.32508881199E+03  0.34823226410E+03  0.38795142299E+03  0.62262007038E+03  0.10100000000E+03 0. -1.
<mgrwt>
<rscale>  0 0.22039795E+04</rscale>
<asrwt>0</asrwt>
<pdfrwt beam="1">  1        2 0.51944155E+00 0.22039795E+04</pdfrwt>
<pdfrwt beam="2">  1       -2 0.47711422E-01 0.22039795E+04</pdfrwt>
<totfact> 0.37871020E+00</totfact>
</mgrwt>
</event>
<event>
 8    2  0.4480234E-052  0.1608848E+04  0.7818608E-02  0.8815131E-01
          2   -1    0    0  501    0  0.00000000000E+00  0.00000000000E+00  0.16037560897E+04  0.16037560897E+04  0.25500000000E-02 0.  1.
         -2   -1    0    0    0  501 -0.00000000000E+00 -0.00000000000E+00 -0.40348898572E+03  0.40348898573E+03  0.25500000000E-02 0. -1.
    -200001    2    1    2    0    0 -0.48300133377E+03 -0.14421916786E+03  0.76194719821E+03  0.11006124064E+04  0.61375457583E+03 0.  0.
   -5000001    2    3    3    0    0 -0.54055891546E+03 -0.24371992234E+03  0.42857592438E+03  0.73380089949E+03  0.56418928633E+02 0.  0.
     200001    1    1    2    0    0  0.48300133377E+03  0.14421916786E+03  0.43831990573E+03  0.90663266903E+03  0.61300000000E+03 0.  1.
         13    1    4    4    0    0 -0.23608161415E+03 -0.12611551961E+03  0.20230020255E+03  0.33550713248E+03  0.10566000000E+00 0.  1.
    -200003    1    4    4    0    0 -0.30447730131E+03 -0.11760440273E+03  0.22627572183E+03  0.39829376702E+03  0.30000000000E+02 0.  1.
    -200000    1    3    3    0    0  0.57557581689E+02  0.99500754481E+02  0.33337127383E+03  0.36681150686E+03  0.10100000000E+03 0.  1.
<mgrwt>
<rscale>  0 0.16088479E+04</rscale>
<asrwt>0</asrwt>
<pdfrwt beam="1">  1        2 0.22910802E+00 0.16088479E+04</pdfrwt>
<pdfrwt beam="2">  1       -2 0.57641283E-01 0.16088479E+04</pdfrwt>
<totfact> 0.34858764E+01</totfact>
</mgrwt>
</event>
<event>
 8    2  0.4480234E-052  0.1670902E+04  0.7818608E-02  0.8778136E-01
          2   -1    0    0  501    0  0.00000000000E+00  0.00000000000E+00  0.11808591948E+04  0.11808591948E+04  0.25500000000E-02 0.  1.
         -2   -1    0    0    0  501 -0.00000000000E+00 -0.00000000000E+00 -0.59107651816E+03  0.59107651817E+03  0.25500000000E-02 0. -1.
    -200001    2    1    2    0    0  0.37789955097E+03  0.39363878512E+03  0.12404764536E+03  0.82830565670E+03  0.61069049348E+03 0.  0.
   -5000001    2    3    3    0    0  0.29363157865E+03  0.13705057539E+03  0.22418680555E+03  0.52307221827E+03  0.34400938584E+03 0.  0.
     200001    1    1    2    0    0 -0.37789955097E+03 -0.39363878512E+03  0.46573503132E+03  0.94363005631E+03  0.61300000000E+03 0.  1.
         13    1    4    4    0    0  0.10867959526E+03  0.27660570517E+02  0.27780041125E+03  0.29958211101E+03  0.10566000000E+00 0.  1.
    -200003    1    4    4    0    0  0.18495198339E+03  0.10939000487E+03 -0.53613605695E+02  0.22349010726E+03  0.30000000000E+02 0.  1.
    -200000    1    3    3    0    0  0.84267972316E+02  0.25658820973E+03 -0.10013916019E+03  0.30523343843E+03  0.10100000000E+03 0. -1.
<mgrwt>
<rscale>  0 0.16709017E+04</rscale>
<asrwt>0</asrwt>
<pdfrwt beam="1">  1        2 0.16869417E+00 0.16709017E+04</pdfrwt>
<pdfrwt beam="2">  1       -2 0.84439504E-01 0.16709017E+04</pdfrwt>
<totfact> 0.25637983E+01</totfact>
</mgrwt>
</event>
<event>
 8    2  0.4480234E-052  0.1909023E+04  0.7818608E-02  0.8650378E-01
          2   -1    0    0  501    0  0.00000000000E+00  0.00000000000E+00  0.13911232798E+04  0.13911232798E+04  0.25500000000E-02 0.  1.
         -2   -1    0    0    0  501 -0.00000000000E+00 -0.00000000000E+00 -0.65493254168E+03  0.65493254169E+03  0.25500000000E-02 0. -1.
    -200001    2    1    2    0    0  0.61400479780E+03 -0.39817783751E+03  0.40941171493E+03  0.10370459048E+04  0.61016290803E+03 0.  0.
   -5000001    2    3    3    0    0  0.25798416228E+01  0.10651552184E+03  0.99849963231E+02  0.17996636233E+03  0.10519346195E+03 0.  0.
     200001    1    1    2    0    0 -0.61400479780E+03  0.39817783751E+03  0.32677902319E+03  0.10090099167E+04  0.61300000000E+03 0.  1.
         13    1    4    4    0    0 -0.45130326365E+01  0.16147537037E+02 -0.20408418138E+02  0.26412593793E+02  0.10566000000E+00 0.  1.
    -200003    1    4    4    0    0  0.70928742593E+01  0.90367984803E+02  0.12025838137E+03  0.15355376854E+03  0.30000000000E+02 0.  1.
    -200000    1    3    3    0    0  0.61142495617E+03 -0.50469335935E+03  0.30956175170E+03  0.85707954247E+03  0.10100000000E+03 0.  1.
<mgrwt>
<rscale>  0 0.19090227E+04</rscale>
<asrwt>0</asrwt>
<pdfrwt beam="1">  1        2 0.19873189E+00 0.19090227E+04</pdfrwt>
<pdfrwt beam="2">  1       -2 0.93561793E-01 0.19090227E+04</pdfrwt>
<totfact> 0.15178672E+01</totfact>
</mgrwt>
</event>
<event>
 8    2  0.4480234E-052  0.1583951E+04  0.7818608E-02  0.8830468E-01
          2   -1    0    0  501    0  0.00000000000E+00  0.00000000000E+00  0.45053148346E+04  0.45053148346E+04  0.25500000000E-02 0.  1.
         -2   -1    0    0    0  501 -0.00000000000E+00 -0.00000000000E+00 -0.13921900987E+03  0.13921900989E+03  0.25500000000E-02 0. -1.
    -200001    2    1    2    0    0  0.54281787211E+01  0.14766632069E+03  0.78380615687E+03  0.10071717410E+04  0.61498619249E+03 0.  0.
   -5000001    2    3    3    0    0 -0.17794278619E+03  0.27504718020E+03  0.64019145931E+03  0.72313481472E+03  0.75922784383E+02 0.  0.
     200001    1    1    2    0    0 -0.54281787211E+01 -0.14766632069E+03  0.35822896678E+04  0.36373621034E+04  0.61300000000E+03 0.  1.
         13    1    4    4    0    0 -0.11595723066E+03  0.19926668904E+03  0.39397762880E+03  0.45647746480E+03  0.10566000000E+00 0.  1.
    -200003    1    4    4    0    0 -0.61985555525E+02  0.75780491162E+02  0.24621383051E+03  0.26665734992E+03  0.30000000000E+02 0. -1.
    -200000    1    3    3    0    0  0.18337096491E+03 -0.12738085951E+03  0.14361469756E+03  0.28403692629E+03  0.10100000000E+03 0. -1.
<mgrwt>
<rscale>  0 0.15839514E+04</rscale>
<asrwt>0</asrwt>
<pdfrwt beam="1">  1        2 0.64361638E+00 0.15839514E+04</pdfrwt>
<pdfrwt beam="2">  1       -2 0.19888431E-01 0.15839514E+04</pdfrwt>
<totfact> 0.51120381E+00</totfact>
</mgrwt>
</event>
<event>
 8    2  0.4480234E-052  0.1547089E+04  0.7818608E-02  0.8853729E-01
          2   -1    0    0  501    0  0.00000000000E+00  0.00000000000E+00  0.28312740679E+04  0.28312740679E+04  0.25500000000E-02 0.  1.
         -2   -1    0    0    0  501 -0.00000000000E+00 -0.00000000000E+00 -0.21134336039E+03  0.21134336040E+03  0.25500000000E-02 0. -1.
    -200001    2    1    2    0    0  0.89219548718E+02  0.32248891321E+03  0.19629125744E+04  0.20837633966E+04  0.61407238248E+03 0.  0.
   -5000001    2    3    3    0    0 -0.14773929059E+03 -0.80051102454E+02  0.88859498746E+03  0.90794570940E+03  0.80803975704E+02 0.  0.
     200001    1    1    2    0    0 -0.89219548718E+02 -0.32248891321E+03  0.65701813309E+03  0.95885403176E+03  0.61300000000E+03 0.  1.
         13    1    4    4    0    0 -0.24766497107E+02 -0.16653354385E+02  0.34254609692E+03  0.34384379196E+03  0.10566000000E+00 0.  1.
    -200003    1    4    4    0    0 -0.12297279348E+03 -0.63397748068E+02  0.54604889054E+03  0.56410191744E+03  0.30000000000E+02 0.  1.
    -200000    1    3    3    0    0  0.23695883931E+03  0.40254001567E+03  0.10743175870E+04  0.11758176872E+04  0.10100000000E+03 0. -1.
<mgrwt>
<rscale>  0 0.15470888E+04</rscale>
<asrwt>0</asrwt>
<pdfrwt beam="1">  1        2 0.40446767E+00 0.15470888E+04</pdfrwt>
<pdfrwt beam="2">  1       -2 0.30191912E-01 0.15470888E+04</pdfrwt>
<totfact> 0.28677481E+01</totfact>
</mgrwt>
</event>
<event>
 8    2  0.4480234E-052  0.1847641E+04  0.7818608E-02  0.8681367E-01
          2   -1    0    0  501    0  0.00000000000E+00  0.00000000000E+00  0.26398076356E+04  0.26398076356E+04  0.25500000000E-02 0.  1.
         -2   -1    0    0    0  501 -0.00000000000E+00 -0.00000000000E+00 -0.32329782064E+03  0.32329782065E+03  0.25500000000E-02 0. -1.
    -200001    2    1    2    0    0  0.10989745376E+02  0.30176707508E+03  0.16579499737E+03  0.70644257299E+03  0.61675682863E+03 0.  0.
   -5000001    2    3    3    0    0 -0.51605812662E+02 -0.10585667435E+03 -0.11527269349E+03  0.19725167378E+03  0.10840495164E+03 0.  0.
     200001    1    1    2    0    0 -0.10989745376E+02 -0.30176707508E+03  0.21507148176E+04  0.22566628833E+04  0.61300000000E+03 0.  1.
         13    1    4    4    0    0  0.29998695419E+02 -0.41462233173E+02 -0.28626889257E+02  0.58639137606E+02  0.10566000000E+00 0.  1.
    -200003    1    4    4    0    0 -0.81604508081E+02 -0.64394441180E+02 -0.86645804229E+02  0.13861253617E+03  0.30000000000E+02 0.  1.
    -200000    1    3    3    0    0  0.62595558038E+02  0.40762374944E+03  0.28106769086E+03  0.50919089921E+03  0.10100000000E+03 0.  1.
<mgrwt>
<rscale>  0 0.18476407E+04</rscale>
<asrwt>0</asrwt>
<pdfrwt beam="1">  1        2 0.37711538E+00 0.18476407E+04</pdfrwt>
<pdfrwt beam="2">  1       -2 0.46185403E-01 0.18476407E+04</pdfrwt>
<totfact> 0.15583789E+01</totfact>
</mgrwt>
</event>
<event>
 8    2  0.4480234E-052  0.1516164E+04  0.7818608E-02  0.8873775E-01
         -2   -1    0    0    0  501 -0.00000000000E+00  0.00000000000E+00  0.63245854745E+03  0.63245854746E+03  0.25500000000E-02 0. -1.
          2   -1    0    0  501    0  0.00000000000E+00 -0.00000000000E+00 -0.90865745349E+03  0.90865745350E+03  0.25500000000E-02 0.  1.
    -200001    2    1    2    0    0 -0.22291763931E+03 -0.34469437641E+03  0.39620006062E+02  0.73860925812E+03  0.61275395083E+03 0.  0.
   -5000001    2    3    3    0    0  0.74504433084E+02  0.12587494593E+03 -0.18561769295E+02  0.16985492165E+03  0.84325219036E+02 0.  0.
     200001    1    1    2    0    0  0.22291763931E+03  0.34469437641E+03 -0.31581891210E+03  0.80250674283E+03  0.61300000000E+03 0. -1.
         13    1    4    4    0    0 -0.16557432570E+01 -0.35932111538E+01  0.12890835434E+02  0.13484711875E+02  0.10566000000E+00 0.  1.
    -200003    1    4    4    0    0  0.76160176341E+02  0.12946815709E+03 -0.31452604729E+02  0.15637020977E+03  0.30000000000E+02 0.  1.
    -200000    1    3    3    0    0 -0.29742207240E+03 -0.47056932234E+03  0.58181775357E+02  0.56875433648E+03  0.10100000000E+03 0.  1.
<mgrwt>
<rscale>  0 0.15161638E+04</rscale>
<asrwt>0</asrwt>
<pdfrwt beam="1">  1        2 0.12980821E+00 0.15161638E+04</pdfrwt>
<pdfrwt beam="2">  1       -2 0.90351221E-01 0.15161638E+04</pdfrwt>
<totfact> 0.32513541E+01</totfact>
</mgrwt>
</event>
<event>
 8    2  0.4480234E-052  0.1319552E+04  0.7818608E-02  0.9014202E-01
         -2   -1    0    0    0  501 -0.00000000000E+00  0.00000000000E+00  0.82048276104E+03  0.82048276104E+03  0.25500000000E-02 0. -1.
          2   -1    0    0  501    0  0.00000000000E+00 -0.00000000000E+00 -0.53054699898E+03  0.53054699899E+03  0.25500000000E-02 0.  1.
    -200001    2    1    2    0    0  0.72311665134E+02  0.22420849250E+03  0.79039235539E+02  0.66128722116E+03  0.61282555682E+03 0.  0.
   -5000001    2    3    3    0    0 -0.11453570977E+03  0.25146621255E+03  0.24284689833E+03  0.39167847650E+03  0.13447575266E+03 0.  0.
     200001    1    1    2    0    0 -0.72311665134E+02 -0.22420849250E+03  0.21089652652E+03  0.68974253887E+03  0.61300000000E+03 0.  1.
         13    1    4    4    0    0 -0.11417103077E+03  0.24827112162E+03  0.19731087294E+03  0.33705365425E+03  0.10566000000E+00 0.  1.
    -200003    1    4    4    0    0 -0.36467899549E+00  0.31950909304E+01  0.45536025390E+02  0.54624822244E+02  0.30000000000E+02 0.  1.
    -200000    1    3    3    0    0  0.18684737490E+03 -0.27257720046E+02 -0.16380766280E+03  0.26960874467E+03  0.10100000000E+03 0.  1.
<mgrwt>
<rscale>  0 0.13195524E+04</rscale>
<asrwt>0</asrwt>
<pdfrwt beam="1">  1        2 0.75792429E-01 0.13195524E+04</pdfrwt>
<pdfrwt beam="2">  1       -2 0.11721182E+00 0.13195524E+04</pdfrwt>
<totfact> 0.34582038E+01</totfact>
</mgrwt>
</event>
<event>
 8    2  0.4480234E-052  0.1804974E+04  0.7818608E-02  0.8703659E-01
          2   -1    0    0  501    0  0.00000000000E+00  0.00000000000E+00  0.27097243847E+04  0.27097243847E+04  0.25500000000E-02 0.  1.
         -2   -1    0    0    0  501 -0.00000000000E+00 -0.00000000000E+00 -0.30057783280E+03  0.30057783281E+03  0.25500000000E-02 0. -1.
    -200001    2    1    2    0    0  0.64441517339E+03 -0.14613872722E+03  0.11259057200E+04  0.14421493309E+04  0.61278345188E+03 0.  0.
   -5000001    2    3    3    0    0  0.65939913238E+03  0.49416938665E+01  0.81334110787E+03  0.10802827126E+04  0.26581073201E+03 0.  0.
     200001    1    1    2    0    0 -0.64441517339E+03  0.14613872722E+03  0.12832408319E+04  0.15681528867E+04  0.61300000000E+03 0.  1.
         13    1    4    4    0    0  0.67315110564E+03 -0.33046551919E+00  0.74413006702E+03  0.10034251781E+04  0.10566000000E+00 0.  1.
    -200003    1    4    4    0    0 -0.13751973258E+02  0.52721593857E+01  0.69211040851E+02  0.76857534496E+02  0.30000000000E+02 0.  1.
    -200000    1    3    3    0    0 -0.14983958991E+02 -0.15108042109E+03  0.31256461217E+03  0.36186661830E+03  0.10100000000E+03 0.  1.
<mgrwt>
<rscale>  0 0.18049743E+04</rscale>
<asrwt>0</asrwt>
<pdfrwt beam="1">  1        2 0.38710346E+00 0.18049743E+04</pdfrwt>
<pdfrwt beam="2">  1       -2 0.42939693E-01 0.18049743E+04</pdfrwt>
<totfact> 0.16591809E+01</totfact>
</mgrwt>
</event>
<event>
 8    2  0.4480234E-052  0.1672440E+04  0.7818608E-02  0.8777241E-01
         -2   -1    0    0    0  501 -0.00000000000E+00  0.00000000000E+00  0.35631666319E+03  0.35631666320E+03  0.25500000000E-02 0. -1.
          2   -1    0    0  501    0  0.00000000000E+00 -0.00000000000E+00 -0.19624782466E+04  0.19624782466E+04  0.25500000000E-02 0.  1.
    -200001    2    1    2    0    0  0.49676041802E+03 -0.11967611875E+03 -0.11510886569E+04  0.14001254074E+04  0.61176202391E+03 0.  0.
   -5000001    2    3    3    0    0  0.44415196010E+03  0.80088634004E+02 -0.38023189860E+03  0.59570341105E+03  0.81247179983E+02 0.  0.
     200001    1    1    2    0    0 -0.49676041802E+03  0.11967611875E+03 -0.45507292648E+03  0.91866950245E+03  0.61300000000E+03 0. -1.
         13    1    4    4    0    0  0.35497802189E+02  0.14095606440E+02 -0.61533099144E+02  0.72423156072E+02  0.10566000000E+00 0.  1.
    -200003    1    4    4    0    0  0.40865415792E+03  0.65993027565E+02 -0.31869879946E+03  0.52328025497E+03  0.30000000000E+02 0.  1.
    -200000    1    3    3    0    0  0.52608457918E+02 -0.19976475275E+03 -0.77085675832E+03  0.80442199631E+03  0.10100000000E+03 0.  1.
<mgrwt>
<rscale>  0 0.16724398E+04</rscale>
<asrwt>0</asrwt>
<pdfrwt beam="1">  1        2 0.28035403E+00 0.16724398E+04</pdfrwt>
<pdfrwt beam="2">  1       -2 0.50902382E-01 0.16724398E+04</pdfrwt>
<totfact> 0.29246608E+01</totfact>
</mgrwt>
</event>
<event>
 8    2  0.4480234E-052  0.1769453E+04  0.7818608E-02  0.8722715E-01
         -2   -1    0    0    0  501 -0.00000000000E+00  0.00000000000E+00  0.54623362801E+03  0.54623362801E+03  0.25500000000E-02 0. -1.
          2   -1    0    0  501    0  0.00000000000E+00 -0.00000000000E+00 -0.14329779958E+04  0.14329779958E+04  0.25500000000E-02 0.  1.
    -200001    2    1    2    0    0 -0.29168611147E+03  0.74974793058E+02 -0.10722970322E+04  0.12714681686E+04  0.61327674920E+03 0.  0.
   -5000001    2    3    3    0    0 -0.24051704249E+03 -0.21548374567E+03 -0.76162408006E+03  0.83135100286E+03  0.82410910984E+02 0.  0.
     200001    1    1    2    0    0  0.29168611147E+03 -0.74974793058E+02  0.18555266442E+03  0.70774345528E+03  0.61300000000E+03 0. -1.
         13    1    4    4    0    0 -0.21301829492E+03 -0.18843408171E+03 -0.65212671807E+03  0.71144463221E+03  0.10566000000E+00 0.  1.
    -200003    1    4    4    0    0 -0.27498747569E+02 -0.27049663957E+02 -0.10949736199E+03  0.11990637064E+03  0.30000000000E+02 0. -1.
    -200000    1    3    3    0    0 -0.51169068980E+02  0.29045853872E+03 -0.31067295218E+03  0.44011716571E+03  0.10100000000E+03 0. -1.
<mgrwt>
<rscale>  0 0.17694528E+04</rscale>
<asrwt>0</asrwt>
<pdfrwt beam="1">  1        2 0.20471114E+00 0.17694528E+04</pdfrwt>
<pdfrwt beam="2">  1       -2 0.78033376E-01 0.17694528E+04</pdfrwt>
<totfact> 0.22032152E+01</totfact>
</mgrwt>
</event>
<event>
 8    2  0.4480234E-052  0.1317867E+04  0.7818608E-02  0.9015515E-01
          2   -1    0    0  501    0  0.00000000000E+00  0.00000000000E+00  0.77486630960E+03  0.77486630960E+03  0.25500000000E-02 0.  1.
         -2   -1    0    0    0  501 -0.00000000000E+00 -0.00000000000E+00 -0.56034604978E+03  0.56034604979E+03  0.25500000000E-02 0. -1.
    -200001    2    1    2    0    0 -0.75831382363E+02 -0.22805931139E+03  0.12608953452E+03  0.67087024779E+03  0.61352006536E+03 0.  0.
   -5000001    2    3    3    0    0 -0.24932056148E+03 -0.26209957838E+03  0.23605512804E+03  0.43946007773E+03  0.80908621803E+02 0.  0.
     200001    1    1    2    0    0  0.75831382363E+02  0.22805931139E+03  0.88430725303E+02  0.66434211160E+03  0.61300000000E+03 0.  1.
         13    1    4    4    0    0 -0.77473019243E+01 -0.10309272773E+02 -0.54930264492E+01  0.14017356948E+02  0.10566000000E+00 0.  1.
    -200003    1    4    4    0    0 -0.24157325956E+03 -0.25179030561E+03  0.24154815449E+03  0.42544272078E+03  0.30000000000E+02 0. -1.
    -200000    1    3    3    0    0  0.17348917912E+03  0.34040266985E+02 -0.10996559353E+03  0.23141017006E+03  0.10100000000E+03 0.  1.
<mgrwt>
<rscale>  0 0.13178669E+04</rscale>
<asrwt>0</asrwt>
<pdfrwt beam="1">  1        2 0.11069519E+00 0.13178669E+04</pdfrwt>
<pdfrwt beam="2">  1       -2 0.80049435E-01 0.13178669E+04</pdfrwt>
<totfact> 0.53606755E+01</totfact>
</mgrwt>
</event>
<event>
 8    2  0.4480234E-052  0.1778260E+04  0.7818608E-02  0.8717947E-01
          2   -1    0    0  501    0  0.00000000000E+00  0.00000000000E+00  0.19141267129E+04  0.19141267129E+04  0.25500000000E-02 0.  1.
         -2   -1    0    0    0  501 -0.00000000000E+00 -0.00000000000E+00 -0.41300930918E+03  0.41300930918E+03  0.25500000000E-02 0. -1.
    -200001    2    1    2    0    0 -0.62596410293E+03  0.13814663962E+03  0.85827573146E+03  0.12317228727E+04  0.60793786840E+03 0.  0.
   -5000001    2    3    3    0    0 -0.23833539325E+02  0.21492032613E+03  0.10760851802E+03  0.26107480063E+03  0.99104360101E+02 0.  0.
     200001    1    1    2    0    0  0.62596410293E+03 -0.13814663962E+03  0.64284167231E+03  0.10954131494E+04  0.61300000000E+03 0. -1.
         13    1    4    4    0    0  0.27282746654E+02  0.96045381140E+02  0.73363525175E+02  0.12390028851E+03  0.10566000000E+00 0.  1.
    -200003    1    4    4    0    0 -0.51116285979E+02  0.11887494499E+03  0.34244992844E+02  0.13717451212E+03  0.30000000000E+02 0.  1.
    -200000    1    3    3    0    0 -0.60213056360E+03 -0.76773686517E+02  0.75066721344E+03  0.97064807211E+03  0.10100000000E+03 0.  1.
<mgrwt>
<rscale>  0 0.17782600E+04</rscale>
<asrwt>0</asrwt>
<pdfrwt beam="1">  1        2 0.27344667E+00 0.17782600E+04</pdfrwt>
<pdfrwt beam="2">  1       -2 0.59001330E-01 0.17782600E+04</pdfrwt>
<totfact> 0.22607113E+01</totfact>
</mgrwt>
</event>
<event>
 8    2  0.4480234E-052  0.1304945E+04  0.7818608E-02  0.9025653E-01
          2   -1    0    0  501    0  0.00000000000E+00  0.00000000000E+00  0.77751734522E+03  0.77751734522E+03  0.25500000000E-02 0.  1.
         -2   -1    0    0    0  501 -0.00000000000E+00 -0.00000000000E+00 -0.54753797472E+03  0.54753797473E+03  0.25500000000E-02 0. -1.
    -200001    2    1    2    0    0  0.19582690332E+03  0.31921189264E+02  0.67514626660E+01  0.64317055166E+03  0.61176436468E+03 0.  0.
   -5000001    2    3    3    0    0 -0.78632138752E+02 -0.14044748823E+03 -0.18355663961E+03  0.25399591150E+03  0.70088322265E+02 0.  0.
     200001    1    1    2    0    0 -0.19582690332E+03 -0.31921189264E+02  0.22322790783E+03  0.68188476829E+03  0.61300000000E+03 0. -1.
         13    1    4    4    0    0  0.53918420735E+01 -0.11548596640E+02 -0.37983217344E+02  0.40064672832E+02  0.10566000000E+00 0.  1.
    -200003    1    4    4    0    0 -0.84023980826E+02 -0.12889889159E+03 -0.14557342227E+03  0.21393123867E+03  0.30000000000E+02 0.  1.
    -200000    1    3    3    0    0  0.27445904207E+03  0.17236867749E+03  0.19030810228E+03  0.38917464017E+03  0.10100000000E+03 0.  1.
<mgrwt>
<rscale>  0 0.13049449E+04</rscale>
<asrwt>0</asrwt>
<pdfrwt beam="1">  1        2 0.11107390E+00 0.13049449E+04</pdfrwt>
<pdfrwt beam="2">  1       -2 0.78219712E-01 0.13049449E+04</pdfrwt>
<totfact> 0.56264626E+01</totfact>
</mgrwt>
</event>
<event>
 8    2  0.4480234E-052  0.1626900E+04  0.7818608E-02  0.8804191E-01
          2   -1    0    0  501    0  0.00000000000E+00  0.00000000000E+00  0.31902479626E+04  0.31902479626E+04  0.25500000000E-02 0.  1.
         -2   -1    0    0    0  501 -0.00000000000E+00 -0.00000000000E+00 -0.20741366662E+03  0.20741366663E+03  0.25500000000E-02 0. -1.
    -200001    2    1    2    0    0 -0.28994812096E+03  0.31614773834E+03  0.21574765626E+04  0.22836581762E+04  0.61349021363E+03 0.  0.
   -5000001    2    3    3    0    0 -0.62325497924E+02  0.42255742713E+03  0.97539722664E+03  0.10709555594E+04  0.11448499226E+03 0.  0.
     200001    1    1    2    0    0  0.28994812096E+03 -0.31614773834E+03  0.82535773335E+03  0.11140034530E+04  0.61300000000E+03 0. -1.
         13    1    4    4    0    0 -0.10746700970E+02  0.31812996433E+03  0.76547532083E+03  0.82902029151E+03  0.10566000000E+00 0.  1.
    -200003    1    4    4    0    0 -0.51578796955E+02  0.10442746281E+03  0.20992190582E+03  0.24193526784E+03  0.30000000000E+02 0.  1.
    -200000    1    3    3    0    0 -0.22762262304E+03 -0.10640968880E+03  0.11820793359E+04  0.12127026168E+04  0.10100000000E+03 0.  1.
<mgrwt>
<rscale>  0 0.16269002E+04</rscale>
<asrwt>0</asrwt>
<pdfrwt beam="1">  1        2 0.45574969E+00 0.16269002E+04</pdfrwt>
<pdfrwt beam="2">  1       -2 0.29630525E-01 0.16269002E+04</pdfrwt>
<totfact> 0.18586051E+01</totfact>
</mgrwt>
</event>
<event>
 8    2  0.4480234E-052  0.1647475E+04  0.7818608E-02  0.8791902E-01
         -2   -1    0    0    0  501 -0.00000000000E+00  0.00000000000E+00  0.91123450445E+03  0.91123450446E+03  0.25500000000E-02 0. -1.
          2   -1    0    0  501    0  0.00000000000E+00 -0.00000000000E+00 -0.74464190777E+03  0.74464190778E+03  0.25500000000E-02 0.  1.
    -200001    2    1    2    0    0  0.89180868098E+02 -0.61310706102E+02  0.62564842220E+03  0.88243379584E+03  0.61281418548E+03 0.  0.
   -5000001    2    3    3    0    0  0.10614453809E+03 -0.30595951867E+02 -0.63941944950E+02  0.18460356098E+03  0.13336838893E+03 0.  0.
     200001    1    1    2    0    0 -0.89180868098E+02  0.61310706102E+02 -0.45905582552E+03  0.77344261640E+03  0.61300000000E+03 0.  1.
         13    1    4    4    0    0  0.63961753593E+02 -0.77394657262E+02 -0.54334571354E+02  0.11416346046E+03  0.10566000000E+00 0.  1.
    -200003    1    4    4    0    0  0.42182784494E+02  0.46798705395E+02 -0.96073735957E+01  0.70440100523E+02  0.30000000000E+02 0.  1.
    -200000    1    3    3    0    0 -0.16963669989E+02 -0.30714754235E+02  0.68959036714E+03  0.69783023486E+03  0.10100000000E+03 0. -1.
<mgrwt>
<rscale>  0 0.16474749E+04</rscale>
<asrwt>0</asrwt>
<pdfrwt beam="1">  1        2 0.10637742E+00 0.16474749E+04</pdfrwt>
<pdfrwt beam="2">  1       -2 0.13017636E+00 0.16474749E+04</pdfrwt>
<totfact> 0.17267641E+01</totfact>
</mgrwt>
</event>
<event>
 8    2  0.4480234E-052  0.1310292E+04  0.7818608E-02  0.9021443E-01
         -2   -1    0    0    0  501 -0.00000000000E+00  0.00000000000E+00  0.82998422762E+03  0.82998422762E+03  0.25500000000E-02 0. -1.
          2   -1    0    0  501    0  0.00000000000E+00 -0.00000000000E+00 -0.51713827107E+03  0.51713827108E+03  0.25500000000E-02 0.  1.
    -200001    2    1    2    0    0 -0.65973964968E+02 -0.54431607160E+02 -0.62588255568E+02  0.62321973483E+03  0.61414182746E+03 0.  0.
   -5000001    2    3    3    0    0  0.18147793644E+03  0.14013408328E+03  0.76527729962E+02  0.26455204903E+03  0.10751507094E+03 0.  0.
     200001    1    1    2    0    0  0.65973964968E+02  0.54431607160E+02  0.37543421211E+03  0.72390276387E+03  0.61300000000E+03 0. -1.
         13    1    4    4    0    0  0.79485742486E+02  0.34934717197E+02  0.75384857021E+02  0.11498393608E+03  0.10566000000E+00 0.  1.
    -200003    1    4    4    0    0  0.10199219395E+03  0.10519936609E+03  0.11428729404E+01  0.14956811295E+03  0.30000000000E+02 0.  1.
    -200000    1    3    3    0    0 -0.24745190141E+03 -0.19456569044E+03 -0.13911598553E+03  0.35866768580E+03  0.10100000000E+03 0.  1.
<mgrwt>
<rscale>  0 0.13102925E+04</rscale>
<asrwt>0</asrwt>
<pdfrwt beam="1">  1        2 0.73876897E-01 0.13102925E+04</pdfrwt>
<pdfrwt beam="2">  1       -2 0.11856917E+00 0.13102925E+04</pdfrwt>
<totfact> 0.34647902E+01</totfact>
</mgrwt>
</event>
<event>
 8    2  0.4480234E-052  0.1827277E+04  0.7818608E-02  0.8691927E-01
          2   -1    0    0  501    0  0.00000000000E+00  0.00000000000E+00  0.69535044388E+03  0.69535044388E+03  0.25500000000E-02 0.  1.
         -2   -1    0    0    0  501 -0.00000000000E+00 -0.00000000000E+00 -0.12004520921E+04  0.12004520921E+04  0.25500000000E-02 0. -1.
    -200001    2    1    2    0    0 -0.16871064332E+03  0.65288499156E+03 -0.31955644773E+03  0.96579279686E+03  0.61312095854E+03 0.  0.
   -5000001    2    3    3    0    0 -0.30754674839E+03  0.63376923064E+03 -0.14847912413E+03  0.72266869885E+03  0.62893225681E+02 0.  0.
     200001    1    1    2    0    0  0.16871064332E+03 -0.65288499156E+03 -0.18554520045E+03  0.93000973908E+03  0.61300000000E+03 0. -1.
         13    1    4    4    0    0 -0.21148084172E+03  0.40988640060E+03 -0.11056225889E+03  0.47429424629E+03  0.10566000000E+00 0.  1.
    -200003    1    4    4    0    0 -0.96065906672E+02  0.22388283004E+03 -0.37916865238E+02  0.24837445255E+03  0.30000000000E+02 0. -1.
    -200000    1    3    3    0    0  0.13883610506E+03  0.19115760921E+02 -0.17107732360E+03  0.24312409802E+03  0.10100000000E+03 0. -1.
<mgrwt>
<rscale>  0 0.18272765E+04</rscale>
<asrwt>0</asrwt>
<pdfrwt beam="1">  1        2 0.99335778E-01 0.18272765E+04</pdfrwt>
<pdfrwt beam="2">  1       -2 0.17149316E+00 0.18272765E+04</pdfrwt>
<totfact> 0.89136187E+00</totfact>
</mgrwt>
</event>
<event>
 8    2  0.4480234E-052  0.1480459E+04  0.7818608E-02  0.8897553E-01
         -2   -1    0    0    0  501 -0.00000000000E+00  0.00000000000E+00  0.29048418749E+03  0.29048418750E+03  0.25500000000E-02 0. -1.
          2   -1    0    0  501    0  0.00000000000E+00 -0.00000000000E+00 -0.18862966560E+04  0.18862966560E+04  0.25500000000E-02 0.  1.
    -200001    2    1    2    0    0 -0.20451144967E+03 -0.99901442050E+02 -0.13075957431E+04  0.14621878740E+04  0.61349940535E+03 0.  0.
   -5000001    2    3    3    0    0 -0.56133686522E+02  0.14194541596E+03 -0.75768374985E+02  0.19407686619E+03  0.92873524027E+02 0.  0.
     200001    1    1    2    0    0  0.20451144967E+03  0.99901442050E+02 -0.28821672533E+03  0.71459296941E+03  0.61300000000E+03 0.  1.
         13    1    4    4    0    0 -0.42348075092E+02  0.13845300250E+03 -0.68110460563E+02  0.16000512294E+03  0.10566000000E+00 0.  1.
    -200003    1    4    4    0    0 -0.13785611431E+02  0.34924134603E+01 -0.76579144228E+01  0.34071743243E+02  0.30000000000E+02 0.  1.
    -200000    1    3    3    0    0 -0.14837776314E+03 -0.24184685801E+03 -0.12318273682E+04  0.12681110079E+04  0.10100000000E+03 0.  1.
<mgrwt>
<rscale>  0 0.14804585E+04</rscale>
<asrwt>0</asrwt>
<pdfrwt beam="1">  1        2 0.26947094E+00 0.14804585E+04</pdfrwt>
<pdfrwt beam="2">  1       -2 0.41497742E-01 0.14804585E+04</pdfrwt>
<totfact> 0.48944980E+01</totfact>
</mgrwt>
</event>
<event>
 8    2  0.4480234E-052  0.1358105E+04  0.7818608E-02  0.8984715E-01
          2   -1    0    0  501    0  0.00000000000E+00  0.00000000000E+00  0.25060989529E+04  0.25060989529E+04  0.25500000000E-02 0.  1.
         -2   -1    0    0    0  501 -0.00000000000E+00 -0.00000000000E+00 -0.18399602328E+03  0.18399602329E+03  0.25500000000E-02 0. -1.
    -200001    2    1    2    0    0  0.69439740394E+02  0.25382992411E+03  0.91437755322E+03  0.11323044757E+04  0.61382050149E+03 0.  0.
   -5000001    2    3    3    0    0 -0.15632581739E+02  0.65292237362E+02  0.89587445357E+03  0.90137781203E+03  0.73372130852E+02 0.  0.
     200001    1    1    2    0    0 -0.69439740394E+02 -0.25382992411E+03  0.14077253764E+04  0.15577905005E+04  0.61300000000E+03 0.  1.
         13    1    4    4    0    0 -0.19284414414E+02  0.30465301142E+02  0.15790727231E+03  0.16197142040E+03  0.10566000000E+00 0.  1.
    -200003    1    4    4    0    0  0.36518326757E+01  0.34826936220E+02  0.73796718126E+03  0.73940639164E+03  0.30000000000E+02 0.  1.
    -200000    1    3    3    0    0  0.85072322133E+02  0.18853768675E+03  0.18503099642E+02  0.23092666371E+03  0.10100000000E+03 0. -1.
<mgrwt>
<rscale>  0 0.13581049E+04</rscale>
<asrwt>0</asrwt>
<pdfrwt beam="1">  1        2 0.35801413E+00 0.13581049E+04</pdfrwt>
<pdfrwt beam="2">  1       -2 0.26285147E-01 0.13581049E+04</pdfrwt>
<totfact> 0.56121370E+01</totfact>
</mgrwt>
</event>
<event>
 8    2  0.4480234E-052  0.1615127E+04  0.7818608E-02  0.8811309E-01
          2   -1    0    0  501    0  0.00000000000E+00  0.00000000000E+00  0.32307985319E+04  0.32307985319E+04  0.25500000000E-02 0.  1.
         -2   -1    0    0    0  501 -0.00000000000E+00 -0.00000000000E+00 -0.20185679675E+03  0.20185679676E+03  0.25500000000E-02 0. -1.
    -200001    2    1    2    0    0  0.14470199191E+03 -0.17691596771E+03  0.25199091295E+04  0.26037276360E+04  0.61418047454E+03 0.  0.
   -5000001    2    3    3    0    0 -0.44988523573E+02 -0.28348488132E+03  0.20248678695E+04  0.20536310316E+04  0.18687664362E+03 0.  0.
     200001    1    1    2    0    0 -0.14470199191E+03  0.17691596771E+03  0.50903260567E+03  0.82892769270E+03  0.61300000000E+03 0. -1.
         13    1    4    4    0    0 -0.48082760851E+02 -0.21433264535E+03  0.18524800833E+04  0.18654578272E+04  0.10566000000E+00 0.  1.
    -200003    1    4    4    0    0  0.30942372775E+01 -0.69152235968E+02  0.17238778616E+03  0.18817320442E+03  0.30000000000E+02 0.  1.
    -200000    1    3    3    0    0  0.18969051549E+03  0.10656891362E+03  0.49504126002E+03  0.55009660437E+03  0.10100000000E+03 0. -1.
<mgrwt>
<rscale>  0 0.16151268E+04</rscale>
<asrwt>0</asrwt>
<pdfrwt beam="1">  1        2 0.46154267E+00 0.16151268E+04</pdfrwt>
<pdfrwt beam="2">  1       -2 0.28836684E-01 0.16151268E+04</pdfrwt>
<totfact> 0.18542733E+01</totfact>
</mgrwt>
</event>
<event>
 8    2  0.4480234E-052  0.1247971E+04  0.7818608E-02  0.9071873E-01
          2   -1    0    0  501    0  0.00000000000E+00  0.00000000000E+00  0.17909075314E+04  0.17909075314E+04  0.25500000000E-02 0.  1.
         -2   -1    0    0    0  501 -0.00000000000E+00 -0.00000000000E+00 -0.21740828011E+03  0.21740828012E+03  0.25500000000E-02 0. -1.
    -200001    2    1    2    0    0 -0.46593540080E+02  0.75362232315E+02  0.65460913811E+03  0.90017391442E+03  0.61151412777E+03 0.  0.
   -5000001    2    3    3    0    0 -0.14936202931E+03 -0.88751055342E+02 -0.17353669444E+02  0.19361213488E+03  0.83658492133E+02 0.  0.
     200001    1    1    2    0    0  0.46593540080E+02 -0.75362232315E+02  0.91889011320E+03  0.11081418971E+04  0.61300000000E+03 0.  1.
         13    1    4    4    0    0 -0.31060969735E+02  0.13254966691E+02 -0.28239065031E+01  0.33888989286E+02  0.10566000000E+00 0.  1.
    -200003    1    4    4    0    0 -0.11830105957E+03 -0.10200602203E+03 -0.14529762941E+02  0.15972314559E+03  0.30000000000E+02 0.  1.
    -200000    1    3    3    0    0  0.10276848923E+03  0.16411328766E+03  0.67196280756E+03  0.70656177954E+03  0.10100000000E+03 0.  1.
<mgrwt>
<rscale>  0 0.12479714E+04</rscale>
<asrwt>0</asrwt>
<pdfrwt beam="1">  1        2 0.25584393E+00 0.12479714E+04</pdfrwt>
<pdfrwt beam="2">  1       -2 0.31058325E-01 0.12479714E+04</pdfrwt>
<totfact> 0.97229163E+01</totfact>
</mgrwt>
</event>
<event>
 8    2  0.4480234E-052  0.1461938E+04  0.7818608E-02  0.8910166E-01
          2   -1    0    0  501    0  0.00000000000E+00  0.00000000000E+00  0.53129018981E+03  0.53129018981E+03  0.25500000000E-02 0. -1.
         -2   -1    0    0    0  501 -0.00000000000E+00 -0.00000000000E+00 -0.10056941827E+04  0.10056941827E+04  0.25500000000E-02 0.  1.
    -200001    2    1    2    0    0 -0.35689573453E+03  0.16523060950E+03 -0.29822274679E+03  0.78766164421E+03  0.61383901750E+03 0.  0.
   -5000001    2    3    3    0    0 -0.24111088859E+02  0.14134254566E+03 -0.38235293522E+03  0.42905998694E+03  0.13168008773E+03 0.  0.
     200001    1    1    2    0    0  0.35689573453E+03 -0.16523060950E+03 -0.17618124606E+03  0.74932272827E+03  0.61300000000E+03 0. -1.
         13    1    4    4    0    0  0.17286481405E+02  0.25503581957E+02 -0.52333308351E+01  0.31251464729E+02  0.10566000000E+00 0.  1.
    -200003    1    4    4    0    0 -0.41397570264E+02  0.11583896371E+03 -0.37711960438E+03  0.39780852221E+03  0.30000000000E+02 0.  1.
    -200000    1    3    3    0    0 -0.33278464567E+03  0.23888063834E+02  0.84130188427E+02  0.35860165726E+03  0.10100000000E+03 0. -1.
<mgrwt>
<rscale>  0 0.14619377E+04</rscale>
<asrwt>0</asrwt>
<pdfrwt beam="1">  1        2 0.75898599E-01 0.14619377E+04</pdfrwt>
<pdfrwt beam="2">  1       -2 0.14367060E+00 0.14619377E+04</pdfrwt>
<totfact> 0.20384972E+01</totfact>
</mgrwt>
</event>
<event>
 8    2  0.4480234E-052  0.1470481E+04  0.7818608E-02  0.8904324E-01
          2   -1    0    0  501    0  0.00000000000E+00  0.00000000000E+00  0.24152677016E+04  0.24152677016E+04  0.25500000000E-02 0.  1.
         -2   -1    0    0    0  501 -0.00000000000E+00 -0.00000000000E+00 -0.22381718198E+03  0.22381718199E+03  0.25500000000E-02 0. -1.
    -200001    2    1    2    0    0 -0.29296667672E+03 -0.27542574282E+03  0.99561473074E+03  0.12364156256E+04  0.61301394242E+03 0.  0.
   -5000001    2    3    3    0    0 -0.16359106850E+03 -0.37216926813E+03  0.61515158387E+03  0.81091525680E+03  0.33749086023E+03 0.  0.
     200001    1    1    2    0    0  0.29296667672E+03  0.27542574282E+03  0.11958357889E+04  0.14026692581E+04  0.61300000000E+03 0.  1.
         13    1    4    4    0    0  0.40670016099E+02 -0.30261312130E+03  0.30215246560E+03  0.42956358671E+03  0.10566000000E+00 0.  1.
    -200003    1    4    4    0    0 -0.20426108460E+03 -0.69556146825E+02  0.31299911826E+03  0.38135167009E+03  0.30000000000E+02 0.  1.
    -200000    1    3    3    0    0 -0.12937560821E+03  0.96743525310E+02  0.38046314688E+03  0.42550036877E+03  0.10100000000E+03 0.  1.
<mgrwt>
<rscale>  0 0.14704808E+04</rscale>
<asrwt>0</asrwt>
<pdfrwt beam="1">  1        2 0.34503826E+00 0.14704808E+04</pdfrwt>
<pdfrwt beam="2">  1       -2 0.31973881E-01 0.14704808E+04</pdfrwt>
<totfact> 0.43148633E+01</totfact>
</mgrwt>
</event>
<event>
 8    2  0.4480234E-052  0.1269404E+04  0.7818608E-02  0.9054186E-01
         -2   -1    0    0    0  501 -0.00000000000E+00  0.00000000000E+00  0.35688444660E+03  0.35688444661E+03  0.25500000000E-02 0. -1.
          2   -1    0    0  501    0  0.00000000000E+00 -0.00000000000E+00 -0.11287874258E+04  0.11287874258E+04  0.25500000000E-02 0.  1.
    -200001    2    1    2    0    0 -0.15145301489E+03 -0.52413727755E+02 -0.34118499163E+03  0.71953076308E+03  0.61288833071E+03 0.  0.
   -5000001    2    3    3    0    0 -0.33273147954E+03  0.78162356584E+02 -0.31426443386E+03  0.47287774368E+03  0.89619387475E+02 0.  0.
     200001    1    1    2    0    0  0.15145301489E+03  0.52413727755E+02 -0.43071798754E+03  0.76614110931E+03  0.61300000000E+03 0. -1.
         13    1    4    4    0    0 -0.47490470021E+02  0.14979754108E+02 -0.91819862289E+02  0.10445399011E+03  0.10566000000E+00 0.  1.
    -200003    1    4    4    0    0 -0.28524100952E+03  0.63182602476E+02 -0.22244457157E+03  0.36842375356E+03  0.30000000000E+02 0. -1.
    -200000    1    3    3    0    0  0.18127846465E+03 -0.13057608434E+03 -0.26920557768E+02  0.24665301940E+03  0.10100000000E+03 0. -1.
<mgrwt>
<rscale>  0 0.12694041E+04</rscale>
<asrwt>0</asrwt>
<pdfrwt beam="1">  1        2 0.16125535E+00 0.12694041E+04</pdfrwt>
<pdfrwt beam="2">  1       -2 0.50983493E-01 0.12694041E+04</pdfrwt>
<totfact> 0.83949588E+01</totfact>
</mgrwt>
</event>
<event>
 8    2  0.4480234E-052  0.1352133E+04  0.7818608E-02  0.8989215E-01
          2   -1    0    0  501    0  0.00000000000E+00  0.00000000000E+00  0.12547394308E+04  0.12547394308E+04  0.25500000000E-02 0. -1.
         -2   -1    0    0    0  501 -0.00000000000E+00 -0.00000000000E+00 -0.36427133564E+03  0.36427133565E+03  0.25500000000E-02 0.  1.
    -200001    2    1    2    0    0 -0.12194399814E+03  0.24147434538E+03  0.55374969972E+03  0.86912512449E+03  0.61282913925E+03 0.  0.
   -5000001    2    3    3    0    0 -0.18811249877E+02 -0.18850045296E+03  0.25152696746E+03  0.32409827114E+03  0.76730633437E+02 0.  0.
     200001    1    1    2    0    0  0.12194399814E+03 -0.24147434538E+03  0.33671839539E+03  0.74988564192E+03  0.61300000000E+03 0.  1.
         13    1    4    4    0    0 -0.14621342752E+01 -0.15749305789E+03  0.18559132607E+03  0.24341395317E+03  0.10566000000E+00 0.  1.
    -200003    1    4    4    0    0 -0.17349115602E+02 -0.31007395073E+02  0.65935641383E+02  0.80684317968E+02  0.30000000000E+02 0. -1.
    -200000    1    3    3    0    0 -0.10313274827E+03  0.42997479834E+03  0.30222273227E+03  0.54502685335E+03  0.10100000000E+03 0.  1.
<mgrwt>
<rscale>  0 0.13521326E+04</rscale>
<asrwt>0</asrwt>
<pdfrwt beam="1">  1        2 0.17924849E+00 0.13521326E+04</pdfrwt>
<pdfrwt beam="2">  1       -2 0.52038763E-01 0.13521326E+04</pdfrwt>
<totfact> 0.67798884E+01</totfact>
</mgrwt>
</event>
<event>
 8    2  0.4480234E-052  0.2362159E+04  0.7818608E-02  0.8453808E-01
          2   -1    0    0  501    0  0.00000000000E+00  0.00000000000E+00  0.24166186932E+04  0.24166186932E+04  0.25500000000E-02 0.  1.
         -2   -1    0    0    0  501 -0.00000000000E+00 -0.00000000000E+00 -0.57723153032E+03  0.57723153032E+03  0.25500000000E-02 0. -1.
    -200001    2    1    2    0    0 -0.51938589132E+03 -0.64345484081E+03  0.16542073205E+04  0.19479743177E+04  0.61188744659E+03 0.  0.
   -5000001    2    3    3    0    0 -0.56815676864E+02 -0.17590225636E+03  0.86361453087E+03  0.91462317633E+03  0.23777273145E+03 0.  0.
     200001    1    1    2    0    0  0.51938589132E+03  0.64345484081E+03  0.18517984245E+03  0.10458759058E+04  0.61300000000E+03 0. -1.
         13    1    4    4    0    0 -0.90800943180E+02 -0.20790838184E+03  0.53136146717E+03  0.57776788287E+03  0.10566000000E+00 0.  1.
    -200003    1    4    4    0    0  0.33985266317E+02  0.32006125472E+02  0.33225306370E+03  0.33685529346E+03  0.30000000000E+02 0.  1.
    -200000    1    3    3    0    0 -0.46257021446E+03 -0.46755258445E+03  0.79059278958E+03  0.10333511414E+04  0.10100000000E+03 0. -1.
<mgrwt>
<rscale>  0 0.23621588E+04</rscale>
<asrwt>0</asrwt>
<pdfrwt beam="1">  1        2 0.34523124E+00 0.23621588E+04</pdfrwt>
<pdfrwt beam="2">  1       -2 0.82461647E-01 0.23621588E+04</pdfrwt>
<totfact> 0.57069146E+00</totfact>
</mgrwt>
</event>
<event>
 8    2  0.4480234E-052  0.1506734E+04  0.7818608E-02  0.8879988E-01
         -2   -1    0    0    0  501 -0.00000000000E+00  0.00000000000E+00  0.16828990458E+03  0.16828990460E+03  0.25500000000E-02 0. -1.
          2   -1    0    0  501    0  0.00000000000E+00 -0.00000000000E+00 -0.33725225303E+04  0.33725225303E+04  0.25500000000E-02 0.  1.
    -200001    2    1    2    0    0 -0.38356836200E+03  0.10320319811E+03 -0.20377617062E+04  0.21645134141E+04  0.61226624956E+03 0.  0.
   -5000001    2    3    3    0    0 -0.22150584100E+03 -0.52411879697E+02 -0.18208602457E+04  0.18362946506E+04  0.68074715313E+02 0.  0.
     200001    1    1    2    0    0  0.38356836200E+03 -0.10320319811E+03 -0.11664709195E+04  0.13762990208E+04  0.61300000000E+03 0. -1.
         13    1    4    4    0    0 -0.85964657949E+02 -0.42556556602E+02 -0.61604537136E+03  0.62346843839E+03  0.10566000000E+00 0.  1.
    -200003    1    4    4    0    0 -0.13554118305E+03 -0.98553230953E+01 -0.12048148743E+04  0.12128262122E+04  0.30000000000E+02 0.  1.
    -200000    1    3    3    0    0 -0.16206252100E+03  0.15561507781E+03 -0.21690146050E+03  0.32821876351E+03  0.10100000000E+03 0.  1.
<mgrwt>
<rscale>  0 0.15067335E+04</rscale>
<asrwt>0</asrwt>
<pdfrwt beam="1">  1        2 0.48178889E+00 0.15067335E+04</pdfrwt>
<pdfrwt beam="2">  1       -2 0.24041417E-01 0.15067335E+04</pdfrwt>
<totfact> 0.21571069E+01</totfact>
</mgrwt>
</event>
<event>
 8    2  0.4480234E-052  0.1287968E+04  0.7818608E-02  0.9039162E-01
          2   -1    0    0  501    0  0.00000000000E+00  0.00000000000E+00  0.95392109419E+03  0.95392109419E+03  0.25500000000E-02 0.  1.
         -2   -1    0    0    0  501 -0.00000000000E+00 -0.00000000000E+00 -0.43474798489E+03  0.43474798489E+03  0.25500000000E-02 0. -1.
    -200001    2    1    2    0    0  0.18101174188E+03 -0.18733691747E+02  0.17178892641E+03  0.66095967800E+03  0.61175163163E+03 0.  0.
   -5000001    2    3    3    0    0  0.30284832443E+03 -0.17945812542E+02  0.31332530391E+03  0.44864312246E+03  0.10520810547E+03 0.  0.
     200001    1    1    2    0    0 -0.18101174188E+03  0.18733691747E+02  0.34738418289E+03  0.72770940109E+03  0.61300000000E+03 0.  1.
         13    1    4    4    0    0  0.12147292604E+03 -0.21370543014E+02  0.64305243160E+02  0.13909546122E+03  0.10566000000E+00 0.  1.
    -200003    1    4    4    0    0  0.18137539839E+03  0.34247304719E+01  0.24902006075E+03  0.30954766124E+03  0.30000000000E+02 0.  1.
    -200000    1    3    3    0    0 -0.12183658255E+03 -0.78787920554E+00 -0.14153637750E+03  0.21231655554E+03  0.10100000000E+03 0. -1.
<mgrwt>
<rscale>  0 0.12879678E+04</rscale>
<asrwt>0</asrwt>
<pdfrwt beam="1">  1        2 0.13627444E+00 0.12879678E+04</pdfrwt>
<pdfrwt beam="2">  1       -2 0.62106855E-01 0.12879678E+04</pdfrwt>
<totfact> 0.70943617E+01</totfact>
</mgrwt>
</event>
<event>
 8    2  0.4480234E-052  0.2664783E+04  0.7818608E-02  0.8346523E-01
          2   -1    0    0  501    0  0.00000000000E+00  0.00000000000E+00  0.16898896698E+04  0.16898896698E+04  0.25500000000E-02 0.  1.
         -2   -1    0    0    0  501 -0.00000000000E+00 -0.00000000000E+00 -0.10505226703E+04  0.10505226703E+04  0.25500000000E-02 0. -1.
    -200001    2    1    2    0    0 -0.42343493538E+03 -0.90520458874E+03  0.97275024521E+03  0.15215580089E+04  0.60844329479E+03 0.  0.
   -5000001    2    3    3    0    0 -0.34233131377E+03 -0.53581219568E+03  0.24942740642E+03  0.69910711883E+03  0.14916868003E+03 0.  0.
     200001    1    1    2    0    0  0.42343493538E+03  0.90520458874E+03 -0.33338324570E+03  0.12188543311E+04  0.61300000000E+03 0. -1.
         13    1    4    4    0    0 -0.23646414472E+03 -0.44252420999E+03  0.23525204199E+03  0.55415386184E+03  0.10566000000E+00 0.  1.
    -200003    1    4    4    0    0 -0.10586716905E+03 -0.93287985687E+02  0.14175364431E+02  0.14495325699E+03  0.30000000000E+02 0.  1.
    -200000    1    3    3    0    0 -0.81103621606E+02 -0.36939239306E+03  0.72332283879E+03  0.82245089009E+03  0.10100000000E+03 0.  1.
<mgrwt>
<rscale>  0 0.26647832E+04</rscale>
<asrwt>0</asrwt>
<pdfrwt beam="1">  1        2 0.24141281E+00 0.26647832E+04</pdfrwt>
<pdfrwt beam="2">  1       -2 0.15007467E+00 0.26647832E+04</pdfrwt>
<totfact> 0.30778014E+00</totfact>
</mgrwt>
</event>
<event>
 8    2  0.4480234E-052  0.1546869E+04  0.7818608E-02  0.8853870E-01
         -2   -1    0    0    0  501 -0.00000000000E+00  0.00000000000E+00  0.10508486013E+04  0.10508486013E+04  0.25500000000E-02 0. -1.
          2   -1    0    0  501    0  0.00000000000E+00 -0.00000000000E+00 -0.56925540344E+03  0.56925540345E+03  0.25500000000E-02 0.  1.
    -200001    2    1    2    0    0  0.45651669091E+03 -0.72836561721E+02  0.37067952280E+03  0.84435694728E+03  0.60151699227E+03 0.  0.
   -5000001    2    3    3    0    0  0.57584256210E+03 -0.55222492562E+02  0.21984450119E+03  0.62640942444E+03  0.97020525255E+02 0.  0.
     200001    1    1    2    0    0 -0.45651669091E+03  0.72836561721E+02  0.11091367501E+03  0.77574705743E+03  0.61300000000E+03 0.  1.
         13    1    4    4    0    0  0.27761538713E+03 -0.80066060526E+00  0.14277455319E+03  0.31217868030E+03  0.10566000000E+00 0.  1.
    -200003    1    4    4    0    0  0.29822717496E+03 -0.54421831957E+02  0.77069947997E+02  0.31423074414E+03  0.30000000000E+02 0.  1.
    -200000    1    3    3    0    0 -0.11932587119E+03 -0.17614069159E+02  0.15083502161E+03  0.21794752284E+03  0.10100000000E+03 0.  1.
<mgrwt>
<rscale>  0 0.15468694E+04</rscale>
<asrwt>0</asrwt>
<pdfrwt beam="1">  1        2 0.81322201E-01 0.15468694E+04</pdfrwt>
<pdfrwt beam="2">  1       -2 0.15012123E+00 0.15468694E+04</pdfrwt>
<totfact> 0.16646813E+01</totfact>
</mgrwt>
</event>
<event>
 8    2  0.4480234E-052  0.1604316E+04  0.7818608E-02  0.8817901E-01
          2   -1    0    0  501    0  0.00000000000E+00  0.00000000000E+00  0.14210642295E+04  0.14210642295E+04  0.25500000000E-02 0.  1.
         -2   -1    0    0    0  501 -0.00000000000E+00 -0.00000000000E+00 -0.45279948503E+03  0.45279948504E+03  0.25500000000E-02 0. -1.
    -200001    2    1    2    0    0 -0.10528371913E+03 -0.50591286162E+03  0.47188111610E+03  0.93089065469E+03  0.61388365199E+03 0.  0.
   -5000001    2    3    3    0    0  0.16279632933E+03 -0.26153628089E+03  0.45135597894E+03  0.55378442715E+03  0.89727927416E+02 0.  0.
     200001    1    1    2    0    0  0.10528371913E+03  0.50591286162E+03  0.49638362833E+03  0.94297305982E+03  0.61300000000E+03 0.  1.
         13    1    4    4    0    0  0.15109117263E+03 -0.22219766268E+03  0.35981187836E+03  0.44907120006E+03  0.10566000000E+00 0.  1.
    -200003    1    4    4    0    0  0.11705156695E+02 -0.39338618207E+02  0.91544100579E+02  0.10471322708E+03  0.30000000000E+02 0. -1.
    -200000    1    3    3    0    0 -0.26808004846E+03 -0.24437658073E+03  0.20525137159E+02  0.37710622754E+03  0.10100000000E+03 0. -1.
<mgrwt>
<rscale>  0 0.16043156E+04</rscale>
<asrwt>0</asrwt>
<pdfrwt beam="1">  1        2 0.20300917E+00 0.16043156E+04</pdfrwt>
<pdfrwt beam="2">  1       -2 0.64685641E-01 0.16043156E+04</pdfrwt>
<totfact> 0.34152867E+01</totfact>
</mgrwt>
</event>
<event>
 8    2  0.4480234E-052  0.1293368E+04  0.7818608E-02  0.9034841E-01
         -2   -1    0    0    0  501 -0.00000000000E+00  0.00000000000E+00  0.50639101908E+03  0.50639101909E+03  0.25500000000E-02 0. -1.
          2   -1    0    0  501    0  0.00000000000E+00 -0.00000000000E+00 -0.82584387808E+03  0.82584387808E+03  0.25500000000E-02 0.  1.
    -200001    2    1    2    0    0  0.19755456319E+03  0.38058120400E+02 -0.11702709302E+03  0.65605340031E+03  0.61337957057E+03 0.  0.
   -5000001    2    3    3    0    0  0.26563202373E+03 -0.72741971660E+02  0.16206253499E+03  0.33201139455E+03  0.90086260852E+02 0.  0.
     200001    1    1    2    0    0 -0.19755456319E+03 -0.38058120400E+02 -0.20242576598E+03  0.67618149686E+03  0.61300000000E+03 0. -1.
         13    1    4    4    0    0  0.17952900681E+03 -0.38651945280E+02  0.65708080478E+02  0.19504409800E+03  0.10566000000E+00 0.  1.
    -200003    1    4    4    0    0  0.86103016918E+02 -0.34090026381E+02  0.96354454507E+02  0.13696729655E+03  0.30000000000E+02 0.  1.
    -200000    1    3    3    0    0 -0.68077460539E+02  0.11080009206E+03 -0.27908962801E+03  0.32404200576E+03  0.10100000000E+03 0.  1.
<mgrwt>
<rscale>  0 0.12933676E+04</rscale>
<asrwt>0</asrwt>
<pdfrwt beam="1">  1        2 0.11797770E+00 0.12933676E+04</pdfrwt>
<pdfrwt beam="2">  1       -2 0.72341574E-01 0.12933676E+04</pdfrwt>
<totfact> 0.61935924E+01</totfact>
</mgrwt>
</event>
<event>
 8    2  0.4480234E-052  0.2246890E+04  0.7818608E-02  0.8499161E-01
          2   -1    0    0  501    0  0.00000000000E+00  0.00000000000E+00  0.19195812074E+04  0.19195812074E+04  0.25500000000E-02 0.  1.
         -2   -1    0    0    0  501 -0.00000000000E+00 -0.00000000000E+00 -0.65750199425E+03  0.65750199425E+03  0.25500000000E-02 0. -1.
    -200001    2    1    2    0    0  0.68588485798E+03  0.16531511232E+03 -0.84147102709E+02  0.93822340951E+03  0.61271143819E+03 0.  0.
   -5000001    2    3    3    0    0  0.39036505372E+03 -0.86085943585E+02  0.19355468714E+03  0.45052090828E+03  0.75564588477E+02 0.  0.
     200001    1    1    2    0    0 -0.68588485798E+03 -0.16531511233E+03  0.13462263158E+04  0.16388597921E+04  0.61300000000E+03 0.  1.
         13    1    4    4    0    0  0.26030788431E+02 -0.24880748022E+02  0.20783227931E+02  0.41576523373E+02  0.10566000000E+00 0.  1.
    -200003    1    4    4    0    0  0.36433426529E+03 -0.61205195563E+02  0.17277145921E+03  0.40894438490E+03  0.30000000000E+02 0.  1.
    -200000    1    3    3    0    0  0.29551980426E+03  0.25140105591E+03 -0.27770178985E+03  0.48770250123E+03  0.10100000000E+03 0. -1.
<mgrwt>
<rscale>  0 0.22468898E+04</rscale>
<asrwt>0</asrwt>
<pdfrwt beam="1">  1        2 0.27422589E+00 0.22468898E+04</pdfrwt>
<pdfrwt beam="2">  1       -2 0.93928856E-01 0.22468898E+04</pdfrwt>
<totfact> 0.77302714E+00</totfact>
</mgrwt>
</event>
<event>
 8    2  0.4480234E-052  0.1352373E+04  0.7818608E-02  0.8989034E-01
          2   -1    0    0  501    0  0.00000000000E+00  0.00000000000E+00  0.19280872650E+04  0.19280872650E+04  0.25500000000E-02 0.  1.
         -2   -1    0    0    0  501 -0.00000000000E+00 -0.00000000000E+00 -0.23714072329E+03  0.23714072331E+03  0.25500000000E-02 0. -1.
    -200001    2    1    2    0    0  0.25871049483E+03  0.92377262413E+02  0.97160444316E+03  0.11810091440E+04  0.61261956017E+03 0.  0.
   -5000001    2    3    3    0    0  0.27400137412E+03  0.18921971562E+03  0.98175620201E+03  0.10398839161E+04  0.81439947558E+02 0.  0.
     200001    1    1    2    0    0 -0.25871049483E+03 -0.92377262413E+02  0.71934209854E+03  0.98421884430E+03  0.61300000000E+03 0.  1.
         13    1    4    4    0    0  0.99406560882E+02  0.99423327726E+02  0.48270106624E+03  0.50275937878E+03  0.10566000000E+00 0.  1.
    -200003    1    4    4    0    0  0.17459481324E+03  0.89796387889E+02  0.49905513577E+03  0.53712453736E+03  0.30000000000E+02 0.  1.
    -200000    1    3    3    0    0 -0.15290879292E+02 -0.96842453202E+02 -0.10151758852E+02  0.14112522786E+03  0.10100000000E+03 0. -1.
<mgrwt>
<rscale>  0 0.13523727E+04</rscale>
<asrwt>0</asrwt>
<pdfrwt beam="1">  1        2 0.27544103E+00 0.13523727E+04</pdfrwt>
<pdfrwt beam="2">  1       -2 0.33877247E-01 0.13523727E+04</pdfrwt>
<totfact> 0.69624251E+01</totfact>
</mgrwt>
</event>
<event>
 8    2  0.4480234E-052  0.1823077E+04  0.7818608E-02  0.8694123E-01
         -2   -1    0    0    0  501 -0.00000000000E+00  0.00000000000E+00  0.59858790447E+03  0.59858790447E+03  0.25500000000E-02 0. -1.
          2   -1    0    0  501    0  0.00000000000E+00 -0.00000000000E+00 -0.13881043180E+04  0.13881043180E+04  0.25500000000E-02 0.  1.
    -200001    2    1    2    0    0  0.51276075580E+03  0.30280753933E+03 -0.48111232510E+02  0.85529192151E+03  0.61204050661E+03 0.  0.
   -5000001    2    3    3    0    0  0.96790036193E+02  0.13261494046E+03  0.23416117530E+03  0.31503654440E+03  0.13214210061E+03 0.  0.
     200001    1    1    2    0    0 -0.51276075580E+03 -0.30280753933E+03 -0.74140518099E+03  0.11314003009E+04  0.61300000000E+03 0. -1.
         13    1    4    4    0    0  0.63567619688E+02  0.29680645322E+02  0.17416168031E+03  0.18776071216E+03  0.10566000000E+00 0.  1.
    -200003    1    4    4    0    0  0.33222416505E+02  0.10293429514E+03  0.59999494988E+02  0.12727583224E+03  0.30000000000E+02 0.  1.
    -200000    1    3    3    0    0  0.41597071960E+03  0.17019259887E+03 -0.28227240781E+03  0.54025537710E+03  0.10100000000E+03 0.  1.
<mgrwt>
<rscale>  0 0.18230770E+04</rscale>
<asrwt>0</asrwt>
<pdfrwt beam="1">  1        2 0.19830062E+00 0.18230770E+04</pdfrwt>
<pdfrwt beam="2">  1       -2 0.85512559E-01 0.18230770E+04</pdfrwt>
<totfact> 0.18870245E+01</totfact>
</mgrwt>
</event>
<event>
 8    2  0.4480234E-052  0.1564724E+04  0.7818608E-02  0.8842518E-01
         -2   -1    0    0    0  501 -0.00000000000E+00  0.00000000000E+00  0.18756198610E+03  0.18756198612E+03  0.25500000000E-02 0. -1.
          2   -1    0    0  501    0  0.00000000000E+00 -0.00000000000E+00 -0.32634009296E+04  0.32634009296E+04  0.25500000000E-02 0.  1.
    -200001    2    1    2    0    0 -0.29147602958E+03  0.37137936970E+03 -0.12717343779E+04  0.14879440173E+04  0.61138217062E+03 0.  0.
   -5000001    2    3    3    0    0 -0.38369140405E+03  0.60793786188E+02 -0.45993441266E+03  0.60806489857E+03  0.85371417562E+02 0.  0.
     200001    1    1    2    0    0  0.29147602958E+03 -0.37137936970E+03 -0.18041045656E+04  0.19630188985E+04  0.61300000000E+03 0.  1.
         13    1    4    4    0    0 -0.22039779692E+03  0.25499249369E+02 -0.31241188075E+03  0.38317958584E+03  0.10566000000E+00 0.  1.
    -200003    1    4    4    0    0 -0.16329360713E+03  0.35294536819E+02 -0.14752253191E+03  0.22488531273E+03  0.30000000000E+02 0.  1.
    -200000    1    3    3    0    0  0.92215374475E+02  0.31058558352E+03 -0.81179996525E+03  0.87987911871E+03  0.10100000000E+03 0.  1.
<mgrwt>
<rscale>  0 0.15647236E+04</rscale>
<asrwt>0</asrwt>
<pdfrwt beam="1">  1        2 0.46620010E+00 0.15647236E+04</pdfrwt>
<pdfrwt beam="2">  1       -2 0.26794571E-01 0.15647236E+04</pdfrwt>
<totfact> 0.20418124E+01</totfact>
</mgrwt>
</event>
<event>
 8    2  0.4480234E-052  0.1511873E+04  0.7818608E-02  0.8876596E-01
         -2   -1    0    0    0  501 -0.00000000000E+00  0.00000000000E+00  0.52315528353E+03  0.52315528354E+03  0.25500000000E-02 0. -1.
          2   -1    0    0  501    0  0.00000000000E+00 -0.00000000000E+00 -0.10922955754E+04  0.10922955755E+04  0.25500000000E-02 0.  1.
    -200001    2    1    2    0    0  0.63279802629E+02  0.23350979152E+03 -0.68376987008E+03  0.94654122657E+03  0.60816765962E+03 0.  0.
   -5000001    2    3    3    0    0  0.16561227032E+03  0.55810379300E+02 -0.69320973223E+03  0.71776376692E+03  0.64053647237E+02 0.  0.
     200001    1    1    2    0    0 -0.63279802629E+02 -0.23350979152E+03  0.11462957817E+03  0.66890963242E+03  0.61300000000E+03 0. -1.
         13    1    4    4    0    0  0.85793171077E+02  0.49813297417E+02 -0.32746055703E+03  0.34215823880E+03  0.10566000000E+00 0.  1.
    -200003    1    4    4    0    0  0.79819099246E+02  0.59970818828E+01 -0.36574917520E+03  0.37560552812E+03  0.30000000000E+02 0.  1.
    -200000    1    3    3    0    0 -0.10233246769E+03  0.17769941222E+03  0.94398621504E+01  0.22877745965E+03  0.10100000000E+03 0. -1.
<mgrwt>
<rscale>  0 0.15118733E+04</rscale>
<asrwt>0</asrwt>
<pdfrwt beam="1">  1        2 0.15604223E+00 0.15118733E+04</pdfrwt>
<pdfrwt beam="2">  1       -2 0.74736469E-01 0.15118733E+04</pdfrwt>
<totfact> 0.38434507E+01</totfact>
</mgrwt>
</event>
<event>
 8    2  0.4480234E-052  0.1512152E+04  0.7818608E-02  0.8876412E-01
         -2   -1    0    0    0  501 -0.00000000000E+00  0.00000000000E+00  0.82671749125E+03  0.82671749126E+03  0.25500000000E-02 0. -1.
          2   -1    0    0  501    0  0.00000000000E+00 -0.00000000000E+00 -0.69147071506E+03  0.69147071507E+03  0.25500000000E-02 0.  1.
    -200001    2    1    2    0    0 -0.43556773060E+03  0.10168440102E+02  0.14657229191E+03  0.76604466124E+03  0.61279551332E+03 0.  0.
   -5000001    2    3    3    0    0 -0.51059505572E+03 -0.15409968437E+03  0.12204309591E+03  0.55768008246E+03  0.10797468899E+03 0.  0.
     200001    1    1    2    0    0  0.43556773060E+03 -0.10168440102E+02 -0.11325515717E+02  0.75214354509E+03  0.61300000000E+03 0.  1.
         13    1    4    4    0    0 -0.62895803779E+02 -0.43665014511E+02 -0.96856668348E+01  0.77177321353E+02  0.10566000000E+00 0.  1.
    -200003    1    4    4    0    0 -0.44769925194E+03 -0.11043466986E+03  0.13172876275E+03  0.48050276111E+03  0.30000000000E+02 0.  1.
    -200000    1    3    3    0    0  0.75027325120E+02  0.16426812448E+03  0.24529195994E+02  0.20836457878E+03  0.10100000000E+03 0.  1.
<mgrwt>
<rscale>  0 0.15121520E+04</rscale>
<asrwt>0</asrwt>
<pdfrwt beam="1">  1        2 0.98781530E-01 0.15121520E+04</pdfrwt>
<pdfrwt beam="2">  1       -2 0.11810250E+00 0.15121520E+04</pdfrwt>
<totfact> 0.24415991E+01</totfact>
</mgrwt>
</event>
<event>
 8    2  0.4480234E-052  0.1654820E+04  0.7818608E-02  0.8787560E-01
          2   -1    0    0  501    0  0.00000000000E+00  0.00000000000E+00  0.18981417516E+04  0.18981417516E+04  0.25500000000E-02 0.  1.
         -2   -1    0    0    0  501 -0.00000000000E+00 -0.00000000000E+00 -0.36067256394E+03  0.36067256395E+03  0.25500000000E-02 0. -1.
    -200001    2    1    2    0    0 -0.23119179644E+03 -0.50548976725E+03  0.77504930888E+03  0.11336376081E+04  0.61275055582E+03 0.  0.
   -5000001    2    3    3    0    0 -0.10952873491E+03  0.82880821121E+02  0.36542731754E+03  0.39948978534E+03  0.84789090741E+02 0.  0.
     200001    1    1    2    0    0  0.23119179644E+03  0.50548976725E+03  0.76241987875E+03  0.11251767075E+04  0.61300000000E+03 0.  1.
         13    1    4    4    0    0 -0.99465734641E+02  0.43802788412E+02  0.21550227406E+03  0.24135732417E+03  0.10566000000E+00 0.  1.
    -200003    1    4    4    0    0 -0.10063000265E+02  0.39078032709E+02  0.14992504348E+03  0.15813246117E+03  0.30000000000E+02 0.  1.
    -200000    1    3    3    0    0 -0.12166306153E+03 -0.58837058837E+03  0.40962199135E+03  0.73414782271E+03  0.10100000000E+03 0.  1.
<mgrwt>
<rscale>  0 0.16548204E+04</rscale>
<asrwt>0</asrwt>
<pdfrwt beam="1">  1        2 0.27116311E+00 0.16548204E+04</pdfrwt>
<pdfrwt beam="2">  1       -2 0.51524652E-01 0.16548204E+04</pdfrwt>
<totfact> 0.30831220E+01</totfact>
</mgrwt>
</event>
<event>
 8    2  0.4480234E-052  0.1335568E+04  0.7818608E-02  0.9001825E-01
         -2   -1    0    0    0  501 -0.00000000000E+00  0.00000000000E+00  0.55544596033E+03  0.55544596033E+03  0.25500000000E-02 0. -1.
          2   -1    0    0  501    0  0.00000000000E+00 -0.00000000000E+00 -0.80284253634E+03  0.80284253634E+03  0.25500000000E-02 0.  1.
    -200001    2    1    2    0    0  0.63148005915E+02  0.56068219479E+02 -0.37854397992E+03  0.72575394628E+03  0.61342638509E+03 0.  0.
   -5000001    2    3    3    0    0  0.16085316061E+03  0.57884412755E+02  0.39313850670E+02  0.28489596190E+03  0.22449005709E+03 0.  0.
     200001    1    1    2    0    0 -0.63148005915E+02 -0.56068219479E+02  0.13114740391E+03  0.63253455039E+03  0.61300000000E+03 0. -1.
         13    1    4    4    0    0  0.12989760089E+03  0.12902615414E+03  0.70312366005E+02  0.19612489680E+03  0.10566000000E+00 0.  1.
    -200003    1    4    4    0    0  0.30955559714E+02 -0.71141741384E+02 -0.30998515335E+02  0.88771065091E+02  0.30000000000E+02 0.  1.
    -200000    1    3    3    0    0 -0.97705154691E+02 -0.18161932762E+01 -0.41785783059E+03  0.44085798439E+03  0.10100000000E+03 0.  1.
<mgrwt>
<rscale>  0 0.13355683E+04</rscale>
<asrwt>0</asrwt>
<pdfrwt beam="1">  1        2 0.11469179E+00 0.13355683E+04</pdfrwt>
<pdfrwt beam="2">  1       -2 0.79349423E-01 0.13355683E+04</pdfrwt>
<totfact> 0.52171908E+01</totfact>
</mgrwt>
</event>
<event>
 8    2  0.4480234E-052  0.1719479E+04  0.7818608E-02  0.8750332E-01
         -2   -1    0    0    0  501 -0.00000000000E+00  0.00000000000E+00  0.36655858176E+03  0.36655858177E+03  0.25500000000E-02 0. -1.
          2   -1    0    0  501    0  0.00000000000E+00 -0.00000000000E+00 -0.20164638308E+04  0.20164638308E+04  0.25500000000E-02 0.  1.
    -200001    2    1    2    0    0  0.34685583544E+03  0.14852738634E+03 -0.14770816696E+04  0.16427479062E+04  0.61194858412E+03 0.  0.
   -5000001    2    3    3    0    0  0.20008585051E+03 -0.19870910453E+03 -0.37566081515E+03  0.47422597330E+03  0.65188725383E+02 0.  0.
     200001    1    1    2    0    0 -0.34685583544E+03 -0.14852738634E+03 -0.17282357935E+03  0.74027450628E+03  0.61300000000E+03 0.  1.
         13    1    4    4    0    0  0.16753167221E+02 -0.69037680601E+00 -0.33149701783E+02  0.37149147022E+02  0.10566000000E+00 0.  1.
    -200003    1    4    4    0    0  0.18333268328E+03 -0.19801872772E+03 -0.34251111337E+03  0.43707682628E+03  0.30000000000E+02 0.  1.
    -200000    1    3    3    0    0  0.14676998493E+03  0.34723649086E+03 -0.11014208545E+04  0.11685219329E+04  0.10100000000E+03 0.  1.
<mgrwt>
<rscale>  0 0.17194791E+04</rscale>
<asrwt>0</asrwt>
<pdfrwt beam="1">  1        2 0.28806626E+00 0.17194791E+04</pdfrwt>
<pdfrwt beam="2">  1       -2 0.52365512E-01 0.17194791E+04</pdfrwt>
<totfact> 0.25789049E+01</totfact>
</mgrwt>
</event>
<event>
 8    2  0.4480234E-052  0.1885260E+04  0.7818608E-02  0.8662228E-01
          2   -1    0    0  501    0  0.00000000000E+00  0.00000000000E+00  0.29404734778E+04  0.29404734778E+04  0.25500000000E-02 0.  1.
         -2   -1    0    0    0  501 -0.00000000000E+00 -0.00000000000E+00 -0.30217961953E+03  0.30217961954E+03  0.25500000000E-02 0. -1.
    -200001    2    1    2    0    0 -0.25148310390E+02  0.56083957651E+03  0.54786115929E+03  0.99301949672E+03  0.60890262187E+03 0.  0.
   -5000001    2    3    3    0    0  0.13663051042E+03  0.45420632262E+03  0.94477847943E+02  0.48972985377E+03  0.77058328750E+02 0.  0.
     200001    1    1    2    0    0  0.25148310390E+02 -0.56083957651E+03  0.20904326990E+04  0.22496336007E+04  0.61300000000E+03 0. -1.
         13    1    4    4    0    0  0.24171520886E+02  0.11054812867E+03 -0.57558652964E+01  0.11330618837E+03  0.10566000000E+00 0.  1.
    -200003    1    4    4    0    0  0.11245898953E+03  0.34365819395E+03  0.10023371324E+03  0.37642366539E+03  0.30000000000E+02 0.  1.
    -200000    1    3    3    0    0 -0.16177882081E+03  0.10663325388E+03  0.45338331134E+03  0.50328964295E+03  0.10100000000E+03 0.  1.
<mgrwt>
<rscale>  0 0.18852598E+04</rscale>
<asrwt>0</asrwt>
<pdfrwt beam="1">  1        2 0.42006763E+00 0.18852598E+04</pdfrwt>
<pdfrwt beam="2">  1       -2 0.43168519E-01 0.18852598E+04</pdfrwt>
<totfact> 0.12203062E+01</totfact>
</mgrwt>
</event>
<event>
 8    2  0.4480234E-052  0.1508338E+04  0.7818608E-02  0.8878927E-01
          2   -1    0    0  501    0  0.00000000000E+00  0.00000000000E+00  0.42130189382E+03  0.42130189383E+03  0.25500000000E-02 0.  1.
         -2   -1    0    0    0  501 -0.00000000000E+00 -0.00000000000E+00 -0.13500324152E+04  0.13500324152E+04  0.25500000000E-02 0. -1.
    -200001    2    1    2    0    0 -0.17597932248E+03  0.29383880367E+02 -0.93592996407E+03  0.11328572410E+04  0.61283643536E+03 0.  0.
   -5000001    2    3    3    0    0 -0.51095402898E+02 -0.15627353136E+03 -0.10910861055E+03  0.27036131724E+03  0.18481990196E+03 0.  0.
     200001    1    1    2    0    0  0.17597932248E+03 -0.29383880367E+02  0.71994427176E+01  0.63847706798E+03  0.61300000000E+03 0.  1.
         13    1    4    4    0    0 -0.70947188291E+02  0.14270335037E+02 -0.22863122034E+02  0.75893869988E+02  0.10566000000E+00 0.  1.
    -200003    1    4    4    0    0  0.19851785394E+02 -0.17054386640E+03 -0.86245488518E+02  0.19446744725E+03  0.30000000000E+02 0.  1.
    -200000    1    3    3    0    0 -0.12488391958E+03  0.18565741173E+03 -0.82682135352E+03  0.86249592378E+03  0.10100000000E+03 0. -1.
<mgrwt>
<rscale>  0 0.15083384E+04</rscale>
<asrwt>0</asrwt>
<pdfrwt beam="1">  1        2 0.60185985E-01 0.15083384E+04</pdfrwt>
<pdfrwt beam="2">  1       -2 0.19286177E+00 0.15083384E+04</pdfrwt>
<totfact> 0.11693760E+01</totfact>
</mgrwt>
</event>
<event>
 8    2  0.4480234E-052  0.1408207E+04  0.7818608E-02  0.8947899E-01
          2   -1    0    0  501    0  0.00000000000E+00  0.00000000000E+00  0.31815482536E+04  0.31815482536E+04  0.25500000000E-02 0.  1.
         -2   -1    0    0    0  501 -0.00000000000E+00 -0.00000000000E+00 -0.15582404350E+03  0.15582404352E+03  0.25500000000E-02 0. -1.
    -200001    2    1    2    0    0 -0.33736843581E+03 -0.48823177884E+02  0.16676488857E+04  0.18088636282E+04  0.61215492753E+03 0.  0.
   -5000001    2    3    3    0    0 -0.44287508358E+03 -0.10405622879E+03  0.14977833359E+04  0.15781307791E+04  0.20043900911E+03 0.  0.
     200001    1    1    2    0    0  0.33736843581E+03  0.48823177884E+02  0.13580753244E+04  0.15285086689E+04  0.61300000000E+03 0. -1.
         13    1    4    4    0    0 -0.10335819642E+03 -0.71120737507E+02  0.20137619430E+03  0.23726242616E+03  0.10566000000E+00 0.  1.
    -200003    1    4    4    0    0 -0.33951688716E+03 -0.32935491278E+02  0.12964071416E+04  0.13408683530E+04  0.30000000000E+02 0.  1.
    -200000    1    3    3    0    0  0.10550664777E+03  0.55233050901E+02  0.16986554986E+03  0.23073284912E+03  0.10100000000E+03 0. -1.
<mgrwt>
<rscale>  0 0.14082070E+04</rscale>
<asrwt>0</asrwt>
<pdfrwt beam="1">  1        2 0.45450688E+00 0.14082070E+04</pdfrwt>
<pdfrwt beam="2">  1       -2 0.22260578E-01 0.14082070E+04</pdfrwt>
<totfact> 0.32282173E+01</totfact>
</mgrwt>
</event>
<event>
 8    2  0.4480234E-052  0.1861687E+04  0.7818608E-02  0.8674166E-01
          2   -1    0    0  501    0  0.00000000000E+00  0.00000000000E+00  0.33765522523E+04  0.33765522523E+04  0.25500000000E-02 0.  1.
         -2   -1    0    0    0  501 -0.00000000000E+00 -0.00000000000E+00 -0.25661364982E+03  0.25661364983E+03  0.25500000000E-02 0. -1.
    -200001    2    1    2    0    0 -0.51147648493E+03 -0.33100705612E+02  0.62791582218E+03  0.10161732791E+04  0.61288335115E+03 0.  0.
   -5000001    2    3    3    0    0 -0.30538038183E+03  0.12501245948E+03  0.14463096519E+02  0.34237759547E+03  0.90155111280E+02 0.  0.
     200001    1    1    2    0    0  0.51147648493E+03  0.33100705612E+02  0.24920227803E+04  0.26169926230E+04  0.61300000000E+03 0.  1.
         13    1    4    4    0    0 -0.94427087153E+02  0.22143315087E+02 -0.30219317910E+02  0.10158749692E+03  0.10566000000E+00 0.  1.
    -200003    1    4    4    0    0 -0.21095329467E+03  0.10286914439E+03  0.44682414429E+02  0.24079009855E+03  0.30000000000E+02 0.  1.
    -200000    1    3    3    0    0 -0.20609610311E+03 -0.15811316509E+03  0.61345272566E+03  0.67379568366E+03  0.10100000000E+03 0.  1.
<mgrwt>
<rscale>  0 0.18616868E+04</rscale>
<asrwt>0</asrwt>
<pdfrwt beam="1">  1        2 0.48236457E+00 0.18616868E+04</pdfrwt>
<pdfrwt beam="2">  1       -2 0.36659096E-01 0.18616868E+04</pdfrwt>
<totfact> 0.94644930E+00</totfact>
</mgrwt>
</event>
<event>
 8    2  0.4480234E-052  0.2286797E+04  0.7818608E-02  0.8483145E-01
         -2   -1    0    0    0  501 -0.00000000000E+00  0.00000000000E+00  0.27763339793E+03  0.27763339795E+03  0.25500000000E-02 0. -1.
          2   -1    0    0  501    0  0.00000000000E+00 -0.00000000000E+00 -0.47089437278E+04  0.47089437278E+04  0.25500000000E-02 0.  1.
    -200001    2    1    2    0    0 -0.20023745742E+02  0.93293266081E+03 -0.16772252182E+04  0.20147901040E+04  0.61280537761E+03 0.  0.
   -5000001    2    3    3    0    0  0.30358471371E+02  0.89461945711E+03 -0.10863097129E+04  0.14119730474E+04  0.11105622208E+03 0.  0.
     200001    1    1    2    0    0  0.20023745742E+02 -0.93293266081E+03 -0.27540851117E+04  0.29717870217E+04  0.61300000000E+03 0.  1.
         13    1    4    4    0    0  0.32362865982E+02  0.35360585370E+03 -0.50441563073E+03  0.61686270316E+03  0.10566000000E+00 0.  1.
    -200003    1    4    4    0    0 -0.20043946112E+01  0.54101360341E+03 -0.58189408219E+03  0.79511034426E+03  0.30000000000E+02 0.  1.
    -200000    1    3    3    0    0 -0.50382217112E+02  0.38313203705E+02 -0.59091550527E+03  0.60281705661E+03  0.10100000000E+03 0.  1.
<mgrwt>
<rscale>  0 0.22867969E+04</rscale>
<asrwt>0</asrwt>
<pdfrwt beam="1">  1        2 0.67270620E+00 0.22867969E+04</pdfrwt>
<pdfrwt beam="2">  1       -2 0.39661917E-01 0.22867969E+04</pdfrwt>
<totfact> 0.89920257E-01</totfact>
</mgrwt>
</event>
<event>
 8    2  0.4480234E-052  0.1431647E+04  0.7818608E-02  0.8931224E-01
          2   -1    0    0  501    0  0.00000000000E+00  0.00000000000E+00  0.13983484521E+04  0.13983484521E+04  0.25500000000E-02 0.  1.
         -2   -1    0    0    0  501 -0.00000000000E+00 -0.00000000000E+00 -0.36643441325E+03  0.36643441326E+03  0.25500000000E-02 0. -1.
    -200001    2    1    2    0    0  0.33353126148E+03 -0.44327285045E+02  0.70434204034E+03  0.99259090428E+03  0.61313210884E+03 0.  0.
   -5000001    2    3    3    0    0  0.10446332732E+02 -0.22855623565E+03  0.19432311497E+03  0.35333783886E+03  0.18638421776E+03 0.  0.
     200001    1    1    2    0    0 -0.33353126148E+03  0.44327285045E+02  0.32757199855E+03  0.77219196112E+03  0.61300000000E+03 0. -1.
         13    1    4    4    0    0  0.53776217523E+02 -0.59086085037E+02 -0.12434681289E+02  0.80855918020E+02  0.10566000000E+00 0.  1.
    -200003    1    4    4    0    0 -0.43329884790E+02 -0.16947015062E+03  0.20675779626E+03  0.27248192084E+03  0.30000000000E+02 0.  1.
    -200000    1    3    3    0    0  0.32308492875E+03  0.18422895061E+03  0.51001892537E+03  0.63925306543E+03  0.10100000000E+03 0.  1.
<mgrwt>
<rscale>  0 0.14316466E+04</rscale>
<asrwt>0</asrwt>
<pdfrwt beam="1">  1        2 0.19976406E+00 0.14316466E+04</pdfrwt>
<pdfrwt beam="2">  1       -2 0.52347774E-01 0.14316466E+04</pdfrwt>
<totfact> 0.55507495E+01</totfact>
</mgrwt>
</event>
<event>
 8    2  0.4480234E-052  0.1427517E+04  0.7818608E-02  0.8934138E-01
         -2   -1    0    0    0  501 -0.00000000000E+00  0.00000000000E+00  0.51069728242E+03  0.51069728243E+03  0.25500000000E-02 0. -1.
          2   -1    0    0  501    0  0.00000000000E+00 -0.00000000000E+00 -0.99755992865E+03  0.99755992865E+03  0.25500000000E-02 0.  1.
    -200001    2    1    2    0    0 -0.34913627980E+02  0.19738569648E+03  0.78521939146E+02  0.65058081292E+03  0.61392965771E+03 0.  0.
   -5000001    2    3    3    0    0 -0.70786435022E+02  0.14920257388E+02  0.31476213849E+03  0.33342008626E+03  0.82827632041E+02 0.  0.
     200001    1    1    2    0    0  0.34913627980E+02 -0.19738569648E+03 -0.56538458537E+03  0.85767639817E+03  0.61300000000E+03 0.  1.
         13    1    4    4    0    0 -0.41644303407E+02  0.15306078801E+02  0.56728104028E+02  0.72018143583E+02  0.10566000000E+00 0.  1.
    -200003    1    4    4    0    0 -0.29142131615E+02 -0.38582141309E+00  0.25803403446E+03  0.26140194268E+03  0.30000000000E+02 0.  1.
    -200000    1    3    3    0    0  0.35872807042E+02  0.18246543909E+03 -0.23624019935E+03  0.31716072666E+03  0.10100000000E+03 0.  1.
<mgrwt>
<rscale>  0 0.14275169E+04</rscale>
<asrwt>0</asrwt>
<pdfrwt beam="1">  1        2 0.14250856E+00 0.14275169E+04</pdfrwt>
<pdfrwt beam="2">  1       -2 0.72956755E-01 0.14275169E+04</pdfrwt>
<totfact> 0.46550354E+01</totfact>
</mgrwt>
</event>
<event>
 8    2  0.4480234E-052  0.1477856E+04  0.7818608E-02  0.8899313E-01
         -2   -1    0    0    0  501 -0.00000000000E+00  0.00000000000E+00  0.16640752737E+03  0.16640752739E+03  0.25500000000E-02 0. -1.
          2   -1    0    0  501    0  0.00000000000E+00 -0.00000000000E+00 -0.32811902836E+04  0.32811902836E+04  0.25500000000E-02 0.  1.
    -200001    2    1    2    0    0  0.25585743454E+03 -0.71912741662E+02 -0.22936021641E+04  0.23889472388E+04  0.61304449516E+03 0.  0.
   -5000001    2    3    3    0    0  0.15706826478E+03 -0.13233561426E+03 -0.25727637418E+03  0.34683217187E+03  0.10917082088E+03 0.  0.
     200001    1    1    2    0    0 -0.25585743454E+03  0.71912741662E+02 -0.82118059204E+03  0.10586505722E+04  0.61300000000E+03 0.  1.
         13    1    4    4    0    0  0.86866270216E+02 -0.27718757548E+02 -0.54504963721E+02  0.10623031891E+03  0.10566000000E+00 0.  1.
    -200003    1    4    4    0    0  0.70201994560E+02 -0.10461685671E+03 -0.20277141046E+03  0.24060185296E+03  0.30000000000E+02 0.  1.
    -200000    1    3    3    0    0  0.98789169759E+02  0.60422872598E+02 -0.20363257900E+04  0.20421150669E+04  0.10100000000E+03 0.  1.
<mgrwt>
<rscale>  0 0.14778562E+04</rscale>
<asrwt>0</asrwt>
<pdfrwt beam="1">  1        2 0.46874143E+00 0.14778562E+04</pdfrwt>
<pdfrwt beam="2">  1       -2 0.23772506E-01 0.14778562E+04</pdfrwt>
<totfact> 0.24974832E+01</totfact>
</mgrwt>
</event>
<event>
 8    2  0.4480234E-052  0.1348835E+04  0.7818608E-02  0.8991710E-01
          2   -1    0    0  501    0  0.00000000000E+00  0.00000000000E+00  0.76772551956E+03  0.76772551956E+03  0.25500000000E-02 0.  1.
         -2   -1    0    0    0  501 -0.00000000000E+00 -0.00000000000E+00 -0.59244997979E+03  0.59244997979E+03  0.25500000000E-02 0. -1.
    -200001    2    1    2    0    0 -0.36621726953E+02 -0.16052875160E+03 -0.14303618698E+03  0.65010368161E+03  0.61242535470E+03 0.  0.
   -5000001    2    3    3    0    0 -0.76303751946E+02 -0.16962527605E+03  0.16744093275E+03  0.32108323887E+03  0.20115412868E+03 0.  0.
     200001    1    1    2    0    0  0.36621726953E+02  0.16052875160E+03  0.31831172675E+03  0.71007181775E+03  0.61300000000E+03 0.  1.
         13    1    4    4    0    0 -0.25365120582E+02 -0.57827634259E+02  0.18307132979E+03  0.19365574503E+03  0.10566000000E+00 0.  1.
    -200003    1    4    4    0    0 -0.50938631363E+02 -0.11179764179E+03 -0.15630397040E+02  0.12742749384E+03  0.30000000000E+02 0.  1.
    -200000    1    3    3    0    0  0.39682024992E+02  0.90965244475E+01 -0.31047711973E+03  0.32902044274E+03  0.10100000000E+03 0.  1.
<mgrwt>
<rscale>  0 0.13488350E+04</rscale>
<asrwt>0</asrwt>
<pdfrwt beam="1">  1        2 0.10967507E+00 0.13488350E+04</pdfrwt>
<pdfrwt beam="2">  1       -2 0.84635711E-01 0.13488350E+04</pdfrwt>
<totfact> 0.47717438E+01</totfact>
</mgrwt>
</event>
<event>
 8    2  0.4480234E-052  0.1673124E+04  0.7818608E-02  0.8776843E-01
         -2   -1    0    0    0  501 -0.00000000000E+00  0.00000000000E+00  0.17256955148E+04  0.17256955148E+04  0.25500000000E-02 0. -1.
          2   -1    0    0  501    0  0.00000000000E+00 -0.00000000000E+00 -0.40553831280E+03  0.40553831281E+03  0.25500000000E-02 0.  1.
    -200001    2    1    2    0    0  0.54734340076E+03 -0.14442822468E+03  0.58716699419E+03  0.10206087986E+04  0.61354130277E+03 0.  0.
   -5000001    2    3    3    0    0 -0.52873234856E+02 -0.12911429183E+03  0.13819186679E+02  0.18429352632E+03  0.11961210058E+03 0.  0.
     200001    1    1    2    0    0 -0.54734340076E+03  0.14442822468E+03  0.73299020784E+03  0.11106250291E+04  0.61300000000E+03 0.  1.
         13    1    4    4    0    0  0.58744763533E+00 -0.29194867486E+01 -0.35466629472E+02  0.35591592655E+02  0.10566000000E+00 0.  1.
    -200003    1    4    4    0    0 -0.53460682491E+02 -0.12619480508E+03  0.49285816151E+02  0.14870193367E+03  0.30000000000E+02 0.  1.
    -200000    1    3    3    0    0  0.60021663562E+03 -0.15313932850E+02  0.57334780752E+03  0.83631527225E+03  0.10100000000E+03 0.  1.
<mgrwt>
<rscale>  0 0.16731236E+04</rscale>
<asrwt>0</asrwt>
<pdfrwt beam="1">  1        2 0.57934044E-01 0.16731236E+04</pdfrwt>
<pdfrwt beam="2">  1       -2 0.24652793E+00 0.16731236E+04</pdfrwt>
<totfact> 0.54950295E+00</totfact>
</mgrwt>
</event>
<event>
 8    2  0.4480234E-052  0.1845430E+04  0.7818608E-02  0.8682506E-01
          2   -1    0    0  501    0  0.00000000000E+00  0.00000000000E+00  0.39853310159E+04  0.39853310159E+04  0.25500000000E-02 0.  1.
         -2   -1    0    0    0  501 -0.00000000000E+00 -0.00000000000E+00 -0.21363429909E+03  0.21363429910E+03  0.25500000000E-02 0. -1.
    -200001    2    1    2    0    0 -0.13424316886E+03  0.76380727538E+02  0.34142347131E+04  0.34727399175E+04  0.61568548337E+03 0.  0.
   -5000001    2    3    3    0    0 -0.40008184138E+01  0.16626854461E+03  0.28760621497E+03  0.34048040480E+03  0.74487151162E+02 0.  0.
     200001    1    1    2    0    0  0.13424316886E+03 -0.76380727538E+02  0.35746200375E+03  0.72622539755E+03  0.61300000000E+03 0. -1.
         13    1    4    4    0    0 -0.14977564557E+02  0.18533993674E+02  0.81363433218E+02  0.84781223102E+02  0.10566000000E+00 0.  1.
    -200003    1    4    4    0    0  0.10976746143E+02  0.14773455093E+03  0.20624278176E+03  0.25569918170E+03  0.30000000000E+02 0.  1.
    -200000    1    3    3    0    0 -0.13024235045E+03 -0.89887817070E+02  0.31266284981E+04  0.31322595127E+04  0.10100000000E+03 0. -1.
<mgrwt>
<rscale>  0 0.18454305E+04</rscale>
<asrwt>0</asrwt>
<pdfrwt beam="1">  1        2 0.56933299E+00 0.18454305E+04</pdfrwt>
<pdfrwt beam="2">  1       -2 0.30519186E-01 0.18454305E+04</pdfrwt>
<totfact> 0.55108533E+00</totfact>
</mgrwt>
</event>
<event>
 8    2  0.4480234E-052  0.2213811E+04  0.7818608E-02  0.8512702E-01
          2   -1    0    0  501    0  0.00000000000E+00  0.00000000000E+00  0.11378872066E+04  0.11378872066E+04  0.25500000000E-02 0.  1.
         -2   -1    0    0    0  501 -0.00000000000E+00 -0.00000000000E+00 -0.10767671198E+04  0.10767671198E+04  0.25500000000E-02 0. -1.
    -200001    2    1    2    0    0  0.25145011082E+03  0.49304289877E+03 -0.70727405642E+03  0.10865953662E+04  0.61166530118E+03 0.  0.
   -5000001    2    3    3    0    0 -0.12984712199E+03  0.12098885380E+03 -0.54075807998E+01  0.19967409475E+03  0.91334135744E+02 0.  0.
     200001    1    1    2    0    0 -0.25145011082E+03 -0.49304289877E+03  0.76839414328E+03  0.11280589602E+04  0.61300000000E+03 0.  1.
         13    1    4    4    0    0 -0.55394742998E+02  0.53012902140E+02 -0.43078009920E+02  0.87946980891E+02  0.10566000000E+00 0.  1.
    -200003    1    4    4    0    0 -0.74452378988E+02  0.67975951663E+02  0.37670429120E+02  0.11172711386E+03  0.30000000000E+02 0. -1.
    -200000    1    3    3    0    0  0.38129723280E+03  0.37205404497E+03 -0.70186647562E+03  0.88692127144E+03  0.10100000000E+03 0. -1.
<mgrwt>
<rscale>  0 0.22138108E+04</rscale>
<asrwt>0</asrwt>
<pdfrwt beam="1">  1        2 0.16255532E+00 0.22138108E+04</pdfrwt>
<pdfrwt beam="2">  1       -2 0.15382387E+00 0.22138108E+04</pdfrwt>
<totfact> 0.59655415E+00</totfact>
</mgrwt>
</event>
<event>
 8    2  0.4480234E-052  0.1287514E+04  0.7818608E-02  0.9039526E-01
          2   -1    0    0  501    0  0.00000000000E+00  0.00000000000E+00  0.62586011216E+03  0.62586011217E+03  0.25500000000E-02 0.  1.
         -2   -1    0    0    0  501 -0.00000000000E+00 -0.00000000000E+00 -0.66216541976E+03  0.66216541976E+03  0.25500000000E-02 0. -1.
    -200001    2    1    2    0    0 -0.49796862679E+02 -0.11182755932E+03 -0.16678851053E+03  0.64944899243E+03  0.61561388546E+03 0.  0.
   -5000001    2    3    3    0    0  0.10635341010E+03 -0.10988744708E+03  0.18821094541E+03  0.24868436644E+03  0.55084074597E+02 0.  0.
     200001    1    1    2    0    0  0.49796862679E+02  0.11182755932E+03  0.13048320293E+03  0.63857653950E+03  0.61300000000E+03 0.  1.
         13    1    4    4    0    0  0.62357381943E+02 -0.68646234815E+02  0.87337072312E+02  0.12739122419E+03  0.10566000000E+00 0.  1.
    -200003    1    4    4    0    0  0.43996028159E+02 -0.41241212260E+02  0.10087387310E+03  0.12129314225E+03  0.30000000000E+02 0.  1.
    -200000    1    3    3    0    0 -0.15615027278E+03 -0.19401122421E+01 -0.35499945594E+03  0.40076462599E+03  0.10100000000E+03 0. -1.
<mgrwt>
<rscale>  0 0.12875138E+04</rscale>
<asrwt>0</asrwt>
<pdfrwt beam="1">  1        2 0.89408587E-01 0.12875138E+04</pdfrwt>
<pdfrwt beam="2">  1       -2 0.94595060E-01 0.12875138E+04</pdfrwt>
<totfact> 0.47719763E+01</totfact>
</mgrwt>
</event>
<event>
 8    2  0.4480234E-052  0.1828083E+04  0.7818608E-02  0.8691506E-01
          2   -1    0    0  501    0  0.00000000000E+00  0.00000000000E+00  0.19496484947E+04  0.19496484947E+04  0.25500000000E-02 0.  1.
         -2   -1    0    0    0  501 -0.00000000000E+00 -0.00000000000E+00 -0.42852424903E+03  0.42852424904E+03  0.25500000000E-02 0. -1.
    -200001    2    1    2    0    0  0.32406678979E+02  0.39504060398E+03  0.45062442281E+02  0.73146854472E+03  0.61311364083E+03 0.  0.
   -5000001    2    3    3    0    0  0.24420548138E+03  0.12861204784E+03 -0.15062836774E+03  0.32608132076E+03  0.86387190013E+02 0.  0.
     200001    1    1    2    0    0 -0.32406678979E+02 -0.39504060398E+03  0.14760618034E+04  0.16467041990E+04  0.61300000000E+03 0.  1.
         13    1    4    4    0    0  0.85453176169E+02  0.54880631766E+01 -0.53039229701E+02  0.10072504756E+03  0.10566000000E+00 0.  1.
    -200003    1    4    4    0    0  0.15875230521E+03  0.12312398467E+03 -0.97589138036E+02  0.22535627320E+03  0.30000000000E+02 0.  1.
    -200000    1    3    3    0    0 -0.21179880240E+03  0.26642855613E+03  0.19569081002E+03  0.40538722396E+03  0.10100000000E+03 0.  1.
<mgrwt>
<rscale>  0 0.18280828E+04</rscale>
<asrwt>0</asrwt>
<pdfrwt beam="1">  1        2 0.27852122E+00 0.18280828E+04</pdfrwt>
<pdfrwt beam="2">  1       -2 0.61217749E-01 0.18280828E+04</pdfrwt>
<totfact> 0.19969690E+01</totfact>
</mgrwt>
</event>
<event>
 8    2  0.4480234E-052  0.1817367E+04  0.7818608E-02  0.8697118E-01
         -2   -1    0    0    0  501 -0.00000000000E+00  0.00000000000E+00  0.34234165963E+03  0.34234165964E+03  0.25500000000E-02 0. -1.
          2   -1    0    0  501    0  0.00000000000E+00 -0.00000000000E+00 -0.24119356925E+04  0.24119356925E+04  0.25500000000E-02 0.  1.
    -200001    2    1    2    0    0  0.60999832782E+03  0.82953231957E+02 -0.62923383583E+03  0.10721995609E+04  0.61212537897E+03 0.  0.
   -5000001    2    3    3    0    0  0.81215593216E+02 -0.15402188755E+03 -0.93384877454E+02  0.27652155197E+03  0.19345469481E+03 0.  0.
     200001    1    1    2    0    0 -0.60999832782E+03 -0.82953231957E+02 -0.14403601970E+04  0.16820777913E+04  0.61300000000E+03 0. -1.
         13    1    4    4    0    0  0.62699330040E+02 -0.15453449169E+03 -0.14022962631E+03  0.21789096899E+03  0.10566000000E+00 0.  1.
    -200003    1    4    4    0    0  0.18516263175E+02  0.51260413944E+00  0.46844748859E+02  0.58630582981E+02  0.30000000000E+02 0.  1.
    -200000    1    3    3    0    0  0.52878273460E+03  0.23697511951E+03 -0.53584895838E+03  0.79567800891E+03  0.10100000000E+03 0.  1.
<mgrwt>
<rscale>  0 0.18173674E+04</rscale>
<asrwt>0</asrwt>
<pdfrwt beam="1">  1        2 0.34456223E+00 0.18173674E+04</pdfrwt>
<pdfrwt beam="2">  1       -2 0.48905952E-01 0.18173674E+04</pdfrwt>
<totfact> 0.18362528E+01</totfact>
</mgrwt>
</event>
<event>
 8    2  0.4480234E-052  0.1458310E+04  0.7818608E-02  0.8912659E-01
          2   -1    0    0  501    0  0.00000000000E+00  0.00000000000E+00  0.12492428019E+04  0.12492428020E+04  0.25500000000E-02 0.  1.
         -2   -1    0    0    0  501 -0.00000000000E+00 -0.00000000000E+00 -0.42559156329E+03  0.42559156330E+03  0.25500000000E-02 0. -1.
    -200001    2    1    2    0    0 -0.13147093104E+03 -0.34616593127E+03  0.25280990787E+03  0.75900453246E+03  0.61242107500E+03 0.  0.
   -5000001    2    3    3    0    0 -0.35318680744E+03 -0.22711449426E+03  0.23818883937E+03  0.48744247667E+03  0.67411648945E+02 0.  0.
     200001    1    1    2    0    0  0.13147093104E+03  0.34616593127E+03  0.57084133079E+03  0.91582983279E+03  0.61300000000E+03 0.  1.
         13    1    4    4    0    0 -0.15261325980E+03 -0.93686563565E+02  0.70783593942E+02  0.19255728393E+03  0.10566000000E+00 0.  1.
    -200003    1    4    4    0    0 -0.20057354763E+03 -0.13342793069E+03  0.16740524543E+03  0.29488519274E+03  0.30000000000E+02 0. -1.
    -200000    1    3    3    0    0  0.22171587640E+03 -0.11905143701E+03  0.14621068497E+02  0.27156205579E+03  0.10100000000E+03 0. -1.
<mgrwt>
<rscale>  0 0.14583103E+04</rscale>
<asrwt>0</asrwt>
<pdfrwt beam="1">  1        2 0.17846326E+00 0.14583103E+04</pdfrwt>
<pdfrwt beam="2">  1       -2 0.60798794E-01 0.14583103E+04</pdfrwt>
<totfact> 0.48983567E+01</totfact>
</mgrwt>
</event>
<event>
 8    2  0.4480234E-052  0.2062924E+04  0.7818608E-02  0.8577754E-01
         -2   -1    0    0    0  501 -0.00000000000E+00  0.00000000000E+00  0.80662720631E+03  0.80662720631E+03  0.25500000000E-02 0. -1.
          2   -1    0    0  501    0  0.00000000000E+00 -0.00000000000E+00 -0.13189653689E+04  0.13189653689E+04  0.25500000000E-02 0.  1.
    -200001    2    1    2    0    0 -0.18740514438E+03  0.34540768399E+03 -0.10100780909E+04  0.12435828289E+04  0.60976499273E+03 0.  0.
   -5000001    2    3    3    0    0 -0.58803657171E+02  0.15825991163E+02  0.58923244523E+02  0.11303991072E+03  0.74818049805E+02 0.  0.
     200001    1    1    2    0    0  0.18740514438E+03 -0.34540768399E+03  0.49773992832E+03  0.88200974629E+03  0.61300000000E+03 0. -1.
         13    1    4    4    0    0 -0.42812326413E+02  0.36171996846E+02  0.27273684347E+02  0.62331161313E+02  0.10566000000E+00 0.  1.
    -200003    1    4    4    0    0 -0.15991330758E+02 -0.20346005683E+02  0.31649560177E+02  0.50708749404E+02  0.30000000000E+02 0.  1.
    -200000    1    3    3    0    0 -0.12860148721E+03  0.32958169283E+03 -0.10690013354E+04  0.11305429182E+04  0.10100000000E+03 0.  1.
<mgrwt>
<rscale>  0 0.20629235E+04</rscale>
<asrwt>0</asrwt>
<pdfrwt beam="1">  1        2 0.18842362E+00 0.20629235E+04</pdfrwt>
<pdfrwt beam="2">  1       -2 0.11523246E+00 0.20629235E+04</pdfrwt>
<totfact> 0.99825633E+00</totfact>
</mgrwt>
</event>
<event>
 8    2  0.4480234E-052  0.1570395E+04  0.7818608E-02  0.8838945E-01
         -2   -1    0    0    0  501 -0.00000000000E+00  0.00000000000E+00  0.55449941481E+03  0.55449941482E+03  0.25500000000E-02 0. -1.
          2   -1    0    0  501    0  0.00000000000E+00 -0.00000000000E+00 -0.11118769955E+04  0.11118769956E+04  0.25500000000E-02 0.  1.
    -200001    2    1    2    0    0 -0.23270253997E+03  0.42569830776E+03 -0.35543255856E+03  0.85896058608E+03  0.61327927033E+03 0.  0.
   -5000001    2    3    3    0    0 -0.48151795291E+02  0.52931400109E+03 -0.30307769336E+03  0.61867487869E+03  0.91709378840E+02 0.  0.
     200001    1    1    2    0    0  0.23270253997E+03 -0.42569830776E+03 -0.20194502218E+03  0.80741582429E+03  0.61300000000E+03 0.  1.
         13    1    4    4    0    0  0.21269077075E+01  0.26513046718E+02 -0.40427084023E+02  0.48392413345E+02  0.10566000000E+00 0.  1.
    -200003    1    4    4    0    0 -0.50278702998E+02  0.50280095437E+03 -0.26265060933E+03  0.57028246534E+03  0.30000000000E+02 0.  1.
    -200000    1    3    3    0    0 -0.18455074468E+03 -0.10361569333E+03 -0.52354865199E+02  0.24028570739E+03  0.10100000000E+03 0. -1.
<mgrwt>
<rscale>  0 0.15703950E+04</rscale>
<asrwt>0</asrwt>
<pdfrwt beam="1">  1        2 0.15883957E+00 0.15703950E+04</pdfrwt>
<pdfrwt beam="2">  1       -2 0.79214202E-01 0.15703950E+04</pdfrwt>
<totfact> 0.32729244E+01</totfact>
</mgrwt>
</event>
<event>
 8    2  0.4480234E-052  0.2096034E+04  0.7818608E-02  0.8562993E-01
          2   -1    0    0  501    0  0.00000000000E+00  0.00000000000E+00  0.22291758216E+04  0.22291758216E+04  0.25500000000E-02 0.  1.
         -2   -1    0    0    0  501 -0.00000000000E+00 -0.00000000000E+00 -0.49271098290E+03  0.49271098291E+03  0.25500000000E-02 0. -1.
    -200001    2    1    2    0    0 -0.11101238179E+03  0.47138345435E+03 -0.38586364368E+02  0.78253075586E+03  0.61346504905E+03 0.  0.
   -5000001    2    3    3    0    0  0.20492972637E+03  0.11223555457E+03 -0.33703706802E+02  0.29362230843E+03  0.17459985021E+03 0.  0.
     200001    1    1    2    0    0  0.11101238179E+03 -0.47138345435E+03  0.17750512030E+04  0.19393560486E+04  0.61300000000E+03 0.  1.
         13    1    4    4    0    0  0.32980996801E+02  0.10145906405E+03  0.24221485924E+02  0.10940008853E+03  0.10566000000E+00 0.  1.
    -200003    1    4    4    0    0  0.17194872957E+03  0.10776490528E+02 -0.57925192726E+02  0.18422221989E+03  0.30000000000E+02 0.  1.
    -200000    1    3    3    0    0 -0.31594210816E+03  0.35914789978E+03 -0.48826575654E+01  0.48890844743E+03  0.10100000000E+03 0. -1.
<mgrwt>
<rscale>  0 0.20960338E+04</rscale>
<asrwt>0</asrwt>
<pdfrwt beam="1">  1        2 0.31845370E+00 0.20960338E+04</pdfrwt>
<pdfrwt beam="2">  1       -2 0.70387280E-01 0.20960338E+04</pdfrwt>
<totfact> 0.10382830E+01</totfact>
</mgrwt>
</event>
<event>
 8    2  0.4480234E-052  0.1804517E+04  0.7818608E-02  0.8703901E-01
          2   -1    0    0  501    0  0.00000000000E+00  0.00000000000E+00  0.18967238913E+04  0.18967238913E+04  0.25500000000E-02 0.  1.
         -2   -1    0    0    0  501 -0.00000000000E+00 -0.00000000000E+00 -0.42919826016E+03  0.42919826017E+03  0.25500000000E-02 0. -1.
    -200001    2    1    2    0    0  0.25058252815E+03  0.60861606061E+03  0.64200801317E+03  0.11050808636E+04  0.61304511531E+03 0.  0.
   -5000001    2    3    3    0    0 -0.11537965857E+03  0.43412137605E+03  0.20274447638E+03  0.49883819615E+03  0.77203552263E+02 0.  0.
     200001    1    1    2    0    0 -0.25058252815E+03 -0.60861606061E+03  0.82551761795E+03  0.12208412879E+04  0.61300000000E+03 0.  1.
         13    1    4    4    0    0 -0.98252466001E+02  0.31956261420E+03  0.16845899924E+03  0.37436914544E+03  0.10566000000E+00 0.  1.
    -200003    1    4    4    0    0 -0.17127192566E+02  0.11455876185E+03  0.34285477138E+02  0.12446905071E+03  0.30000000000E+02 0. -1.
    -200000    1    3    3    0    0  0.36596218672E+03  0.17449468456E+03  0.43926353680E+03  0.60624266743E+03  0.10100000000E+03 0.  1.
<mgrwt>
<rscale>  0 0.18045172E+04</rscale>
<asrwt>0</asrwt>
<pdfrwt beam="1">  1        2 0.27096057E+00 0.18045172E+04</pdfrwt>
<pdfrwt beam="2">  1       -2 0.61314035E-01 0.18045172E+04</pdfrwt>
<totfact> 0.21232820E+01</totfact>
</mgrwt>
</event>
<event>
 8    2  0.4480234E-052  0.1730512E+04  0.7818608E-02  0.8744151E-01
          2   -1    0    0  501    0  0.00000000000E+00  0.00000000000E+00  0.21905786371E+04  0.21905786371E+04  0.25500000000E-02 0.  1.
         -2   -1    0    0    0  501 -0.00000000000E+00 -0.00000000000E+00 -0.34176709687E+03  0.34176709688E+03  0.25500000000E-02 0. -1.
    -200001    2    1    2    0    0 -0.49473991907E+03  0.57505694502E+02  0.40694587061E+03  0.88832015582E+03  0.61272609313E+03 0.  0.
   -5000001    2    3    3    0    0 -0.27541951831E+03  0.22058581748E+03  0.19560133091E+02  0.40358798819E+03  0.19490164561E+03 0.  0.
     200001    1    1    2    0    0  0.49473991907E+03 -0.57505694502E+02  0.14418656696E+04  0.16440255781E+04  0.61300000000E+03 0.  1.
         13    1    4    4    0    0 -0.10729210366E+03  0.23197690148E+02 -0.66989491012E+02  0.12859755598E+03  0.10566000000E+00 0.  1.
    -200003    1    4    4    0    0 -0.16812741465E+03  0.19738812733E+03  0.86549624103E+02  0.27499043220E+03  0.30000000000E+02 0.  1.
    -200000    1    3    3    0    0 -0.21932040077E+03 -0.16308012298E+03  0.38738573752E+03  0.48473216764E+03  0.10100000000E+03 0. -1.
<mgrwt>
<rscale>  0 0.17305117E+04</rscale>
<asrwt>0</asrwt>
<pdfrwt beam="1">  1        2 0.31293981E+00 0.17305117E+04</pdfrwt>
<pdfrwt beam="2">  1       -2 0.48823871E-01 0.17305117E+04</pdfrwt>
<totfact> 0.24180557E+01</totfact>
</mgrwt>
</event>
<event>
 8    2  0.4480234E-052  0.1373918E+04  0.7818608E-02  0.8972918E-01
         -2   -1    0    0    0  501 -0.00000000000E+00  0.00000000000E+00  0.84292164756E+03  0.84292164757E+03  0.25500000000E-02 0.  1.
          2   -1    0    0  501    0  0.00000000000E+00 -0.00000000000E+00 -0.55985339268E+03  0.55985339269E+03  0.25500000000E-02 0. -1.
    -200001    2    1    2    0    0  0.74055154582E+02 -0.30212249686E+03  0.15754681367E+03  0.70399982516E+03  0.61158203562E+03 0.  0.
   -5000001    2    3    3    0    0  0.30708357830E+03 -0.28103740705E+03  0.37785599351E+02  0.42241400213E+03  0.61020401917E+02 0.  0.
     200001    1    1    2    0    0 -0.74055154582E+02  0.30212249686E+03  0.12552144121E+03  0.69877521510E+03  0.61300000000E+03 0.  1.
         13    1    4    4    0    0  0.21393478658E+03 -0.21001885003E+03  0.28413570185E+02  0.30113676695E+03  0.10566000000E+00 0.  1.
    -200003    1    4    4    0    0  0.93148791722E+02 -0.71018557023E+02  0.93720291665E+01  0.12127723517E+03  0.30000000000E+02 0. -1.
    -200000    1    3    3    0    0 -0.23302842372E+03 -0.21085089810E+02  0.11976121432E+03  0.28158582303E+03  0.10100000000E+03 0.  1.
<mgrwt>
<rscale>  0 0.13739178E+04</rscale>
<asrwt>0</asrwt>
<pdfrwt beam="1">  1        2 0.79979058E-01 0.13739178E+04</pdfrwt>
<pdfrwt beam="2">  1       -2 0.12041738E+00 0.13739178E+04</pdfrwt>
<totfact> 0.30270287E+01</totfact>
</mgrwt>
</event>
<event>
 8    2  0.4480234E-052  0.2328756E+04  0.7818608E-02  0.8466668E-01
         -2   -1    0    0    0  501 -0.00000000000E+00  0.00000000000E+00  0.90279458432E+03  0.90279458432E+03  0.25500000000E-02 0. -1.
          2   -1    0    0  501    0  0.00000000000E+00 -0.00000000000E+00 -0.15017552929E+04  0.15017552929E+04  0.25500000000E-02 0.  1.
    -200001    2    1    2    0    0  0.13216567970E+03 -0.19627315759E+03  0.69268058596E+03  0.95537868201E+03  0.61396344564E+03 0.  0.
   -5000001    2    3    3    0    0  0.20233312930E+03  0.61923440343E-01  0.18117416857E+03  0.39385330408E+03  0.28523261863E+03 0.  0.
     200001    1    1    2    0    0 -0.13216567970E+03  0.19627315759E+03 -0.12916412945E+04  0.14491711952E+04  0.61300000000E+03 0.  1.
         13    1    4    4    0    0  0.47069953592E+02 -0.85922613668E+01 -0.77187530522E+02  0.90814830940E+02  0.10566000000E+00 0.  1.
    -200003    1    4    4    0    0  0.15526317571E+03  0.86541848071E+01  0.25836169909E+03  0.30303847314E+03  0.30000000000E+02 0.  1.
    -200000    1    3    3    0    0 -0.70167449595E+02 -0.19633508103E+03  0.51150641739E+03  0.56152537792E+03  0.10100000000E+03 0. -1.
<mgrwt>
<rscale>  0 0.23287564E+04</rscale>
<asrwt>0</asrwt>
<pdfrwt beam="1">  1        2 0.21453647E+00 0.23287564E+04</pdfrwt>
<pdfrwt beam="2">  1       -2 0.12897066E+00 0.23287564E+04</pdfrwt>
<totfact> 0.58791245E+00</totfact>
</mgrwt>
</event>
<event>
 8    2  0.4480234E-052  0.1425083E+04  0.7818608E-02  0.8935859E-01
         -2   -1    0    0    0  501 -0.00000000000E+00  0.00000000000E+00  0.87616470902E+02  0.87616470939E+02  0.25500000000E-02 0. -1.
          2   -1    0    0  501    0  0.00000000000E+00 -0.00000000000E+00 -0.57947508000E+04  0.57947508000E+04  0.25500000000E-02 0.  1.
    -200001    2    1    2    0    0  0.18753002186E+03  0.66535749687E+02 -0.41086464599E+04  0.41588455904E+04  0.61272048915E+03 0.  0.
   -5000001    2    3    3    0    0  0.52188253494E+02 -0.24895216465E+03 -0.12895267217E+04  0.13171054340E+04  0.84774785774E+02 0.  0.
     200001    1    1    2    0    0 -0.18753002186E+03 -0.66535749687E+02 -0.15984878692E+04  0.17235216805E+04  0.61300000000E+03 0. -1.
         13    1    4    4    0    0  0.54848707334E+02 -0.21764592400E+03 -0.10597224581E+04  0.10832311980E+04  0.10566000000E+00 0.  1.
    -200003    1    4    4    0    0 -0.26604538399E+01 -0.31306240650E+02 -0.22980426356E+03  0.23387423601E+03  0.30000000000E+02 0. -1.
    -200000    1    3    3    0    0  0.13534176837E+03  0.31548791434E+03 -0.28191197382E+04  0.28417401564E+04  0.10100000000E+03 0.  1.
<mgrwt>
<rscale>  0 0.14250833E+04</rscale>
<asrwt>0</asrwt>
<pdfrwt beam="1">  1        2 0.82782130E+00 0.14250833E+04</pdfrwt>
<pdfrwt beam="2">  1       -2 0.12516642E-01 0.14250833E+04</pdfrwt>
<totfact> 0.48364254E-01</totfact>
</mgrwt>
</event>
<event>
 8    2  0.4480234E-052  0.1284577E+04  0.7818608E-02  0.9041886E-01
          2   -1    0    0  501    0  0.00000000000E+00  0.00000000000E+00  0.20327046757E+04  0.20327046757E+04  0.25500000000E-02 0. -1.
         -2   -1    0    0    0  501 -0.00000000000E+00 -0.00000000000E+00 -0.20294870173E+03  0.20294870174E+03  0.25500000000E-02 0.  1.
    -200001    2    1    2    0    0 -0.11687594773E+03  0.10750941039E+03  0.72763293625E+03  0.96456626369E+03  0.61296013463E+03 0.  0.
   -5000001    2    3    3    0    0 -0.16965539771E+03  0.31148753642E+03  0.27306394505E+03  0.45346283581E+03  0.72506455271E+02 0.  0.
     200001    1    1    2    0    0  0.11687594773E+03 -0.10750941039E+03  0.11021230378E+04  0.12710871138E+04  0.61300000000E+03 0.  1.
         13    1    4    4    0    0 -0.28548782361E+02  0.11162709961E+03  0.78153118903E+02  0.13922486667E+03  0.10566000000E+00 0.  1.
    -200003    1    4    4    0    0 -0.14110661535E+03  0.19986043681E+03  0.19491082615E+03  0.31423796914E+03  0.30000000000E+02 0.  1.
    -200000    1    3    3    0    0  0.52779449979E+02 -0.20397812602E+03  0.45456899119E+03  0.51110342788E+03  0.10100000000E+03 0. -1.
<mgrwt>
<rscale>  0 0.12845774E+04</rscale>
<asrwt>0</asrwt>
<pdfrwt beam="1">  1        2 0.29038639E+00 0.12845774E+04</pdfrwt>
<pdfrwt beam="2">  1       -2 0.28992670E-01 0.12845774E+04</pdfrwt>
<totfact> 0.82815180E+01</totfact>
</mgrwt>
</event>
<event>
 8    2  0.4480234E-052  0.1554729E+04  0.7818608E-02  0.8848853E-01
          2   -1    0    0  501    0  0.00000000000E+00  0.00000000000E+00  0.29962872499E+04  0.29962872499E+04  0.25500000000E-02 0.  1.
         -2   -1    0    0    0  501 -0.00000000000E+00 -0.00000000000E+00 -0.20168138064E+03  0.20168138066E+03  0.25500000000E-02 0. -1.
    -200001    2    1    2    0    0  0.47763986388E+03 -0.17788755313E+02  0.14186383667E+04  0.16176168193E+04  0.61293807119E+03 0.  0.
   -5000001    2    3    3    0    0  0.62844376878E+02  0.12441196642E+03  0.56883790841E+03  0.65603574613E+03  0.29559868245E+03 0.  0.
     200001    1    1    2    0    0 -0.47763986388E+03  0.17788755313E+02  0.13759675026E+04  0.15803518113E+04  0.61300000000E+03 0.  1.
         13    1    4    4    0    0 -0.10971859904E+03  0.60788976805E+02  0.33045265030E+03  0.35345782766E+03  0.10566000000E+00 0.  1.
    -200003    1    4    4    0    0  0.17256297592E+03  0.63622989616E+02  0.23838525811E+03  0.30257791848E+03  0.30000000000E+02 0.  1.
    -200000    1    3    3    0    0  0.41479548700E+03 -0.14220072173E+03  0.84980045832E+03  0.96158107316E+03  0.10100000000E+03 0. -1.
<mgrwt>
<rscale>  0 0.15547287E+04</rscale>
<asrwt>0</asrwt>
<pdfrwt beam="1">  1        2 0.42804102E+00 0.15547287E+04</pdfrwt>
<pdfrwt beam="2">  1       -2 0.28811627E-01 0.15547287E+04</pdfrwt>
<totfact> 0.25363381E+01</totfact>
</mgrwt>
</event>
<event>
 8    2  0.4480234E-052  0.1517057E+04  0.7818608E-02  0.8873189E-01
          2   -1    0    0  501    0  0.00000000000E+00  0.00000000000E+00  0.30289505876E+03  0.30289505877E+03  0.25500000000E-02 0.  1.
         -2   -1    0    0    0  501 -0.00000000000E+00 -0.00000000000E+00 -0.18995531959E+04  0.18995531959E+04  0.25500000000E-02 0. -1.
    -200001    2    1    2    0    0 -0.33515738141E+03  0.64332070090E+02 -0.12180128842E+04  0.14051965296E+04  0.61200720190E+03 0.  0.
   -5000001    2    3    3    0    0  0.15047858716E+02  0.23781269048E+03 -0.73504917125E+03  0.77575695038E+03  0.68704061779E+02 0.  0.
     200001    1    1    2    0    0  0.33515738141E+03 -0.64332070090E+02 -0.37864525296E+03  0.79725172508E+03  0.61300000000E+03 0. -1.
         13    1    4    4    0    0  0.26662520787E+02  0.57391735635E+02 -0.15414610769E+03  0.16663053446E+03  0.10566000000E+00 0.  1.
    -200003    1    4    4    0    0 -0.11614662071E+02  0.18042095484E+03 -0.58090306356E+03  0.60912641592E+03  0.30000000000E+02 0.  1.
    -200000    1    3    3    0    0 -0.35020524012E+03 -0.17348062039E+03 -0.48296371291E+03  0.62943957918E+03  0.10100000000E+03 0.  1.
<mgrwt>
<rscale>  0 0.15170567E+04</rscale>
<asrwt>0</asrwt>
<pdfrwt beam="1">  1        2 0.43270724E-01 0.15170567E+04</pdfrwt>
<pdfrwt beam="2">  1       -2 0.27136474E+00 0.15170567E+04</pdfrwt>
<totfact> 0.54340321E+00</totfact>
</mgrwt>
</event>
<event>
 8    2  0.4480234E-052  0.1330382E+04  0.7818608E-02  0.9005813E-01
         -2   -1    0    0    0  501 -0.00000000000E+00  0.00000000000E+00  0.26594677514E+03  0.26594677515E+03  0.25500000000E-02 0. -1.
          2   -1    0    0  501    0  0.00000000000E+00 -0.00000000000E+00 -0.16637892870E+04  0.16637892870E+04  0.25500000000E-02 0.  1.
    -200001    2    1    2    0    0  0.19439649095E+03 -0.46904675863E+02 -0.93584449160E+03  0.11365140157E+04  0.61308168384E+03 0.  0.
   -5000001    2    3    3    0    0  0.41635626545E+02 -0.27270675267E+03 -0.23806210388E+03  0.38058827846E+03  0.10986980498E+03 0.  0.
     200001    1    1    2    0    0 -0.19439649095E+03  0.46904675863E+02 -0.46199802028E+03  0.79322204650E+03  0.61300000000E+03 0. -1.
         13    1    4    4    0    0  0.15440087928E+02 -0.21560645174E+03 -0.13060791603E+03  0.25255291968E+03  0.10566000000E+00 0.  1.
    -200003    1    4    4    0    0  0.26195538618E+02 -0.57100300929E+02 -0.10745418785E+03  0.12803535877E+03  0.30000000000E+02 0.  1.
    -200000    1    3    3    0    0  0.15276086441E+03  0.22580207680E+03 -0.69778238772E+03  0.75592573722E+03  0.10100000000E+03 0.  1.
<mgrwt>
<rscale>  0 0.13303825E+04</rscale>
<asrwt>0</asrwt>
<pdfrwt beam="1">  1        2 0.23768418E+00 0.13303825E+04</pdfrwt>
<pdfrwt beam="2">  1       -2 0.37992397E-01 0.13303825E+04</pdfrwt>
<totfact> 0.76644518E+01</totfact>
</mgrwt>
</event>
<event>
 8    2  0.4480234E-052  0.1566065E+04  0.7818608E-02  0.8841671E-01
          2   -1    0    0  501    0  0.00000000000E+00  0.00000000000E+00  0.15880403421E+04  0.15880403421E+04  0.25500000000E-02 0.  1.
         -2   -1    0    0    0  501 -0.00000000000E+00 -0.00000000000E+00 -0.38609842437E+03  0.38609842438E+03  0.25500000000E-02 0. -1.
    -200001    2    1    2    0    0 -0.29355352579E+03  0.38160679920E+03  0.50739544806E+03  0.93012668787E+03  0.61309713185E+03 0.  0.
   -5000001    2    3    3    0    0 -0.43591902819E+03  0.11667049889E+03  0.27089846487E+03  0.53441087754E+03  0.92582953703E+02 0.  0.
     200001    1    1    2    0    0  0.29355352579E+03 -0.38160679920E+03  0.69454646963E+03  0.10440120786E+04  0.61300000000E+03 0.  1.
         13    1    4    4    0    0 -0.26929240307E+03  0.92298016010E+02  0.13067781969E+03  0.31323158498E+03  0.10566000000E+00 0.  1.
    -200003    1    4    4    0    0 -0.16662662512E+03  0.24372482880E+02  0.14022064518E+03  0.22117929255E+03  0.30000000000E+02 0.  1.
    -200000    1    3    3    0    0  0.14236550240E+03  0.26493630031E+03  0.23649698318E+03  0.39571581034E+03  0.10100000000E+03 0. -1.
<mgrwt>
<rscale>  0 0.15660650E+04</rscale>
<asrwt>0</asrwt>
<pdfrwt beam="1">  1        2 0.22686291E+00 0.15660650E+04</pdfrwt>
<pdfrwt beam="2">  1       -2 0.55156918E-01 0.15660650E+04</pdfrwt>
<totfact> 0.39076898E+01</totfact>
</mgrwt>
</event>
<event>
 8    2  0.4480234E-052  0.2023294E+04  0.7818608E-02  0.8595807E-01
         -2   -1    0    0    0  501 -0.00000000000E+00  0.00000000000E+00  0.73593184113E+03  0.73593184113E+03  0.25500000000E-02 0. -1.
          2   -1    0    0  501    0  0.00000000000E+00 -0.00000000000E+00 -0.13906577831E+04  0.13906577831E+04  0.25500000000E-02 0.  1.
    -200001    2    1    2    0    0 -0.42032636283E+03 -0.22293453246E+03 -0.10095856765E+04  0.12733203302E+04  0.61294972714E+03 0.  0.
   -5000001    2    3    3    0    0 -0.95257269506E+02  0.18077657770E+03 -0.44948873160E+03  0.50353973574E+03  0.98782727194E+02 0.  0.
     200001    1    1    2    0    0  0.42032636283E+03  0.22293453246E+03  0.35485973450E+03  0.85326929408E+03  0.61300000000E+03 0. -1.
         13    1    4    4    0    0 -0.75194442648E+02  0.14116143379E+03 -0.39920504556E+03  0.43005282717E+03  0.10566000000E+00 0.  1.
    -200003    1    4    4    0    0 -0.20062826858E+02  0.39615143909E+02 -0.50283686041E+02  0.73486908564E+02  0.30000000000E+02 0.  1.
    -200000    1    3    3    0    0 -0.32506909332E+03 -0.40371111015E+03 -0.56009694489E+03  0.76978059443E+03  0.10100000000E+03 0. -1.
<mgrwt>
<rscale>  0 0.20232937E+04</rscale>
<asrwt>0</asrwt>
<pdfrwt beam="1">  1        2 0.19866540E+00 0.20232937E+04</pdfrwt>
<pdfrwt beam="2">  1       -2 0.10513312E+00 0.20232937E+04</pdfrwt>
<totfact> 0.11424750E+01</totfact>
</mgrwt>
</event>
<event>
 8    2  0.4480234E-052  0.1303188E+04  0.7818608E-02  0.9027041E-01
         -2   -1    0    0    0  501 -0.00000000000E+00  0.00000000000E+00  0.39534262250E+03  0.39534262251E+03  0.25500000000E-02 0. -1.
          2   -1    0    0  501    0  0.00000000000E+00 -0.00000000000E+00 -0.10739409508E+04  0.10739409508E+04  0.25500000000E-02 0.  1.
    -200001    2    1    2    0    0  0.14124525443E+03  0.13221953392E+03 -0.21748583373E+03  0.67819194799E+03  0.61254551128E+03 0.  0.
   -5000001    2    3    3    0    0 -0.11196122798E+03  0.28588741946E+03 -0.17157458951E+03  0.36190697502E+03  0.85275351810E+02 0.  0.
     200001    1    1    2    0    0 -0.14124525443E+03 -0.13221953392E+03 -0.46111249461E+03  0.79109162537E+03  0.61300000000E+03 0.  1.
         13    1    4    4    0    0 -0.13482160830E+02  0.87762978954E+00 -0.17037681632E+02  0.21744715545E+02  0.10566000000E+00 0.  1.
    -200003    1    4    4    0    0 -0.98479067152E+02  0.28500978967E+03 -0.15453690787E+03  0.34016225947E+03  0.30000000000E+02 0.  1.
    -200000    1    3    3    0    0  0.25320648241E+03 -0.15366788554E+03 -0.45911244225E+02  0.31628497297E+03  0.10100000000E+03 0.  1.
<mgrwt>
<rscale>  0 0.13031878E+04</rscale>
<asrwt>0</asrwt>
<pdfrwt beam="1">  1        2 0.15342013E+00 0.13031878E+04</pdfrwt>
<pdfrwt beam="2">  1       -2 0.56477518E-01 0.13031878E+04</pdfrwt>
<totfact> 0.73046585E+01</totfact>
</mgrwt>
</event>
<event>
 8    2  0.4480234E-052  0.1324759E+04  0.7818608E-02  0.9010158E-01
          2   -1    0    0  501    0  0.00000000000E+00  0.00000000000E+00  0.38800723358E+04  0.38800723358E+04  0.25500000000E-02 0. -1.
         -2   -1    0    0    0  501 -0.00000000000E+00 -0.00000000000E+00 -0.11307690091E+03  0.11307690094E+03  0.25500000000E-02 0.  1.
    -200001    2    1    2    0    0  0.36693785502E+02  0.22153336225E+03  0.22259429979E+04  0.23195199236E+04  0.61231281324E+03 0.  0.
   -5000001    2    3    3    0    0 -0.20492903078E+03  0.24662707075E+03  0.16772997255E+04  0.17110614451E+04  0.10759219428E+03 0.  0.
     200001    1    1    2    0    0 -0.36693785502E+02 -0.22153336225E+03  0.15410524370E+04  0.16736293132E+04  0.61300000000E+03 0.  1.
         13    1    4    4    0    0 -0.43515991458E+02  0.54221912213E+02  0.18814886323E+03  0.20058330732E+03  0.10566000000E+00 0.  1.
    -200003    1    4    4    0    0 -0.16141303932E+03  0.19240515853E+03  0.14891508622E+04  0.15104781378E+04  0.30000000000E+02 0. -1.
    -200000    1    3    3    0    0  0.24162281628E+03 -0.25093708501E+02  0.54864327247E+03  0.60845847843E+03  0.10100000000E+03 0. -1.
<mgrwt>
<rscale>  0 0.13247589E+04</rscale>
<asrwt>0</asrwt>
<pdfrwt beam="1">  1        2 0.55429605E+00 0.13247589E+04</pdfrwt>
<pdfrwt beam="2">  1       -2 0.16153843E-01 0.13247589E+04</pdfrwt>
<totfact> 0.21308914E+01</totfact>
</mgrwt>
</event>
<event>
 8    2  0.4480234E-052  0.2010443E+04  0.7818608E-02  0.8601754E-01
         -2   -1    0    0    0  501 -0.00000000000E+00  0.00000000000E+00  0.36337885236E+03  0.36337885237E+03  0.25500000000E-02 0. -1.
          2   -1    0    0  501    0  0.00000000000E+00 -0.00000000000E+00 -0.27807613331E+04  0.27807613331E+04  0.25500000000E-02 0.  1.
    -200001    2    1    2    0    0 -0.32267112665E+03  0.33029575301E+03 -0.19179957760E+03  0.78995238515E+03  0.61157644854E+03 0.  0.
   -5000001    2    3    3    0    0 -0.20696042453E+02  0.25731721325E+03 -0.24346852153E+03  0.45921759940E+03  0.29148483359E+03 0.  0.
     200001    1    1    2    0    0  0.32267112665E+03 -0.33029575301E+03 -0.22255829032E+04  0.23541878003E+04  0.61300000000E+03 0.  1.
         13    1    4    4    0    0  0.53480302147E+02  0.29488569869E+03 -0.20316545177E+03  0.36206895748E+03  0.10566000000E+00 0.  1.
    -200003    1    4    4    0    0 -0.74176344600E+02 -0.37568485434E+02 -0.40303069752E+02  0.97148641923E+02  0.30000000000E+02 0.  1.
    -200000    1    3    3    0    0 -0.30197508420E+03  0.72978539757E+02  0.51668943924E+02  0.33073478575E+03  0.10100000000E+03 0. -1.
<mgrwt>
<rscale>  0 0.20104426E+04</rscale>
<asrwt>0</asrwt>
<pdfrwt beam="1">  1        2 0.39725161E+00 0.20104426E+04</pdfrwt>
<pdfrwt beam="2">  1       -2 0.51911266E-01 0.20104426E+04</pdfrwt>
<totfact> 0.10181839E+01</totfact>
</mgrwt>
</event>
<event>
 8    2  0.4480234E-052  0.1275578E+04  0.7818608E-02  0.9049159E-01
         -2   -1    0    0    0  501 -0.00000000000E+00  0.00000000000E+00  0.17596517588E+03  0.17596517590E+03  0.25500000000E-02 0. -1.
          2   -1    0    0  501    0  0.00000000000E+00 -0.00000000000E+00 -0.23116774818E+04  0.23116774818E+04  0.25500000000E-02 0.  1.
    -200001    2    1    2    0    0 -0.10965383406E+03  0.78912967897E+02 -0.84603338339E+03  0.10533163548E+04  0.61274108541E+03 0.  0.
   -5000001    2    3    3    0    0 -0.22127044120E+03 -0.19851711184E+02 -0.84070489774E+03  0.87319938846E+03  0.79609976352E+02 0.  0.
     200001    1    1    2    0    0  0.10965383406E+03 -0.78912967897E+02 -0.12896789225E+04  0.14343263028E+04  0.61300000000E+03 0.  1.
         13    1    4    4    0    0 -0.15921498240E+03  0.11648882348E+02 -0.54105711313E+03  0.56411693638E+03  0.10566000000E+00 0.  1.
    -200003    1    4    4    0    0 -0.62055458796E+02 -0.31500593532E+02 -0.29964778461E+03  0.30908245208E+03  0.30000000000E+02 0. -1.
    -200000    1    3    3    0    0  0.11161660713E+03  0.98764679081E+02 -0.53284856496E+01  0.18011696639E+03  0.10100000000E+03 0. -1.
<mgrwt>
<rscale>  0 0.12755779E+04</rscale>
<asrwt>0</asrwt>
<pdfrwt beam="1">  1        2 0.33023962E+00 0.12755779E+04</pdfrwt>
<pdfrwt beam="2">  1       -2 0.25137884E-01 0.12755779E+04</pdfrwt>
<totfact> 0.77351250E+01</totfact>
</mgrwt>
</event>
<event>
 8    2  0.4480234E-052  0.1782308E+04  0.7818608E-02  0.8715765E-01
          2   -1    0    0  501    0  0.00000000000E+00  0.00000000000E+00  0.29900676820E+04  0.29900676820E+04  0.25500000000E-02 0.  1.
         -2   -1    0    0    0  501 -0.00000000000E+00 -0.00000000000E+00 -0.26559770423E+03  0.26559770425E+03  0.25500000000E-02 0. -1.
    -200001    2    1    2    0    0 -0.13693171390E+03 -0.11199362027E+03  0.22449363245E+03  0.67556004104E+03  0.61212017838E+03 0.  0.
   -5000001    2    3    3    0    0 -0.22780704256E+03  0.26778174530E+02 -0.11167772355E+03  0.28732284938E+03  0.13217180700E+03 0.  0.
     200001    1    1    2    0    0  0.13693171390E+03  0.11199362027E+03  0.24999763453E+04  0.25801053452E+04  0.61300000000E+03 0.  1.
         13    1    4    4    0    0 -0.10123605231E+03 -0.50200361187E+02 -0.57240538264E+02  0.12667006329E+03  0.10566000000E+00 0.  1.
    -200003    1    4    4    0    0 -0.12657099026E+03  0.76978535717E+02 -0.54437185282E+02  0.16065278609E+03  0.30000000000E+02 0.  1.
    -200000    1    3    3    0    0  0.90875328663E+02 -0.13877179480E+03  0.33617135600E+03  0.38823719166E+03  0.10100000000E+03 0.  1.
<mgrwt>
<rscale>  0 0.17823076E+04</rscale>
<asrwt>0</asrwt>
<pdfrwt beam="1">  1        2 0.42715250E+00 0.17823076E+04</pdfrwt>
<pdfrwt beam="2">  1       -2 0.37942531E-01 0.17823076E+04</pdfrwt>
<totfact> 0.14880647E+01</totfact>
</mgrwt>
</event>
<event>
 8    2  0.4480234E-052  0.1504239E+04  0.7818608E-02  0.8881639E-01
          2   -1    0    0  501    0  0.00000000000E+00  0.00000000000E+00  0.90239877707E+03  0.90239877708E+03  0.25500000000E-02 0.  1.
         -2   -1    0    0    0  501 -0.00000000000E+00 -0.00000000000E+00 -0.62686702711E+03  0.62686702711E+03  0.25500000000E-02 0. -1.
    -200001    2    1    2    0    0  0.19855918826E+03  0.37063730239E+03  0.25604730461E+03  0.78566214310E+03  0.61229651292E+03 0.  0.
   -5000001    2    3    3    0    0  0.11984280237E+03  0.69228486739E+02 -0.15803124602E+03  0.25773640055E+03  0.14932949070E+03 0.  0.
     200001    1    1    2    0    0 -0.19855918826E+03 -0.37063730239E+03  0.19484445353E+02  0.74360366108E+03  0.61300000000E+03 0. -1.
         13    1    4    4    0    0  0.10692132873E+03  0.41183680268E+02 -0.17687260582E+03  0.21074201269E+03  0.10566000000E+00 0.  1.
    -200003    1    4    4    0    0  0.12921473644E+02  0.28044806471E+02  0.18841359806E+02  0.46994387861E+02  0.30000000000E+02 0. -1.
    -200000    1    3    3    0    0  0.78716385885E+02  0.30140881566E+03  0.41407855063E+03  0.52792574256E+03  0.10100000000E+03 0.  1.
<mgrwt>
<rscale>  0 0.15042394E+04</rscale>
<asrwt>0</asrwt>
<pdfrwt beam="1">  1        2 0.12891411E+00 0.15042394E+04</pdfrwt>
<pdfrwt beam="2">  1       -2 0.89552432E-01 0.15042394E+04</pdfrwt>
<totfact> 0.33529479E+01</totfact>
</mgrwt>
</event>
<event>
 8    2  0.4480234E-052  0.1259135E+04  0.7818608E-02  0.9062614E-01
         -2   -1    0    0    0  501 -0.00000000000E+00  0.00000000000E+00  0.47483982720E+03  0.47483982721E+03  0.25500000000E-02 0. -1.
          2   -1    0    0  501    0  0.00000000000E+00 -0.00000000000E+00 -0.83471357876E+03  0.83471357876E+03  0.25500000000E-02 0.  1.
    -200001    2    1    2    0    0  0.44342578820E+02  0.80451399015E+02 -0.66213271158E+02  0.62366407842E+03  0.61329763862E+03 0.  0.
   -5000001    2    3    3    0    0 -0.24928958204E+03  0.46831849239E+02 -0.14421572889E+03  0.30173939246E+03  0.76876307710E+02 0.  0.
     200001    1    1    2    0    0 -0.44342578820E+02 -0.80451399015E+02 -0.29366048040E+03  0.68588932755E+03  0.61300000000E+03 0.  1.
         13    1    4    4    0    0 -0.18550082579E+03  0.17003393490E+02 -0.11946301917E+03  0.22129413881E+03  0.10566000000E+00 0.  1.
    -200003    1    4    4    0    0 -0.63788756254E+02  0.29828455749E+02 -0.24752709716E+02  0.80445253652E+02  0.30000000000E+02 0. -1.
    -200000    1    3    3    0    0  0.29363216086E+03  0.33619549776E+02  0.78002457732E+02  0.32192468596E+03  0.10100000000E+03 0. -1.
<mgrwt>
<rscale>  0 0.12591350E+04</rscale>
<asrwt>0</asrwt>
<pdfrwt beam="1">  1        2 0.11924480E+00 0.12591350E+04</pdfrwt>
<pdfrwt beam="2">  1       -2 0.67834262E-01 0.12591350E+04</pdfrwt>
<totfact> 0.70448354E+01</totfact>
</mgrwt>
</event>
<event>
 8    2  0.4480234E-052  0.1288293E+04  0.7818608E-02  0.9038900E-01
         -2   -1    0    0    0  501 -0.00000000000E+00  0.00000000000E+00  0.15760961437E+04  0.15760961437E+04  0.25500000000E-02 0. -1.
          2   -1    0    0  501    0  0.00000000000E+00 -0.00000000000E+00 -0.26326124304E+03  0.26326124305E+03  0.25500000000E-02 0.  1.
    -200001    2    1    2    0    0 -0.76493793032E+02 -0.18637657897E+03  0.64278286774E+03  0.90912824487E+03  0.61053814050E+03 0.  0.
   -5000001    2    3    3    0    0  0.18439190602E+03  0.11146087209E+02  0.64519455911E+02  0.23706714268E+03  0.13384117333E+03 0.  0.
     200001    1    1    2    0    0  0.76493793032E+02  0.18637657897E+03  0.67005203288E+03  0.93022914184E+03  0.61300000000E+03 0.  1.
         13    1    4    4    0    0 -0.94392559601E+01 -0.94945669360E+01 -0.18706211469E+02  0.23003909797E+02  0.10566000000E+00 0.  1.
    -200003    1    4    4    0    0  0.19383116198E+03  0.20640654145E+02  0.83225667380E+02  0.21406323288E+03  0.30000000000E+02 0.  1.
    -200000    1    3    3    0    0 -0.26088569906E+03 -0.19752266618E+03  0.57826341182E+03  0.67206110219E+03  0.10100000000E+03 0. -1.
<mgrwt>
<rscale>  0 0.12882935E+04</rscale>
<asrwt>0</asrwt>
<pdfrwt beam="1">  1        2 0.37608750E-01 0.12882935E+04</pdfrwt>
<pdfrwt beam="2">  1       -2 0.22515659E+00 0.12882935E+04</pdfrwt>
<totfact> 0.12435518E+01</totfact>
</mgrwt>
</event>
<event>
 8    2  0.4480234E-052  0.1546646E+04  0.7818608E-02  0.8854013E-01
         -2   -1    0    0    0  501 -0.00000000000E+00  0.00000000000E+00  0.82318420578E+03  0.82318420578E+03  0.25500000000E-02 0. -1.
          2   -1    0    0  501    0  0.00000000000E+00 -0.00000000000E+00 -0.72648226128E+03  0.72648226129E+03  0.25500000000E-02 0.  1.
    -200001    2    1    2    0    0 -0.33889474137E+03  0.30616560539E+03  0.16674183109E+03  0.78203269412E+03  0.61252369162E+03 0.  0.
   -5000001    2    3    3    0    0 -0.15458911780E+03  0.39434236160E+03  0.56902214269E+02  0.52903181539E+03  0.31182223496E+03 0.  0.
     200001    1    1    2    0    0  0.33889474137E+03 -0.30616560539E+03 -0.70039886597E+02  0.76763377295E+03  0.61300000000E+03 0. -1.
         13    1    4    4    0    0  0.88968358840E+02  0.54847385036E+02 -0.93160755966E+01  0.10493047674E+03  0.10566000000E+00 0.  1.
    -200003    1    4    4    0    0 -0.24355747664E+03  0.33949497656E+03  0.66218289865E+02  0.42410133866E+03  0.30000000000E+02 0.  1.
    -200000    1    3    3    0    0 -0.18430562357E+03 -0.88176756205E+02  0.10983961683E+03  0.25300087873E+03  0.10100000000E+03 0.  1.
<mgrwt>
<rscale>  0 0.15466463E+04</rscale>
<asrwt>0</asrwt>
<pdfrwt beam="1">  1        2 0.10378318E+00 0.15466463E+04</pdfrwt>
<pdfrwt beam="2">  1       -2 0.11759774E+00 0.15466463E+04</pdfrwt>
<totfact> 0.23147740E+01</totfact>
</mgrwt>
</event>
<event>
 8    2  0.4480234E-052  0.2033328E+04  0.7818608E-02  0.8591195E-01
          2   -1    0    0  501    0  0.00000000000E+00  0.00000000000E+00  0.35667704067E+03  0.35667704068E+03  0.25500000000E-02 0.  1.
         -2   -1    0    0    0  501 -0.00000000000E+00 -0.00000000000E+00 -0.28978754352E+04  0.28978754352E+04  0.25500000000E-02 0. -1.
    -200001    2    1    2    0    0 -0.47782079013E+02  0.29719870760E+03 -0.65902999795E+02  0.68677785763E+03  0.61376740014E+03 0.  0.
   -5000001    2    3    3    0    0  0.15676487374E+03  0.23960345643E+02  0.18150906918E+03  0.25328923010E+03  0.77849650507E+02 0.  0.
     200001    1    1    2    0    0  0.47782079013E+02 -0.29719870760E+03 -0.24752953947E+04  0.25677746182E+04  0.61300000000E+03 0. -1.
         13    1    4    4    0    0  0.36818499137E+02  0.14932712840E+02  0.92507590384E+02  0.10067896123E+03  0.10566000000E+00 0.  1.
    -200003    1    4    4    0    0  0.11994637461E+03  0.90276328033E+01  0.89001478798E+02  0.15261026887E+03  0.30000000000E+02 0.  1.
    -200000    1    3    3    0    0 -0.20454695276E+03  0.27323836196E+03 -0.24741206898E+03  0.43348862754E+03  0.10100000000E+03 0.  1.
<mgrwt>
<rscale>  0 0.20333279E+04</rscale>
<asrwt>0</asrwt>
<pdfrwt beam="1">  1        2 0.50953864E-01 0.20333279E+04</pdfrwt>
<pdfrwt beam="2">  1       -2 0.41398219E+00 0.20333279E+04</pdfrwt>
<totfact> 0.55051969E-01</totfact>
</mgrwt>
</event>
<event>
 8    2  0.4480234E-052  0.1795612E+04  0.7818608E-02  0.8708637E-01
         -2   -1    0    0    0  501 -0.00000000000E+00  0.00000000000E+00  0.52775813607E+03  0.52775813608E+03  0.25500000000E-02 0. -1.
          2   -1    0    0  501    0  0.00000000000E+00 -0.00000000000E+00 -0.15273194038E+04  0.15273194038E+04  0.25500000000E-02 0.  1.
    -200001    2    1    2    0    0 -0.34157668897E+03 -0.31912892787E+03  0.26635590845E+02  0.77157962417E+03  0.61327624663E+03 0.  0.
   -5000001    2    3    3    0    0 -0.42597019225E+03 -0.24595998284E+03  0.20424530878E+03  0.53872308074E+03  0.80990701449E+02 0.  0.
     200001    1    1    2    0    0  0.34157668897E+03  0.31912892787E+03 -0.10261968585E+04  0.12834979157E+04  0.61300000000E+03 0.  1.
         13    1    4    4    0    0 -0.60879264777E+02 -0.67907236022E+02  0.37916794290E+02  0.98769286912E+02  0.10566000000E+00 0.  1.
    -200003    1    4    4    0    0 -0.36509092747E+03 -0.17805274682E+03  0.16632851449E+03  0.43995379383E+03  0.30000000000E+02 0.  1.
    -200000    1    3    3    0    0  0.84393503278E+02 -0.73168945027E+02 -0.17760971794E+03  0.23285654343E+03  0.10100000000E+03 0.  1.
<mgrwt>
<rscale>  0 0.17956116E+04</rscale>
<asrwt>0</asrwt>
<pdfrwt beam="1">  1        2 0.21818848E+00 0.17956116E+04</pdfrwt>
<pdfrwt beam="2">  1       -2 0.75394020E-01 0.17956116E+04</pdfrwt>
<totfact> 0.21136493E+01</totfact>
</mgrwt>
</event>
<event>
 8    2  0.4480234E-052  0.1490767E+04  0.7818608E-02  0.8890616E-01
         -2   -1    0    0    0  501 -0.00000000000E+00  0.00000000000E+00  0.73174544308E+03  0.73174544308E+03  0.25500000000E-02 0. -1.
          2   -1    0    0  501    0  0.00000000000E+00 -0.00000000000E+00 -0.75927578818E+03  0.75927578819E+03  0.25500000000E-02 0.  1.
    -200001    2    1    2    0    0 -0.39130431051E+03  0.30005733130E+02 -0.17431900735E+03  0.74850165657E+03  0.61306460192E+03 0.  0.
   -5000001    2    3    3    0    0 -0.50614446458E+03  0.12879190621E+03 -0.13193556423E+03  0.56156764354E+03  0.15868727432E+03 0.  0.
     200001    1    1    2    0    0  0.39130431051E+03 -0.30005733130E+02  0.14678866224E+03  0.74251957469E+03  0.61300000000E+03 0.  1.
         13    1    4    4    0    0 -0.48014167301E+03  0.87099647234E+02 -0.11222605447E+03  0.50071655971E+03  0.10566000000E+00 0.  1.
    -200003    1    4    4    0    0 -0.26002791574E+02  0.41692258971E+02 -0.19709509762E+02  0.60851083826E+02  0.30000000000E+02 0.  1.
    -200000    1    3    3    0    0  0.11484015407E+03 -0.98786173075E+02 -0.42383443118E+02  0.18693401303E+03  0.10100000000E+03 0. -1.
<mgrwt>
<rscale>  0 0.14907670E+04</rscale>
<asrwt>0</asrwt>
<pdfrwt beam="1">  1        2 0.10846797E+00 0.14907670E+04</pdfrwt>
<pdfrwt beam="2">  1       -2 0.10453506E+00 0.14907670E+04</pdfrwt>
<totfact> 0.29258929E+01</totfact>
</mgrwt>
</event>
<event>
 8    2  0.4480234E-052  0.1310594E+04  0.7818608E-02  0.9021206E-01
          2   -1    0    0  501    0  0.00000000000E+00  0.00000000000E+00  0.23265186141E+04  0.23265186141E+04  0.25500000000E-02 0.  1.
         -2   -1    0    0    0  501 -0.00000000000E+00 -0.00000000000E+00 -0.18457373719E+03  0.18457373720E+03  0.25500000000E-02 0. -1.
    -200001    2    1    2    0    0  0.11247195461E+03  0.20191665865E+03  0.10910741644E+04  0.12727391981E+04  0.61318998408E+03 0.  0.
   -5000001    2    3    3    0    0  0.48207696012E+02  0.34541139611E+03  0.53460789911E+03  0.68573294685E+03  0.25058143205E+03 0.  0.
     200001    1    1    2    0    0 -0.11247195461E+03 -0.20191665865E+03  0.10508707125E+04  0.12383531532E+04  0.61300000000E+03 0. -1.
         13    1    4    4    0    0  0.12197383655E+03  0.90036892090E+02  0.12489802854E+03  0.19642756283E+03  0.10566000000E+00 0.  1.
    -200003    1    4    4    0    0 -0.73766140542E+02  0.25537450402E+03  0.40970987056E+03  0.48930538402E+03  0.30000000000E+02 0.  1.
    -200000    1    3    3    0    0  0.64264258600E+02 -0.14349473746E+03  0.55646626530E+03  0.58700625127E+03  0.10100000000E+03 0. -1.
<mgrwt>
<rscale>  0 0.13105941E+04</rscale>
<asrwt>0</asrwt>
<pdfrwt beam="1">  1        2 0.33235977E+00 0.13105941E+04</pdfrwt>
<pdfrwt beam="2">  1       -2 0.26367679E-01 0.13105941E+04</pdfrwt>
<totfact> 0.69480171E+01</totfact>
</mgrwt>
</event>
<event>
 8    2  0.4480234E-052  0.1445973E+04  0.7818608E-02  0.8921197E-01
          2   -1    0    0  501    0  0.00000000000E+00  0.00000000000E+00  0.10480236620E+04  0.10480236620E+04  0.25500000000E-02 0.  1.
         -2   -1    0    0    0  501 -0.00000000000E+00 -0.00000000000E+00 -0.49875741934E+03  0.49875741934E+03  0.25500000000E-02 0. -1.
    -200001    2    1    2    0    0  0.35620114172E+03  0.13977867637E+03  0.30006262974E+03  0.78239323975E+03  0.61293088363E+03 0.  0.
   -5000001    2    3    3    0    0  0.35664166051E+03  0.25829806102E+03 -0.28223282949E+00  0.44408114262E+03  0.57417934818E+02 0.  0.
     200001    1    1    2    0    0 -0.35620114172E+03 -0.13977867637E+03  0.24920361296E+03  0.76438784164E+03  0.61300000000E+03 0. -1.
         13    1    4    4    0    0  0.20671501206E+03  0.12779399832E+03  0.25314061273E+01  0.24304078135E+03  0.10566000000E+00 0.  1.
    -200003    1    4    4    0    0  0.14992664845E+03  0.13050406270E+03 -0.28136389568E+01  0.20104036127E+03  0.30000000000E+02 0.  1.
    -200000    1    3    3    0    0 -0.44051879080E+00 -0.11851938465E+03  0.30034486256E+03  0.33831209713E+03  0.10100000000E+03 0. -1.
<mgrwt>
<rscale>  0 0.14459731E+04</rscale>
<asrwt>0</asrwt>
<pdfrwt beam="1">  1        2 0.14971766E+00 0.14459731E+04</pdfrwt>
<pdfrwt beam="2">  1       -2 0.71251061E-01 0.14459731E+04</pdfrwt>
<totfact> 0.45607085E+01</totfact>
</mgrwt>
</event>
<event>
 8    2  0.4480234E-052  0.1494792E+04  0.7818608E-02  0.8887924E-01
         -2   -1    0    0    0  501 -0.00000000000E+00  0.00000000000E+00  0.10623533292E+04  0.10623533292E+04  0.25500000000E-02 0. -1.
          2   -1    0    0  501    0  0.00000000000E+00 -0.00000000000E+00 -0.52581421059E+03  0.52581421059E+03  0.25500000000E-02 0.  1.
    -200001    2    1    2    0    0 -0.15732100754E+03  0.19670261710E+03  0.62541352565E+03  0.91950508446E+03  0.62522452231E+03 0.  0.
   -5000001    2    3    3    0    0 -0.95488698959E+01  0.37982817405E+03  0.50409529290E+03  0.63614896953E+03  0.78821471636E+02 0.  0.
     200001    1    1    2    0    0  0.15732100754E+03 -0.19670261710E+03 -0.88874407013E+02  0.66866245536E+03  0.61300000000E+03 0.  1.
         13    1    4    4    0    0 -0.52113687311E+01  0.18696464076E+03  0.19217054051E+03  0.26816499224E+03  0.10566000000E+00 0.  1.
    -200003    1    4    4    0    0 -0.43375011648E+01  0.19286353329E+03  0.31192475239E+03  0.36798397729E+03  0.30000000000E+02 0. -1.
    -200000    1    3    3    0    0 -0.14777213765E+03 -0.18312555695E+03  0.12131823275E+03  0.28335611493E+03  0.10100000000E+03 0.  1.
<mgrwt>
<rscale>  0 0.14947916E+04</rscale>
<asrwt>0</asrwt>
<pdfrwt beam="1">  1        2 0.75116316E-01 0.14947916E+04</pdfrwt>
<pdfrwt beam="2">  1       -2 0.15176476E+00 0.14947916E+04</pdfrwt>
<totfact> 0.17806792E+01</totfact>
</mgrwt>
</event>
<event>
 8    2  0.4480234E-052  0.2727107E+04  0.7818608E-02  0.8326263E-01
         -2   -1    0    0    0  501 -0.00000000000E+00  0.00000000000E+00  0.94358198206E+03  0.94358198206E+03  0.25500000000E-02 0. -1.
          2   -1    0    0  501    0  0.00000000000E+00 -0.00000000000E+00 -0.19704465648E+04  0.19704465648E+04  0.25500000000E-02 0.  1.
    -200001    2    1    2    0    0  0.43146683790E+03  0.10672898803E+04 -0.88337974868E+02  0.13072079238E+04  0.61295810418E+03 0.  0.
   -5000001    2    3    3    0    0  0.38147714081E+03  0.99308655645E+03  0.10441339733E+03  0.10719225767E+04  0.79813127844E+02 0.  0.
     200001    1    1    2    0    0 -0.43146683790E+03 -0.10672898803E+04 -0.93852660791E+03  0.16068206230E+04  0.61300000000E+03 0. -1.
         13    1    4    4    0    0  0.36431449296E+02  0.63687609622E+02 -0.76801553915E+01  0.73772339450E+02  0.10566000000E+00 0.  1.
    -200003    1    4    4    0    0  0.34504569151E+03  0.92939894683E+03  0.11209355272E+03  0.99815023726E+03  0.30000000000E+02 0.  1.
    -200000    1    3    3    0    0  0.49989697096E+02  0.74203323897E+02 -0.19275137219E+03  0.23528534713E+03  0.10100000000E+03 0.  1.
<mgrwt>
<rscale>  0 0.27271068E+04</rscale>
<asrwt>0</asrwt>
<pdfrwt beam="1">  1        2 0.28149237E+00 0.27271068E+04</pdfrwt>
<pdfrwt beam="2">  1       -2 0.13479743E+00 0.27271068E+04</pdfrwt>
<totfact> 0.29010729E+00</totfact>
</mgrwt>
</event>
<event>
 8    2  0.4480234E-052  0.1524774E+04  0.7818608E-02  0.8868144E-01
         -2   -1    0    0    0  501 -0.00000000000E+00  0.00000000000E+00  0.16857529648E+04  0.16857529649E+04  0.25500000000E-02 0. -1.
          2   -1    0    0  501    0  0.00000000000E+00 -0.00000000000E+00 -0.34479193974E+03  0.34479193975E+03  0.25500000000E-02 0.  1.
    -200001    2    1    2    0    0 -0.38544483216E+03  0.18230576765E+03  0.87459942518E+03  0.11501670008E+04  0.61331628359E+03 0.  0.
   -5000001    2    3    3    0    0 -0.13844346035E+03  0.29849378361E+03  0.76355139550E+03  0.83865135496E+03  0.10981908323E+03 0.  0.
     200001    1    1    2    0    0  0.38544483216E+03 -0.18230576765E+03  0.46636159993E+03  0.88037790377E+03  0.61300000000E+03 0. -1.
         13    1    4    4    0    0 -0.76686434913E+01 -0.22908516656E+01  0.10661069676E+01  0.80748896248E+01  0.10566000000E+00 0.  1.
    -200003    1    4    4    0    0 -0.13077481686E+03  0.30078463527E+03  0.76248528853E+03  0.83057646533E+03  0.30000000000E+02 0.  1.
    -200000    1    3    3    0    0 -0.24700137181E+03 -0.11618801595E+03  0.11104802968E+03  0.31151564587E+03  0.10100000000E+03 0.  1.
<mgrwt>
<rscale>  0 0.15247741E+04</rscale>
<asrwt>0</asrwt>
<pdfrwt beam="1">  1        2 0.49255992E-01 0.15247741E+04</pdfrwt>
<pdfrwt beam="2">  1       -2 0.24082185E+00 0.15247741E+04</pdfrwt>
<totfact> 0.72261559E+00</totfact>
</mgrwt>
</event>
<event>
 8    2  0.4480234E-052  0.1556583E+04  0.7818608E-02  0.8847674E-01
          2   -1    0    0  501    0  0.00000000000E+00  0.00000000000E+00  0.18063134376E+04  0.18063134376E+04  0.25500000000E-02 0.  1.
         -2   -1    0    0    0  501 -0.00000000000E+00 -0.00000000000E+00 -0.33534450178E+03  0.33534450179E+03  0.25500000000E-02 0. -1.
    -200001    2    1    2    0    0  0.65444509121E+02 -0.95986645783E+02  0.13761329949E+04  0.15105800713E+04  0.61205695168E+03 0.  0.
   -5000001    2    3    3    0    0 -0.85105405654E+02  0.96978563433E+02  0.72471676934E+03  0.80741227640E+03  0.33174149045E+03 0.  0.
     200001    1    1    2    0    0 -0.65444509121E+02  0.95986645783E+02  0.94835940899E+02  0.63107786812E+03  0.61300000000E+03 0. -1.
         13    1    4    4    0    0 -0.85401661202E+02 -0.11416738308E+03  0.28067365809E+03  0.31481001987E+03  0.10566000000E+00 0.  1.
    -200003    1    4    4    0    0  0.29625554718E+00  0.21114594652E+03  0.44404311125E+03  0.49260225654E+03  0.30000000000E+02 0.  1.
    -200000    1    3    3    0    0  0.15054991478E+03 -0.19296520922E+03  0.65141622557E+03  0.70316779487E+03  0.10100000000E+03 0.  1.
<mgrwt>
<rscale>  0 0.15565825E+04</rscale>
<asrwt>0</asrwt>
<pdfrwt beam="1">  1        2 0.25804478E+00 0.15565825E+04</pdfrwt>
<pdfrwt beam="2">  1       -2 0.47906357E-01 0.15565825E+04</pdfrwt>
<totfact> 0.40181698E+01</totfact>
</mgrwt>
</event>
<event>
 8    2  0.4480234E-052  0.1643632E+04  0.7818608E-02  0.8794183E-01
         -2   -1    0    0    0  501 -0.00000000000E+00  0.00000000000E+00  0.48282756298E+03  0.48282756299E+03  0.25500000000E-02 0. -1.
          2   -1    0    0  501    0  0.00000000000E+00 -0.00000000000E+00 -0.13988047184E+04  0.13988047184E+04  0.25500000000E-02 0.  1.
    -200001    2    1    2    0    0 -0.26044460352E+03  0.48127605670E+03 -0.48676401368E+03  0.95456650418E+03  0.61220909144E+03 0.  0.
   -5000001    2    3    3    0    0  0.26250559409E+02  0.52294749325E+02  0.12142875873E+03  0.15062712405E+03  0.67229118508E+02 0.  0.
     200001    1    1    2    0    0  0.26044460352E+03 -0.48127605670E+03 -0.42921314177E+03  0.92706577723E+03  0.61300000000E+03 0.  1.
         13    1    4    4    0    0 -0.30006461350E+01 -0.28278019318E+00  0.58380013084E+02  0.58457856047E+02  0.10566000000E+00 0.  1.
    -200003    1    4    4    0    0  0.29251205544E+02  0.52577529518E+02  0.63048745648E+02  0.92169268001E+02  0.30000000000E+02 0.  1.
    -200000    1    3    3    0    0 -0.28669516293E+03  0.42898130737E+03 -0.60819277241E+03  0.80393938014E+03  0.10100000000E+03 0. -1.
<mgrwt>
<rscale>  0 0.16436319E+04</rscale>
<asrwt>0</asrwt>
<pdfrwt beam="1">  1        2 0.19982924E+00 0.16436319E+04</pdfrwt>
<pdfrwt beam="2">  1       -2 0.68975366E-01 0.16436319E+04</pdfrwt>
<totfact> 0.30472597E+01</totfact>
</mgrwt>
</event>
<event>
 8    2  0.4480234E-052  0.1651238E+04  0.7818608E-02  0.8789675E-01
         -2   -1    0    0    0  501 -0.00000000000E+00  0.00000000000E+00  0.28674619629E+03  0.28674619630E+03  0.25500000000E-02 0. -1.
          2   -1    0    0  501    0  0.00000000000E+00 -0.00000000000E+00 -0.23771771381E+04  0.23771771381E+04  0.25500000000E-02 0.  1.
    -200001    2    1    2    0    0 -0.10751972642E+03  0.43347139373E+03 -0.15719820849E+04  0.17452198142E+04  0.61254108751E+03 0.  0.
   -5000001    2    3    3    0    0  0.12864024696E+03  0.33616445659E+03 -0.46437880375E+03  0.60406855277E+03  0.14034346464E+03 0.  0.
     200001    1    1    2    0    0  0.10751972642E+03 -0.43347139373E+03 -0.51844885686E+03  0.91870352015E+03  0.61300000000E+03 0.  1.
         13    1    4    4    0    0 -0.11903773271E+02  0.22903523832E+01 -0.56242894730E+02  0.57534510546E+02  0.10566000000E+00 0.  1.
    -200003    1    4    4    0    0  0.14054402023E+03  0.33387410421E+03 -0.40813590902E+03  0.54653404223E+03  0.30000000000E+02 0.  1.
    -200000    1    3    3    0    0 -0.23615997338E+03  0.97306937144E+02 -0.11076032812E+04  0.11411512615E+04  0.10100000000E+03 0.  1.
<mgrwt>
<rscale>  0 0.16512377E+04</rscale>
<asrwt>0</asrwt>
<pdfrwt beam="1">  1        2 0.33959672E+00 0.16512377E+04</pdfrwt>
<pdfrwt beam="2">  1       -2 0.40963744E-01 0.16512377E+04</pdfrwt>
<totfact> 0.27646611E+01</totfact>
</mgrwt>
</event>
<event>
 8    2  0.4480234E-052  0.1480357E+04  0.7818608E-02  0.8897621E-01
         -2   -1    0    0    0  501 -0.00000000000E+00  0.00000000000E+00  0.55750703700E+03  0.55750703701E+03  0.25500000000E-02 0. -1.
          2   -1    0    0  501    0  0.00000000000E+00 -0.00000000000E+00 -0.98270365747E+03  0.98270365748E+03  0.25500000000E-02 0.  1.
    -200001    2    1    2    0    0 -0.56388317764E+02  0.24469448191E+03 -0.55593898130E+03  0.86499399092E+03  0.61326293018E+03 0.  0.
   -5000001    2    3    3    0    0  0.23452510167E+03  0.14734069330E+03 -0.43369421795E+03  0.51966348266E+03  0.72444166894E+02 0.  0.
     200001    1    1    2    0    0  0.56388317764E+02 -0.24469448191E+03  0.13074236083E+03  0.67521670356E+03  0.61300000000E+03 0. -1.
         13    1    4    4    0    0  0.11407029514E+03  0.55799219890E+02 -0.24499303480E+03  0.27594779114E+03  0.10566000000E+00 0.  1.
    -200003    1    4    4    0    0  0.12045480654E+03  0.91541473414E+02 -0.18870118315E+03  0.24371569152E+03  0.30000000000E+02 0.  1.
    -200000    1    3    3    0    0 -0.29091341944E+03  0.97353788605E+02 -0.12224476336E+03  0.34533050826E+03  0.10100000000E+03 0. -1.
<mgrwt>
<rscale>  0 0.14803570E+04</rscale>
<asrwt>0</asrwt>
<pdfrwt beam="1">  1        2 0.14038624E+00 0.14803570E+04</pdfrwt>
<pdfrwt beam="2">  1       -2 0.79643863E-01 0.14803570E+04</pdfrwt>
<totfact> 0.38973793E+01</totfact>
</mgrwt>
</event>
<event>
 8    2  0.4480234E-052  0.1528645E+04  0.7818608E-02  0.8865624E-01
         -2   -1    0    0    0  501 -0.00000000000E+00  0.00000000000E+00  0.94126840976E+03  0.94126840977E+03  0.25500000000E-02 0. -1.
          2   -1    0    0  501    0  0.00000000000E+00 -0.00000000000E+00 -0.62064030744E+03  0.62064030745E+03  0.25500000000E-02 0.  1.
    -200001    2    1    2    0    0 -0.26621245722E+03 -0.35943469218E+03  0.67470108391E+02  0.76195850613E+03  0.61316081024E+03 0.  0.
   -5000001    2    3    3    0    0  0.15305043599E+03 -0.31349413574E+01 -0.73346287663E+02  0.18510398075E+03  0.73821013010E+02 0.  0.
     200001    1    1    2    0    0  0.26621245722E+03  0.35943469218E+03  0.25315799393E+03  0.79995021108E+03  0.61300000000E+03 0.  1.
         13    1    4    4    0    0  0.25259269158E+02  0.21193298604E+02 -0.30446621398E+02  0.44879778327E+02  0.10566000000E+00 0.  1.
    -200003    1    4    4    0    0  0.12779116683E+03 -0.24328239961E+02 -0.42899666265E+02  0.14022420242E+03  0.30000000000E+02 0.  1.
    -200000    1    3    3    0    0 -0.41926289321E+03 -0.35629975082E+03  0.14081639605E+03  0.57685452538E+03  0.10100000000E+03 0. -1.
<mgrwt>
<rscale>  0 0.15286453E+04</rscale>
<asrwt>0</asrwt>
<pdfrwt beam="1">  1        2 0.88662901E-01 0.15286453E+04</pdfrwt>
<pdfrwt beam="2">  1       -2 0.13446692E+00 0.15286453E+04</pdfrwt>
<totfact> 0.20057825E+01</totfact>
</mgrwt>
</event>
<event>
 8    2  0.4480234E-052  0.2337140E+04  0.7818608E-02  0.8463420E-01
         -2   -1    0    0    0  501 -0.00000000000E+00  0.00000000000E+00  0.74025219649E+03  0.74025219649E+03  0.25500000000E-02 0. -1.
          2   -1    0    0  501    0  0.00000000000E+00 -0.00000000000E+00 -0.18447165902E+04  0.18447165902E+04  0.25500000000E-02 0.  1.
    -200001    2    1    2    0    0  0.83676951422E+03  0.42906881305E+03 -0.91233742181E+03  0.14461250574E+04  0.61207421470E+03 0.  0.
   -5000001    2    3    3    0    0  0.50179805419E+03  0.52561851593E+03 -0.75465916136E+03  0.10504090507E+04  0.75977710856E+02 0.  0.
     200001    1    1    2    0    0 -0.83676951422E+03 -0.42906881305E+03 -0.19212697187E+03  0.11388437292E+04  0.61300000000E+03 0. -1.
         13    1    4    4    0    0  0.42482420375E+03  0.44072657030E+03 -0.63698393787E+03  0.88343877102E+03  0.10566000000E+00 0.  1.
    -200003    1    4    4    0    0  0.76973850447E+02  0.84891945625E+02 -0.11767522349E+03  0.16697027971E+03  0.30000000000E+02 0. -1.
    -200000    1    3    3    0    0  0.33497146003E+03 -0.96549702879E+02 -0.15767826045E+03  0.39571600672E+03  0.10100000000E+03 0. -1.
<mgrwt>
<rscale>  0 0.23371397E+04</rscale>
<asrwt>0</asrwt>
<pdfrwt beam="1">  1        2 0.26353094E+00 0.23371397E+04</pdfrwt>
<pdfrwt beam="2">  1       -2 0.10575031E+00 0.23371397E+04</pdfrwt>
<totfact> 0.63366425E+00</totfact>
</mgrwt>
</event>
<event>
 8    2  0.4480234E-052  0.2332797E+04  0.7818608E-02  0.8465101E-01
          2   -1    0    0  501    0  0.00000000000E+00  0.00000000000E+00  0.14983595110E+04  0.14983595110E+04  0.25500000000E-02 0.  1.
         -2   -1    0    0    0  501 -0.00000000000E+00 -0.00000000000E+00 -0.90798306976E+03  0.90798306976E+03  0.25500000000E-02 0. -1.
    -200001    2    1    2    0    0  0.71266969763E+03 -0.68917535878E+03  0.27689435317E+03  0.11993211259E+04  0.61549972145E+03 0.  0.
   -5000001    2    3    3    0    0  0.74523881617E+03 -0.40515784289E+03  0.15284728320E+03  0.87173087515E+03  0.13045557066E+03 0.  0.
     200001    1    1    2    0    0 -0.71266969763E+03  0.68917535878E+03  0.31348208812E+03  0.12070214549E+04  0.61300000000E+03 0. -1.
         13    1    4    4    0    0  0.47511273065E+03 -0.30626492014E+03  0.13936850763E+03  0.58219747527E+03  0.10566000000E+00 0.  1.
    -200003    1    4    4    0    0  0.27012608553E+03 -0.98892922756E+02  0.13478775569E+02  0.28953339988E+03  0.30000000000E+02 0.  1.
    -200000    1    3    3    0    0 -0.32569118539E+02 -0.28401751589E+03  0.12404706997E+03  0.32759025074E+03  0.10100000000E+03 0. -1.
<mgrwt>
<rscale>  0 0.23327967E+04</rscale>
<asrwt>0</asrwt>
<pdfrwt beam="1">  1        2 0.21405136E+00 0.23327967E+04</pdfrwt>
<pdfrwt beam="2">  1       -2 0.12971187E+00 0.23327967E+04</pdfrwt>
<totfact> 0.58168186E+00</totfact>
</mgrwt>
</event>
<event>
 8    2  0.4480234E-052  0.1376087E+04  0.7818608E-02  0.8971312E-01
         -2   -1    0    0    0  501 -0.00000000000E+00  0.00000000000E+00  0.24629753617E+03  0.24629753618E+03  0.25500000000E-02 0. -1.
          2   -1    0    0  501    0  0.00000000000E+00 -0.00000000000E+00 -0.19220804834E+04  0.19220804834E+04  0.25500000000E-02 0.  1.
    -200001    2    1    2    0    0 -0.26767562423E+03 -0.15516854908E+03 -0.78369772046E+03  0.10426282382E+04  0.61413679881E+03 0.  0.
   -5000001    2    3    3    0    0  0.56694030591E+02 -0.28176484275E+03 -0.25411141009E+03  0.40083001863E+03  0.11613119902E+03 0.  0.
     200001    1    1    2    0    0  0.26767562423E+03  0.15516854908E+03 -0.89208522678E+03  0.11257497814E+04  0.61300000000E+03 0.  1.
         13    1    4    4    0    0  0.74353532833E+02 -0.14986440570E+03 -0.17937648725E+03  0.24528294536E+03  0.10566000000E+00 0.  1.
    -200003    1    4    4    0    0 -0.17659502242E+02 -0.13190043704E+03 -0.74734922835E+02  0.15554707327E+03  0.30000000000E+02 0.  1.
    -200000    1    3    3    0    0 -0.32436965482E+03  0.12659629367E+03 -0.52958631038E+03  0.64179821959E+03  0.10100000000E+03 0.  1.
<mgrwt>
<rscale>  0 0.13760868E+04</rscale>
<asrwt>0</asrwt>
<pdfrwt beam="1">  1        2 0.27458292E+00 0.13760868E+04</pdfrwt>
<pdfrwt beam="2">  1       -2 0.35185363E-01 0.13760868E+04</pdfrwt>
<totfact> 0.65121057E+01</totfact>
</mgrwt>
</event>
<event>
 8    2  0.4480234E-052  0.1878150E+04  0.7818608E-02  0.8665809E-01
          2   -1    0    0  501    0  0.00000000000E+00  0.00000000000E+00  0.64783782551E+03  0.64783782551E+03  0.25500000000E-02 0. -1.
         -2   -1    0    0    0  501 -0.00000000000E+00 -0.00000000000E+00 -0.13612392831E+04  0.13612392831E+04  0.25500000000E-02 0.  1.
    -200001    2    1    2    0    0 -0.96632481056E+02  0.69211318503E+03 -0.49930150280E+03  0.10551555773E+04  0.61293784702E+03 0.  0.
   -5000001    2    3    3    0    0  0.14193047601E+03  0.42560677955E+03 -0.10257644867E+03  0.51152912722E+03  0.22328172641E+03 0.  0.
     200001    1    1    2    0    0  0.96632481056E+02 -0.69211318503E+03 -0.21409995480E+03  0.95392153133E+03  0.61300000000E+03 0. -1.
         13    1    4    4    0    0 -0.81574155825E+01  0.23958241040E+03  0.21266796593E+02  0.24066275700E+03  0.10566000000E+00 0.  1.
    -200003    1    4    4    0    0  0.15008789160E+03  0.18602436915E+03 -0.12384324526E+03  0.27086637022E+03  0.30000000000E+02 0.  1.
    -200000    1    3    3    0    0 -0.23856295707E+03  0.26650640548E+03 -0.39672505413E+03  0.54362645008E+03  0.10100000000E+03 0.  1.
<mgrwt>
<rscale>  0 0.18781505E+04</rscale>
<asrwt>0</asrwt>
<pdfrwt beam="1">  1        2 0.92548261E-01 0.18781505E+04</pdfrwt>
<pdfrwt beam="2">  1       -2 0.19446275E+00 0.18781505E+04</pdfrwt>
<totfact> 0.67351765E+00</totfact>
</mgrwt>
</event>
<event>
 8    2  0.4480234E-052  0.1754816E+04  0.7818608E-02  0.8730704E-01
          2   -1    0    0  501    0  0.00000000000E+00  0.00000000000E+00  0.10068792607E+04  0.10068792607E+04  0.25500000000E-02 0.  1.
         -2   -1    0    0    0  501 -0.00000000000E+00 -0.00000000000E+00 -0.76458523864E+03  0.76458523864E+03  0.25500000000E-02 0. -1.
    -200001    2    1    2    0    0 -0.44467954453E+02 -0.36234822913E+03  0.63261408554E+03  0.95820415348E+03  0.62022655569E+03 0.  0.
   -5000001    2    3    3    0    0 -0.45358174769E+02 -0.42814079600E+03  0.69602565209E+03  0.82200033150E+03  0.76622003336E+02 0.  0.
     200001    1    1    2    0    0  0.44467954453E+02  0.36234822913E+03 -0.39032006352E+03  0.81326034583E+03  0.61300000000E+03 0. -1.
         13    1    4    4    0    0 -0.53485547554E+02 -0.31646132124E+03  0.52708267532E+03  0.61710990061E+03  0.10566000000E+00 0.  1.
    -200003    1    4    4    0    0  0.81273727841E+01 -0.11167947476E+03  0.16894297677E+03  0.20489043089E+03  0.30000000000E+02 0. -1.
    -200000    1    3    3    0    0  0.89022031686E+00  0.65792566877E+02 -0.63411566549E+02  0.13620382198E+03  0.10100000000E+03 0. -1.
<mgrwt>
<rscale>  0 0.17548163E+04</rscale>
<asrwt>0</asrwt>
<pdfrwt beam="1">  1        2 0.14383989E+00 0.17548163E+04</pdfrwt>
<pdfrwt beam="2">  1       -2 0.10922646E+00 0.17548163E+04</pdfrwt>
<totfact> 0.17665596E+01</totfact>
</mgrwt>
</event>
<event>
 8    2  0.4480234E-052  0.3142396E+04  0.7818608E-02  0.8204198E-01
          2   -1    0    0  501    0  0.00000000000E+00  0.00000000000E+00  0.36618771252E+04  0.36618771252E+04  0.25500000000E-02 0.  1.
         -2   -1    0    0    0  501 -0.00000000000E+00 -0.00000000000E+00 -0.67415246470E+03  0.67415246470E+03  0.25500000000E-02 0. -1.
    -200001    2    1    2    0    0  0.36304901378E+02 -0.10659087472E+04  0.28424775640E+04  0.30973426955E+04  0.61349292448E+03 0.  0.
   -5000001    2    3    3    0    0  0.54470251503E+02 -0.82174841690E+03  0.13649920925E+04  0.15963068647E+04  0.82187132901E+02 0.  0.
     200001    1    1    2    0    0 -0.36304901378E+02  0.10659087472E+04  0.14524709650E+03  0.12386868944E+04  0.61300000000E+03 0. -1.
         13    1    4    4    0    0  0.11067891748E+02 -0.31751375914E+03  0.46143892352E+03  0.56023510848E+03  0.10566000000E+00 0.  1.
    -200003    1    4    4    0    0  0.43402359755E+02 -0.50423465776E+03  0.90355316901E+03  0.10360717563E+04  0.30000000000E+02 0.  1.
    -200000    1    3    3    0    0 -0.18165350125E+02 -0.24416033032E+03  0.14774854715E+04  0.15010358308E+04  0.10100000000E+03 0.  1.
<mgrwt>
<rscale>  0 0.31423962E+04</rscale>
<asrwt>0</asrwt>
<pdfrwt beam="1">  1        2 0.52312530E+00 0.31423962E+04</pdfrwt>
<pdfrwt beam="2">  1       -2 0.96307495E-01 0.31423962E+04</pdfrwt>
<totfact> 0.73197980E-01</totfact>
</mgrwt>
</event>
<event>
 8    2  0.4480234E-052  0.1638739E+04  0.7818608E-02  0.8797096E-01
          2   -1    0    0  501    0  0.00000000000E+00  0.00000000000E+00  0.36792973589E+03  0.36792973590E+03  0.25500000000E-02 0.  1.
         -2   -1    0    0    0  501 -0.00000000000E+00 -0.00000000000E+00 -0.18247138949E+04  0.18247138949E+04  0.25500000000E-02 0. -1.
    -200001    2    1    2    0    0 -0.60899564304E-01 -0.29457082030E+03 -0.11863675198E+03  0.69158418667E+03  0.61436311449E+03 0.  0.
   -5000001    2    3    3    0    0 -0.11743271815E+03 -0.11307462747E+03 -0.32638854523E+03  0.37523182077E+03  0.87710445159E+02 0.  0.
     200001    1    1    2    0    0  0.60899564304E-01  0.29457082030E+03 -0.13381474070E+04  0.15010594441E+04  0.61300000000E+03 0. -1.
         13    1    4    4    0    0 -0.36307789532E+02 -0.18890461408E+02 -0.25307164167E+02  0.48120357803E+02  0.10566000000E+00 0.  1.
    -200003    1    4    4    0    0 -0.81124928621E+02 -0.94184166064E+02 -0.30108138107E+03  0.32711146297E+03  0.30000000000E+02 0.  1.
    -200000    1    3    3    0    0  0.11737181859E+03 -0.18149619283E+03  0.20775179325E+03  0.31635236590E+03  0.10100000000E+03 0.  1.
<mgrwt>
<rscale>  0 0.16387392E+04</rscale>
<asrwt>0</asrwt>
<pdfrwt beam="1">  1        2 0.52561392E-01 0.16387392E+04</pdfrwt>
<pdfrwt beam="2">  1       -2 0.26067341E+00 0.16387392E+04</pdfrwt>
<totfact> 0.50333766E+00</totfact>
</mgrwt>
</event>
<event>
 8    2  0.4480234E-052  0.1646374E+04  0.7818608E-02  0.8792555E-01
         -2   -1    0    0    0  501 -0.00000000000E+00  0.00000000000E+00  0.26387842177E+03  0.26387842178E+03  0.25500000000E-02 0. -1.
          2   -1    0    0  501    0  0.00000000000E+00 -0.00000000000E+00 -0.25679882748E+04  0.25679882748E+04  0.25500000000E-02 0.  1.
    -200001    2    1    2    0    0  0.33523697297E+03 -0.28838340902E+03 -0.59378706091E+03  0.96196780309E+03  0.61420693731E+03 0.  0.
   -5000001    2    3    3    0    0 -0.16475168232E+02 -0.84760256224E+02  0.33487574664E+02  0.20775411516E+03  0.18596941283E+03 0.  0.
     200001    1    1    2    0    0 -0.33523697297E+03  0.28838340902E+03 -0.17103227921E+04  0.18698988935E+04  0.61300000000E+03 0.  1.
         13    1    4    4    0    0 -0.78933609880E+02  0.20544533069E+01  0.52833739201E+02  0.95006056171E+02  0.10566000000E+00 0.  1.
    -200003    1    4    4    0    0  0.62458441648E+02 -0.86814709531E+02 -0.19346164538E+02  0.11274805899E+03  0.30000000000E+02 0.  1.
    -200000    1    3    3    0    0  0.35171214120E+03 -0.20362315280E+03 -0.62727463558E+03  0.75421368793E+03  0.10100000000E+03 0.  1.
<mgrwt>
<rscale>  0 0.16463738E+04</rscale>
<asrwt>0</asrwt>
<pdfrwt beam="1">  1        2 0.36685545E+00 0.16463738E+04</pdfrwt>
<pdfrwt beam="2">  1       -2 0.37696919E-01 0.16463738E+04</pdfrwt>
<totfact> 0.25822581E+01</totfact>
</mgrwt>
</event>
<event>
 8    2  0.4480234E-052  0.1438024E+04  0.7818608E-02  0.8926746E-01
         -2   -1    0    0    0  501 -0.00000000000E+00  0.00000000000E+00  0.98833273501E+03  0.98833273501E+03  0.25500000000E-02 0. -1.
          2   -1    0    0  501    0  0.00000000000E+00 -0.00000000000E+00 -0.52308101635E+03  0.52308101635E+03  0.25500000000E-02 0.  1.
    -200001    2    1    2    0    0 -0.26099718844E+03 -0.14316955602E+03  0.47399443504E+03  0.82989890249E+03  0.61273518731E+03 0.  0.
   -5000001    2    3    3    0    0  0.74367244721E+02  0.55480546522E+00 -0.91954957190E+02  0.14899824184E+03  0.90630938556E+02 0.  0.
     200001    1    1    2    0    0  0.26099718844E+03  0.14316955602E+03 -0.87427163784E+01  0.68151484887E+03  0.61300000000E+03 0.  1.
         13    1    4    4    0    0  0.79361146699E+02  0.13770492211E+02 -0.47404057477E+02  0.93461082223E+02  0.10566000000E+00 0.  1.
    -200003    1    4    4    0    0 -0.49939019781E+01 -0.13215686746E+02 -0.44550899713E+02  0.55537159618E+02  0.30000000000E+02 0. -1.
    -200000    1    3    3    0    0 -0.33536443316E+03 -0.14372436148E+03  0.56594939223E+03  0.68090066065E+03  0.10100000000E+03 0. -1.
<mgrwt>
<rscale>  0 0.14380238E+04</rscale>
<asrwt>0</asrwt>
<pdfrwt beam="1">  1        2 0.74725859E-01 0.14380238E+04</pdfrwt>
<pdfrwt beam="2">  1       -2 0.14119039E+00 0.14380238E+04</pdfrwt>
<totfact> 0.21760093E+01</totfact>
</mgrwt>
</event>
<event>
 8    2  0.4480234E-052  0.1428297E+04  0.7818608E-02  0.8933587E-01
         -2   -1    0    0    0  501 -0.00000000000E+00  0.00000000000E+00  0.43701245439E+03  0.43701245439E+03  0.25500000000E-02 0. -1.
          2   -1    0    0  501    0  0.00000000000E+00 -0.00000000000E+00 -0.11670333035E+04  0.11670333035E+04  0.25500000000E-02 0.  1.
    -200001    2    1    2    0    0 -0.24312643648E+03 -0.60831155252E+02 -0.67436956426E+02  0.66724412019E+03  0.61469999127E+03 0.  0.
   -5000001    2    3    3    0    0 -0.42976158274E+03 -0.22862585632E+02  0.41427124229E+01  0.44009012157E+03  0.91893619014E+02 0.  0.
     200001    1    1    2    0    0  0.24312643648E+03  0.60831155252E+02 -0.66258389269E+03  0.93680163771E+03  0.61300000000E+03 0.  1.
         13    1    4    4    0    0 -0.19915190610E+03 -0.12391586321E+02  0.42901770662E+02  0.20409705095E+03  0.10566000000E+00 0.  1.
    -200003    1    4    4    0    0 -0.23060967664E+03 -0.10470999311E+02 -0.38759058239E+02  0.23599307062E+03  0.30000000000E+02 0.  1.
    -200000    1    3    3    0    0  0.18663514626E+03 -0.37968569620E+02 -0.71579668849E+02  0.22715399862E+03  0.10100000000E+03 0.  1.
<mgrwt>
<rscale>  0 0.14282970E+04</rscale>
<asrwt>0</asrwt>
<pdfrwt beam="1">  1        2 0.16671904E+00 0.14282970E+04</pdfrwt>
<pdfrwt beam="2">  1       -2 0.62430351E-01 0.14282970E+04</pdfrwt>
<totfact> 0.51684619E+01</totfact>
</mgrwt>
</event>
<event>
 8    2  0.4480234E-052  0.1431525E+04  0.7818608E-02  0.8931310E-01
         -2   -1    0    0    0  501 -0.00000000000E+00  0.00000000000E+00  0.15168550325E+03  0.15168550327E+03  0.25500000000E-02 0. -1.
          2   -1    0    0  501    0  0.00000000000E+00 -0.00000000000E+00 -0.33774865131E+04  0.33774865131E+04  0.25500000000E-02 0.  1.
    -200001    2    1    2    0    0 -0.18166867099E+03  0.24229608172E+03 -0.10860590738E+04  0.12828471400E+04  0.61193265612E+03 0.  0.
   -5000001    2    3    3    0    0 -0.26522980127E+03  0.25942093084E+03 -0.63558260380E+03  0.81337320786E+03  0.34635915199E+03 0.  0.
     200001    1    1    2    0    0  0.18166867099E+03 -0.24229608172E+03 -0.21397419361E+04  0.22463248764E+04  0.61300000000E+03 0.  1.
         13    1    4    4    0    0 -0.11126155735E+03 -0.50068753547E+02 -0.32704153602E+03  0.34905900887E+03  0.10566000000E+00 0.  1.
    -200003    1    4    4    0    0 -0.15396824392E+03  0.30948968439E+03 -0.30854106778E+03  0.46431419899E+03  0.30000000000E+02 0.  1.
    -200000    1    3    3    0    0  0.83561130286E+02 -0.17124849122E+02 -0.45047646997E+03  0.46947393213E+03  0.10100000000E+03 0.  1.
<mgrwt>
<rscale>  0 0.14315247E+04</rscale>
<asrwt>0</asrwt>
<pdfrwt beam="1">  1        2 0.48249803E+00 0.14315247E+04</pdfrwt>
<pdfrwt beam="2">  1       -2 0.21669360E-01 0.14315247E+04</pdfrwt>
<totfact> 0.25990045E+01</totfact>
</mgrwt>
</event>
<event>
 8    2  0.4480234E-052  0.3125417E+04  0.7818608E-02  0.8208797E-01
          2   -1    0    0  501    0  0.00000000000E+00  0.00000000000E+00  0.16026496627E+04  0.16026496627E+04  0.25500000000E-02 0.  1.
         -2   -1    0    0    0  501 -0.00000000000E+00 -0.00000000000E+00 -0.15237625111E+04  0.15237625111E+04  0.25500000000E-02 0. -1.
    -200001    2    1    2    0    0 -0.33826682323E+03 -0.70724597949E+03  0.12446225533E+04  0.15936599609E+04  0.61322544926E+03 0.  0.
   -5000001    2    3    3    0    0 -0.36518194905E+02 -0.62688291385E+03  0.98330772608E+03  0.11741401212E+04  0.13189076434E+03 0.  0.
     200001    1    1    2    0    0  0.33826682323E+03  0.70724597949E+03 -0.11657354017E+04  0.15327522129E+04  0.61300000000E+03 0. -1.
         13    1    4    4    0    0 -0.23531766660E+02 -0.10263708105E+03  0.25755937016E+03  0.27825340028E+03  0.10566000000E+00 0.  1.
    -200003    1    4    4    0    0 -0.12986428245E+02 -0.52424583280E+03  0.72574835592E+03  0.89588672088E+03  0.30000000000E+02 0.  1.
    -200000    1    3    3    0    0 -0.30174862832E+03 -0.80363065644E+02  0.26131482720E+03  0.41951983973E+03  0.10100000000E+03 0.  1.
<mgrwt>
<rscale>  0 0.31254168E+04</rscale>
<asrwt>0</asrwt>
<pdfrwt beam="1">  1        2 0.22894995E+00 0.31254168E+04</pdfrwt>
<pdfrwt beam="2">  1       -2 0.21768036E+00 0.31254168E+04</pdfrwt>
<totfact> 0.11265584E+00</totfact>
</mgrwt>
</event>
<event>
 8    2  0.4480234E-052  0.1381753E+04  0.7818608E-02  0.8967134E-01
         -2   -1    0    0    0  501 -0.00000000000E+00  0.00000000000E+00  0.12275863981E+03  0.12275863983E+03  0.25500000000E-02 0. -1.
          2   -1    0    0  501    0  0.00000000000E+00 -0.00000000000E+00 -0.38881995758E+04  0.38881995758E+04  0.25500000000E-02 0.  1.
    -200001    2    1    2    0    0 -0.21155354943E+03 -0.21966837199E+03 -0.16298540321E+04  0.17683014158E+04  0.61437499388E+03 0.  0.
   -5000001    2    3    3    0    0  0.18769903505E+03 -0.38976375729E+02 -0.66673842742E+03  0.70535979380E+03  0.12744497826E+03 0.  0.
     200001    1    1    2    0    0  0.21155354943E+03  0.21966837199E+03 -0.21355869039E+04  0.22426567998E+04  0.61300000000E+03 0. -1.
         13    1    4    4    0    0 -0.14236550280E+01 -0.21078076070E+01  0.51501256149E+01  0.57449633969E+01  0.10566000000E+00 0.  1.
    -200003    1    4    4    0    0  0.18912269008E+03 -0.36868568122E+02 -0.67188855303E+03  0.69961483040E+03  0.30000000000E+02 0.  1.
    -200000    1    3    3    0    0 -0.39925258448E+03 -0.18069199626E+03 -0.96311560467E+03  0.10629416220E+04  0.10100000000E+03 0. -1.
<mgrwt>
<rscale>  0 0.13817526E+04</rscale>
<asrwt>0</asrwt>
<pdfrwt beam="1">  1        2 0.55545700E+00 0.13817526E+04</pdfrwt>
<pdfrwt beam="2">  1       -2 0.17536951E-01 0.13817526E+04</pdfrwt>
<totfact> 0.18160144E+01</totfact>
</mgrwt>
</event>
<event>
 8    2  0.4480234E-052  0.1391272E+04  0.7818608E-02  0.8960161E-01
          2   -1    0    0  501    0  0.00000000000E+00  0.00000000000E+00  0.12766414772E+04  0.12766414773E+04  0.25500000000E-02 0.  1.
         -2   -1    0    0    0  501 -0.00000000000E+00 -0.00000000000E+00 -0.37904864554E+03  0.37904864555E+03  0.25500000000E-02 0. -1.
    -200001    2    1    2    0    0  0.41863485635E+02 -0.14432508122E+03  0.10098452478E+03  0.63935549525E+03  0.61318455180E+03 0.  0.
   -5000001    2    3    3    0    0 -0.10188494790E+03  0.18379517066E+03  0.14155133488E+03  0.26495840937E+03  0.77491747467E+02 0.  0.
     200001    1    1    2    0    0 -0.41863485635E+02  0.14432508122E+03  0.79660830692E+03  0.10163346276E+04  0.61300000000E+03 0.  1.
         13    1    4    4    0    0 -0.18585547311E+00  0.52698907671E+02  0.17134533822E+02  0.55414915188E+02  0.10566000000E+00 0.  1.
    -200003    1    4    4    0    0 -0.10169909243E+03  0.13109626298E+03  0.12441680106E+03  0.20954349418E+03  0.30000000000E+02 0.  1.
    -200000    1    3    3    0    0  0.14374843354E+03 -0.32812025188E+03 -0.40566810100E+02  0.37439708588E+03  0.10100000000E+03 0. -1.
<mgrwt>
<rscale>  0 0.13912717E+04</rscale>
<asrwt>0</asrwt>
<pdfrwt beam="1">  1        2 0.18237736E+00 0.13912717E+04</pdfrwt>
<pdfrwt beam="2">  1       -2 0.54149805E-01 0.13912717E+04</pdfrwt>
<totfact> 0.60555411E+01</totfact>
</mgrwt>
</event>
<event>
 8    2  0.4480234E-052  0.1515019E+04  0.7818608E-02  0.8874527E-01
          2   -1    0    0  501    0  0.00000000000E+00  0.00000000000E+00  0.23986946627E+04  0.23986946627E+04  0.25500000000E-02 0.  1.
         -2   -1    0    0    0  501 -0.00000000000E+00 -0.00000000000E+00 -0.23922198251E+03  0.23922198252E+03  0.25500000000E-02 0. -1.
    -200001    2    1    2    0    0 -0.37499937734E+02 -0.32478811653E+03  0.55190861018E+03  0.88665287150E+03  0.61209201479E+03 0.  0.
   -5000001    2    3    3    0    0  0.13037670288E+03  0.11817389774E+03  0.18517849294E+03  0.27912518370E+03  0.11250172962E+03 0.  0.
     200001    1    1    2    0    0  0.37499937734E+02  0.32478811653E+03  0.16075640700E+04  0.17512637737E+04  0.61300000000E+03 0.  1.
         13    1    4    4    0    0  0.10145965697E+03  0.10197700006E+03  0.79450476019E+02  0.16433429294E+03  0.10566000000E+00 0.  1.
    -200003    1    4    4    0    0  0.28917045915E+02  0.16196897674E+02  0.10572801692E+03  0.11479089076E+03  0.30000000000E+02 0.  1.
    -200000    1    3    3    0    0 -0.16787664062E+03 -0.44296201427E+03  0.36673011724E+03  0.60752768780E+03  0.10100000000E+03 0. -1.
<mgrwt>
<rscale>  0 0.15150188E+04</rscale>
<asrwt>0</asrwt>
<pdfrwt beam="1">  1        2 0.34267067E+00 0.15150188E+04</pdfrwt>
<pdfrwt beam="2">  1       -2 0.34174569E-01 0.15150188E+04</pdfrwt>
<totfact> 0.38665184E+01</totfact>
</mgrwt>
</event>
<event>
 8    2  0.4480234E-052  0.1683548E+04  0.7818608E-02  0.8770804E-01
          2   -1    0    0  501    0  0.00000000000E+00  0.00000000000E+00  0.10554734369E+04  0.10554734369E+04  0.25500000000E-02 0.  1.
         -2   -1    0    0    0  501 -0.00000000000E+00 -0.00000000000E+00 -0.67134164273E+03  0.67134164273E+03  0.25500000000E-02 0. -1.
    -200001    2    1    2    0    0  0.47482009947E+02  0.45141311331E+03  0.55704313748E+03  0.94470532212E+03  0.61330477619E+03 0.  0.
   -5000001    2    3    3    0    0 -0.71116160366E+02  0.47527814483E+03  0.60130902115E+03  0.78101190690E+03  0.13213718846E+03 0.  0.
     200001    1    1    2    0    0 -0.47482009947E+02 -0.45141311331E+03 -0.17291134332E+03  0.78210975751E+03  0.61300000000E+03 0. -1.
         13    1    4    4    0    0 -0.82511284240E+02  0.44747480440E+03  0.53571301986E+03  0.70287286433E+03  0.10566000000E+00 0.  1.
    -200003    1    4    4    0    0  0.11395123875E+02  0.27803340428E+02  0.65596001293E+02  0.78139042563E+02  0.30000000000E+02 0.  1.
    -200000    1    3    3    0    0  0.11859817031E+03 -0.23865031522E+02 -0.44265883673E+02  0.16369341523E+03  0.10100000000E+03 0. -1.
<mgrwt>
<rscale>  0 0.16835478E+04</rscale>
<asrwt>0</asrwt>
<pdfrwt beam="1">  1        2 0.15078192E+00 0.16835478E+04</pdfrwt>
<pdfrwt beam="2">  1       -2 0.95905949E-01 0.16835478E+04</pdfrwt>
<totfact> 0.22623340E+01</totfact>
</mgrwt>
</event>
<event>
 8    2  0.4480234E-052  0.3065213E+04  0.7818608E-02  0.8225350E-01
          2   -1    0    0  501    0  0.00000000000E+00  0.00000000000E+00  0.13089062977E+04  0.13089062977E+04  0.25500000000E-02 0.  1.
         -2   -1    0    0    0  501 -0.00000000000E+00 -0.00000000000E+00 -0.17945380752E+04  0.17945380752E+04  0.25500000000E-02 0. -1.
    -200001    2    1    2    0    0  0.28228894413E+03 -0.10555151287E+04 -0.11366197995E+04  0.16915826092E+04  0.61298280585E+03 0.  0.
   -5000001    2    3    3    0    0  0.45534328052E+03 -0.80329574386E+03 -0.79938319980E+03  0.12252222919E+04  0.97645323015E+02 0.  0.
     200001    1    1    2    0    0 -0.28228894413E+03  0.10555151287E+04  0.65098802207E+03  0.14118617637E+04  0.61300000000E+03 0.  1.
         13    1    4    4    0    0  0.32800553059E+03 -0.52269030888E+03 -0.49545402178E+03  0.79137063754E+03  0.10566000000E+00 0.  1.
    -200003    1    4    4    0    0  0.12733774993E+03 -0.28060543498E+03 -0.30392917802E+03  0.43385165431E+03  0.30000000000E+02 0.  1.
    -200000    1    3    3    0    0 -0.17305433638E+03 -0.25221938484E+03 -0.33723659973E+03  0.46636031738E+03  0.10100000000E+03 0. -1.
<mgrwt>
<rscale>  0 0.30652127E+04</rscale>
<asrwt>0</asrwt>
<pdfrwt beam="1">  1        2 0.18698661E+00 0.30652127E+04</pdfrwt>
<pdfrwt beam="2">  1       -2 0.25636258E+00 0.30652127E+04</pdfrwt>
<totfact> 0.93500019E-01</totfact>
</mgrwt>
</event>
<event>
 8    2  0.4480234E-052  0.1769767E+04  0.7818608E-02  0.8722545E-01
         -2   -1    0    0    0  501 -0.00000000000E+00  0.00000000000E+00  0.51633050289E+03  0.51633050290E+03  0.25500000000E-02 0. -1.
          2   -1    0    0  501    0  0.00000000000E+00 -0.00000000000E+00 -0.15165063349E+04  0.15165063349E+04  0.25500000000E-02 0.  1.
    -200001    2    1    2    0    0 -0.33274548312E+03  0.36731481602E+03 -0.38560126896E+02  0.78940871567E+03  0.61322060173E+03 0.  0.
   -5000001    2    3    3    0    0 -0.82100670804E+02  0.48077959939E+03 -0.63416211313E+01  0.49455941328E+03  0.81604250880E+02 0.  0.
     200001    1    1    2    0    0  0.33274548312E+03 -0.36731481602E+03 -0.96161570513E+03  0.12434281222E+04  0.61300000000E+03 0.  1.
         13    1    4    4    0    0  0.11448597227E+02  0.10979499047E+03  0.64015911078E+01  0.11057577422E+03  0.10566000000E+00 0.  1.
    -200003    1    4    4    0    0 -0.93549268031E+02  0.37098460892E+03 -0.12743212239E+02  0.38398363906E+03  0.30000000000E+02 0.  1.
    -200000    1    3    3    0    0 -0.25064481232E+03 -0.11346478338E+03 -0.32218505764E+02  0.29484930240E+03  0.10100000000E+03 0. -1.
<mgrwt>
<rscale>  0 0.17697666E+04</rscale>
<asrwt>0</asrwt>
<pdfrwt beam="1">  1        2 0.21664376E+00 0.17697666E+04</pdfrwt>
<pdfrwt beam="2">  1       -2 0.73761501E-01 0.17697666E+04</pdfrwt>
<totfact> 0.22526316E+01</totfact>
</mgrwt>
</event>
<event>
 8    2  0.4480234E-052  0.1567838E+04  0.7818608E-02  0.8840554E-01
          2   -1    0    0  501    0  0.00000000000E+00  0.00000000000E+00  0.15453113508E+04  0.15453113508E+04  0.25500000000E-02 0.  1.
         -2   -1    0    0    0  501 -0.00000000000E+00 -0.00000000000E+00 -0.39767332105E+03  0.39767332106E+03  0.25500000000E-02 0. -1.
    -200001    2    1    2    0    0  0.29130909094E+03 -0.39153245948E+03  0.54931724778E+03  0.95712696843E+03  0.61333835826E+03 0.  0.
   -5000001    2    3    3    0    0  0.34900649267E+03 -0.20331454199E+03  0.60188956340E+03  0.72970704187E+03  0.84017769014E+02 0.  0.
     200001    1    1    2    0    0 -0.29130909094E+03  0.39153245948E+03  0.59832078200E+03  0.98585770346E+03  0.61300000000E+03 0. -1.
         13    1    4    4    0    0  0.18877049009E+03 -0.68069189754E+02  0.28617178104E+03  0.34951682641E+03  0.10566000000E+00 0.  1.
    -200003    1    4    4    0    0  0.16023600259E+03 -0.13524535224E+03  0.31571778237E+03  0.38019021546E+03  0.30000000000E+02 0.  1.
    -200000    1    3    3    0    0 -0.57697401730E+02 -0.18821791749E+03 -0.52572315625E+02  0.22741992657E+03  0.10100000000E+03 0. -1.
<mgrwt>
<rscale>  0 0.15678381E+04</rscale>
<asrwt>0</asrwt>
<pdfrwt beam="1">  1        2 0.22075877E+00 0.15678381E+04</pdfrwt>
<pdfrwt beam="2">  1       -2 0.56810473E-01 0.15678381E+04</pdfrwt>
<totfact> 0.38695535E+01</totfact>
</mgrwt>
</event>
<event>
 8    2  0.4480234E-052  0.1272706E+04  0.7818608E-02  0.9051494E-01
         -2   -1    0    0    0  501 -0.00000000000E+00  0.00000000000E+00  0.40141825471E+03  0.40141825472E+03  0.25500000000E-02 0. -1.
          2   -1    0    0  501    0  0.00000000000E+00 -0.00000000000E+00 -0.10087856640E+04  0.10087856640E+04  0.25500000000E-02 0.  1.
    -200001    2    1    2    0    0  0.16437196251E+02  0.31875619306E+02 -0.48833404894E+03  0.78472476045E+03  0.61321820732E+03 0.  0.
   -5000001    2    3    3    0    0 -0.10440481333E+03  0.82041138932E+02 -0.55371375335E+03  0.60697528397E+03  0.21021170560E+03 0.  0.
     200001    1    1    2    0    0 -0.16437196251E+02 -0.31875619306E+02 -0.11903336033E+03  0.62547915824E+03  0.61300000000E+03 0. -1.
         13    1    4    4    0    0 -0.42132241312E+02  0.14752220022E+03 -0.34049248345E+03  0.37346093204E+03  0.10566000000E+00 0.  1.
    -200003    1    4    4    0    0 -0.62272572022E+02 -0.65481061289E+02 -0.21322126991E+03  0.23351435192E+03  0.30000000000E+02 0.  1.
    -200000    1    3    3    0    0  0.12084200958E+03 -0.50165519626E+02  0.65379704416E+02  0.17774947648E+03  0.10100000000E+03 0. -1.
<mgrwt>
<rscale>  0 0.12727057E+04</rscale>
<asrwt>0</asrwt>
<pdfrwt beam="1">  1        2 0.14411224E+00 0.12727057E+04</pdfrwt>
<pdfrwt beam="2">  1       -2 0.57345465E-01 0.12727057E+04</pdfrwt>
<totfact> 0.77657856E+01</totfact>
</mgrwt>
</event>
<event>
 8    2  0.4480234E-052  0.1521898E+04  0.7818608E-02  0.8870020E-01
          2   -1    0    0  501    0  0.00000000000E+00  0.00000000000E+00  0.14335805433E+04  0.14335805433E+04  0.25500000000E-02 0.  1.
         -2   -1    0    0    0  501 -0.00000000000E+00 -0.00000000000E+00 -0.40391422045E+03  0.40391422046E+03  0.25500000000E-02 0. -1.
    -200001    2    1    2    0    0  0.47506434104E+02 -0.44153355941E+03  0.41692807050E+03  0.86362315455E+03  0.61221498816E+03 0.  0.
   -5000001    2    3    3    0    0 -0.37843474307E+02  0.63779418142E+02 -0.93633373428E+02  0.13321244804E+03  0.58978004100E+02 0.  0.
     200001    1    1    2    0    0 -0.47506434104E+02  0.44153355941E+03  0.61273825238E+03  0.97387160925E+03  0.61300000000E+03 0.  1.
         13    1    4    4    0    0  0.13347823077E+01 -0.56532705294E+01 -0.19308838408E+02  0.20163916191E+02  0.10566000000E+00 0.  1.
    -200003    1    4    4    0    0 -0.39178256615E+02  0.69432688672E+02 -0.74324535020E+02  0.11304853185E+03  0.30000000000E+02 0.  1.
    -200000    1    3    3    0    0  0.85349908411E+02 -0.50531297756E+03  0.51056144393E+03  0.73041070650E+03  0.10100000000E+03 0. -1.
<mgrwt>
<rscale>  0 0.15218982E+04</rscale>
<asrwt>0</asrwt>
<pdfrwt beam="1">  1        2 0.20479722E+00 0.15218982E+04</pdfrwt>
<pdfrwt beam="2">  1       -2 0.57702032E-01 0.15218982E+04</pdfrwt>
<totfact> 0.43111903E+01</totfact>
</mgrwt>
</event>
<event>
 8    2  0.4480234E-052  0.1400887E+04  0.7818608E-02  0.8953177E-01
         -2   -1    0    0    0  501 -0.00000000000E+00  0.00000000000E+00  0.52285425929E+03  0.52285425929E+03  0.25500000000E-02 0.  1.
          2   -1    0    0  501    0  0.00000000000E+00 -0.00000000000E+00 -0.93835190134E+03  0.93835190134E+03  0.25500000000E-02 0. -1.
    -200001    2    1    2    0    0 -0.88765216139E+02 -0.24845629830E+03 -0.43109130595E+03  0.79365694289E+03  0.61191652467E+03 0.  0.
   -5000001    2    3    3    0    0  0.20801306651E+03 -0.70138164427E+02  0.19473813280E+00  0.23144403149E+03  0.73331465577E+02 0.  0.
     200001    1    1    2    0    0  0.88765216139E+02  0.24845629830E+03  0.15593663896E+02  0.66754921775E+03  0.61300000000E+03 0.  1.
         13    1    4    4    0    0  0.16043369012E+02 -0.17888970358E+02 -0.17110575513E+02  0.29498947577E+02  0.10566000000E+00 0.  1.
    -200003    1    4    4    0    0  0.19196969750E+03 -0.52249194068E+02  0.17305313646E+02  0.20194508392E+03  0.30000000000E+02 0.  1.
    -200000    1    3    3    0    0 -0.29677828265E+03 -0.17831813387E+03 -0.43128604408E+03  0.56221291139E+03  0.10100000000E+03 0. -1.
<mgrwt>
<rscale>  0 0.14008873E+04</rscale>
<asrwt>0</asrwt>
<pdfrwt beam="1">  1        2 0.13405027E+00 0.14008873E+04</pdfrwt>
<pdfrwt beam="2">  1       -2 0.74693466E-01 0.14008873E+04</pdfrwt>
<totfact> 0.48244510E+01</totfact>
</mgrwt>
</event>
<event>
 8    2  0.4480234E-052  0.1343900E+04  0.7818608E-02  0.8995458E-01
         -2   -1    0    0    0  501 -0.00000000000E+00  0.00000000000E+00  0.29643236311E+03  0.29643236312E+03  0.25500000000E-02 0. -1.
          2   -1    0    0  501    0  0.00000000000E+00 -0.00000000000E+00 -0.15231703801E+04  0.15231703801E+04  0.25500000000E-02 0.  1.
    -200001    2    1    2    0    0  0.22925519017E+03  0.14984684006E+03 -0.57079102446E+03  0.88096145142E+03  0.61259992457E+03 0.  0.
   -5000001    2    3    3    0    0 -0.99150062173E+01 -0.15444458535E+02  0.10723306839E+03  0.13635332178E+03  0.82197680963E+02 0.  0.
     200001    1    1    2    0    0 -0.22925519017E+03 -0.14984684006E+03 -0.65594699254E+03  0.93864129182E+03  0.61300000000E+03 0.  1.
         13    1    4    4    0    0  0.24225385412E+02  0.15653489505E+02  0.42529320538E+02  0.51387306813E+02  0.10566000000E+00 0.  1.
    -200003    1    4    4    0    0 -0.34140391629E+02 -0.31097948040E+02  0.64703747855E+02  0.84966014967E+02  0.30000000000E+02 0.  1.
    -200000    1    3    3    0    0  0.23917019638E+03  0.16529129859E+03 -0.67802409285E+03  0.74460812963E+03  0.10100000000E+03 0.  1.
<mgrwt>
<rscale>  0 0.13439003E+04</rscale>
<asrwt>0</asrwt>
<pdfrwt beam="1">  1        2 0.21759576E+00 0.13439003E+04</pdfrwt>
<pdfrwt beam="2">  1       -2 0.42347481E-01 0.13439003E+04</pdfrwt>
<totfact> 0.73408712E+01</totfact>
</mgrwt>
</event>
<event>
 8    2  0.4480234E-052  0.1672435E+04  0.7818608E-02  0.8777244E-01
         -2   -1    0    0    0  501 -0.00000000000E+00  0.00000000000E+00  0.14041943061E+04  0.14041943061E+04  0.25500000000E-02 0. -1.
          2   -1    0    0  501    0  0.00000000000E+00 -0.00000000000E+00 -0.49797914111E+03  0.49797914111E+03  0.25500000000E-02 0.  1.
    -200001    2    1    2    0    0  0.47274575281E+03 -0.23524572453E+03  0.21293942159E+03  0.83670202382E+03  0.61310519626E+03 0.  0.
   -5000001    2    3    3    0    0 -0.20654532290E+02  0.95441603427E+01 -0.15117539564E+03  0.16876001346E+03  0.71471960901E+02 0.  0.
     200001    1    1    2    0    0 -0.47274575281E+03  0.23524572453E+03  0.69327574344E+03  0.10654714234E+04  0.61300000000E+03 0.  1.
         13    1    4    4    0    0  0.15756933766E+02  0.93246331477E+01 -0.12217739099E+02  0.22011680031E+02  0.10566000000E+00 0.  1.
    -200003    1    4    4    0    0 -0.36411466056E+02  0.21952719496E+00 -0.13895765654E+03  0.14674833343E+03  0.30000000000E+02 0.  1.
    -200000    1    3    3    0    0  0.49340028510E+03 -0.24478988487E+03  0.36411481723E+03  0.66794201036E+03  0.10100000000E+03 0. -1.
<mgrwt>
<rscale>  0 0.16724347E+04</rscale>
<asrwt>0</asrwt>
<pdfrwt beam="1">  1        2 0.71139878E-01 0.16724347E+04</pdfrwt>
<pdfrwt beam="2">  1       -2 0.20059919E+00 0.16724347E+04</pdfrwt>
<totfact> 0.84916054E+00</totfact>
</mgrwt>
</event>
<event>
 8    2  0.4480234E-052  0.1405283E+04  0.7818608E-02  0.8950003E-01
          2   -1    0    0  501    0  0.00000000000E+00  0.00000000000E+00  0.73920061108E+03  0.73920061109E+03  0.25500000000E-02 0.  1.
         -2   -1    0    0    0  501 -0.00000000000E+00 -0.00000000000E+00 -0.66789089356E+03  0.66789089357E+03  0.25500000000E-02 0. -1.
    -200001    2    1    2    0    0 -0.63689420495E+02  0.25640981337E+03  0.25483235583E+03  0.71481129155E+03  0.61336230589E+03 0.  0.
   -5000001    2    3    3    0    0 -0.16408539927E+03 -0.77651740471E+02 -0.79957135831E+02  0.22088672440E+03  0.97180195493E+02 0.  0.
     200001    1    1    2    0    0  0.63689420495E+02 -0.25640981337E+03 -0.18352263831E+03  0.69228021310E+03  0.61300000000E+03 0. -1.
         13    1    4    4    0    0 -0.14280761136E+03 -0.78493465665E+02 -0.42552716875E+02  0.16842203802E+03  0.10566000000E+00 0.  1.
    -200003    1    4    4    0    0 -0.21277787910E+02  0.84172519417E+00 -0.37404418956E+02  0.52464686381E+02  0.30000000000E+02 0.  1.
    -200000    1    3    3    0    0  0.10039597878E+03  0.33406155384E+03  0.33478949166E+03  0.49392456715E+03  0.10100000000E+03 0. -1.
<mgrwt>
<rscale>  0 0.14052834E+04</rscale>
<asrwt>0</asrwt>
<pdfrwt beam="1">  1        2 0.10560009E+00 0.14052834E+04</pdfrwt>
<pdfrwt beam="2">  1       -2 0.95412984E-01 0.14052834E+04</pdfrwt>
<totfact> 0.37814439E+01</totfact>
</mgrwt>
</event>
<event>
 8    2  0.4480234E-052  0.3674738E+04  0.7818608E-02  0.8073583E-01
         -2   -1    0    0    0  501 -0.00000000000E+00  0.00000000000E+00  0.18187379985E+04  0.18187379985E+04  0.25500000000E-02 0. -1.
          2   -1    0    0  501    0  0.00000000000E+00 -0.00000000000E+00 -0.18561911793E+04  0.18561911793E+04  0.25500000000E-02 0.  1.
    -200001    2    1    2    0    0 -0.30599082429E+03 -0.74267277783E+03 -0.15534769676E+04  0.18530372047E+04  0.61258709886E+03 0.  0.
   -5000001    2    3    3    0    0 -0.15381316246E+03  0.34881109065E+02 -0.33115087249E+03  0.39288989345E+03  0.14080620480E+03 0.  0.
     200001    1    1    2    0    0  0.30599082429E+03  0.74267277783E+03  0.15160237868E+04  0.18218919731E+04  0.61300000000E+03 0. -1.
         13    1    4    4    0    0 -0.44364653842E+02  0.74799316126E+02 -0.17827319278E+03  0.19835448730E+03  0.10566000000E+00 0.  1.
    -200003    1    4    4    0    0 -0.10944850861E+03 -0.39918207061E+02 -0.15287767971E+03  0.19453540615E+03  0.30000000000E+02 0.  1.
    -200000    1    3    3    0    0 -0.15217766184E+03 -0.77755388690E+03 -0.12223260951E+04  0.14601473113E+04  0.10100000000E+03 0.  1.
<mgrwt>
<rscale>  0 0.36747383E+04</rscale>
<asrwt>0</asrwt>
<pdfrwt beam="1">  1        2 0.26517017E+00 0.36747383E+04</pdfrwt>
<pdfrwt beam="2">  1       -2 0.25981971E+00 0.36747383E+04</pdfrwt>
<totfact> 0.43563858E-01</totfact>
</mgrwt>
</event>
<event>
 8    2  0.4480234E-052  0.1372250E+04  0.7818608E-02  0.8974154E-01
          2   -1    0    0  501    0  0.00000000000E+00  0.00000000000E+00  0.11270206411E+04  0.11270206411E+04  0.25500000000E-02 0.  1.
         -2   -1    0    0    0  501 -0.00000000000E+00 -0.00000000000E+00 -0.41770969508E+03  0.41770969509E+03  0.25500000000E-02 0. -1.
    -200001    2    1    2    0    0 -0.34024517797E+02  0.27288523383E+03  0.19504764651E+03  0.69864537600E+03  0.61191319510E+03 0.  0.
   -5000001    2    3    3    0    0 -0.20832377231E+03  0.21186267678E+03 -0.98760160859E+02  0.33722040416E+03  0.12521758537E+03 0.  0.
     200001    1    1    2    0    0  0.34024517797E+02 -0.27288523383E+03  0.51426329952E+03  0.84608496021E+03  0.61300000000E+03 0.  1.
         13    1    4    4    0    0 -0.35547928745E+02 -0.11895713444E+02 -0.47137475905E+01  0.37780865750E+02  0.10566000000E+00 0.  1.
    -200003    1    4    4    0    0 -0.17277584357E+03  0.22375839022E+03 -0.94046413268E+02  0.29943953841E+03  0.30000000000E+02 0.  1.
    -200000    1    3    3    0    0  0.17429925452E+03  0.61022557053E+02  0.29380780737E+03  0.36142497184E+03  0.10100000000E+03 0.  1.
<mgrwt>
<rscale>  0 0.13722499E+04</rscale>
<asrwt>0</asrwt>
<pdfrwt beam="1">  1        2 0.16100295E+00 0.13722499E+04</pdfrwt>
<pdfrwt beam="2">  1       -2 0.59672814E-01 0.13722499E+04</pdfrwt>
<totfact> 0.60249127E+01</totfact>
</mgrwt>
</event>
<event>
 8    2  0.4480234E-052  0.1393505E+04  0.7818608E-02  0.8958534E-01
          2   -1    0    0  501    0  0.00000000000E+00  0.00000000000E+00  0.29070326172E+04  0.29070326172E+04  0.25500000000E-02 0.  1.
         -2   -1    0    0    0  501 -0.00000000000E+00 -0.00000000000E+00 -0.16699632405E+03  0.16699632407E+03  0.25500000000E-02 0. -1.
    -200001    2    1    2    0    0  0.22694776771E+02 -0.11848043996E+03  0.68881070077E+03  0.92976960565E+03  0.61274682419E+03 0.  0.
   -5000001    2    3    3    0    0 -0.13801879345E+03  0.13066750232E+03  0.38015174387E+02  0.20752354927E+03  0.74146385677E+02 0.  0.
     200001    1    1    2    0    0 -0.22694776771E+02  0.11848043996E+03  0.20512255924E+04  0.21442593356E+04  0.61300000000E+03 0.  1.
         13    1    4    4    0    0 -0.50812971236E+02  0.83235165642E+02  0.13527330436E+01  0.97528928509E+02  0.10566000000E+00 0.  1.
    -200003    1    4    4    0    0 -0.87205822215E+02  0.47432336681E+02  0.36662441343E+02  0.10999462076E+03  0.30000000000E+02 0.  1.
    -200000    1    3    3    0    0  0.16071357022E+03 -0.24914794229E+03  0.65079552638E+03  0.72224605638E+03  0.10100000000E+03 0. -1.
<mgrwt>
<rscale>  0 0.13935046E+04</rscale>
<asrwt>0</asrwt>
<pdfrwt beam="1">  1        2 0.41529038E+00 0.13935046E+04</pdfrwt>
<pdfrwt beam="2">  1       -2 0.23856617E-01 0.13935046E+04</pdfrwt>
<totfact> 0.40676710E+01</totfact>
</mgrwt>
</event>
<event>
 8    2  0.4480234E-052  0.1425561E+04  0.7818608E-02  0.8935521E-01
          2   -1    0    0  501    0  0.00000000000E+00  0.00000000000E+00  0.18967974131E+04  0.18967974131E+04  0.25500000000E-02 0.  1.
         -2   -1    0    0    0  501 -0.00000000000E+00 -0.00000000000E+00 -0.26784950032E+03  0.26784950034E+03  0.25500000000E-02 0. -1.
    -200001    2    1    2    0    0  0.30928479700E+03  0.12871061847E+03  0.60125117839E+03  0.92200734911E+03  0.61349088285E+03 0.  0.
   -5000001    2    3    3    0    0 -0.79398076703E+02 -0.17081939345E+03  0.17812090408E+03  0.26623846193E+03  0.60601504771E+02 0.  0.
     200001    1    1    2    0    0 -0.30928479700E+03 -0.12871061847E+03  0.10276967344E+04  0.12426395643E+04  0.61300000000E+03 0. -1.
         13    1    4    4    0    0 -0.29111624989E+02 -0.10835130705E+03  0.10434919277E+03  0.15321963857E+03  0.10566000000E+00 0.  1.
    -200003    1    4    4    0    0 -0.50286451714E+02 -0.62468086403E+02  0.73771711308E+02  0.11301882336E+03  0.30000000000E+02 0. -1.
    -200000    1    3    3    0    0  0.38868287370E+03  0.29953001192E+03  0.42313027431E+03  0.65576888718E+03  0.10100000000E+03 0. -1.
<mgrwt>
<rscale>  0 0.14255613E+04</rscale>
<asrwt>0</asrwt>
<pdfrwt beam="1">  1        2 0.27097106E+00 0.14255613E+04</pdfrwt>
<pdfrwt beam="2">  1       -2 0.38264215E-01 0.14255613E+04</pdfrwt>
<totfact> 0.56879193E+01</totfact>
</mgrwt>
</event>
<event>
 8    2  0.4480234E-052  0.1658567E+04  0.7818608E-02  0.8785354E-01
         -2   -1    0    0    0  501 -0.00000000000E+00  0.00000000000E+00  0.52328287602E+03  0.52328287603E+03  0.25500000000E-02 0.  1.
          2   -1    0    0  501    0  0.00000000000E+00 -0.00000000000E+00 -0.13142246659E+04  0.13142246659E+04  0.25500000000E-02 0. -1.
    -200001    2    1    2    0    0 -0.71972831277E+02 -0.22422804476E+03 -0.95678115450E+03  0.11602114476E+04  0.61253744469E+03 0.  0.
   -5000001    2    3    3    0    0 -0.28129468192E+03 -0.32736406831E+02 -0.71918015198E+03  0.77662322969E+03  0.75664915798E+02 0.  0.
     200001    1    1    2    0    0  0.71972831277E+02  0.22422804476E+03  0.16583936461E+03  0.67729609430E+03  0.61300000000E+03 0.  1.
         13    1    4    4    0    0 -0.26829689016E+02  0.17109848758E+02 -0.89159529762E+02  0.94667904005E+02  0.10566000000E+00 0.  1.
    -200003    1    4    4    0    0 -0.25446499291E+03 -0.49846255589E+02 -0.63002062222E+03  0.68195532569E+03  0.30000000000E+02 0.  1.
    -200000    1    3    3    0    0  0.20932185065E+03 -0.19149163793E+03 -0.23760100252E+03  0.38358821795E+03  0.10100000000E+03 0.  1.
<mgrwt>
<rscale>  0 0.16585672E+04</rscale>
<asrwt>0</asrwt>
<pdfrwt beam="1">  1        2 0.18774638E+00 0.16585672E+04</pdfrwt>
<pdfrwt beam="2">  1       -2 0.74754697E-01 0.16585672E+04</pdfrwt>
<totfact> 0.28378245E+01</totfact>
</mgrwt>
</event>
<event>
 8    2  0.4480234E-052  0.1707346E+04  0.7818608E-02  0.8757186E-01
          2   -1    0    0  501    0  0.00000000000E+00  0.00000000000E+00  0.30184184305E+04  0.30184184305E+04  0.25500000000E-02 0. -1.
         -2   -1    0    0    0  501 -0.00000000000E+00 -0.00000000000E+00 -0.24143695371E+03  0.24143695372E+03  0.25500000000E-02 0.  1.
    -200001    2    1    2    0    0  0.37573165470E+03  0.27958022999E+03  0.67236081360E+03  0.10183075892E+04  0.60460061300E+03 0.  0.
   -5000001    2    3    3    0    0  0.16008810226E+02 -0.28734027044E+02  0.49581715385E+03  0.50272358080E+03  0.76252359520E+02 0.  0.
     200001    1    1    2    0    0 -0.37573165470E+03 -0.27958022999E+03  0.21046206632E+04  0.22415477950E+04  0.61300000000E+03 0. -1.
         13    1    4    4    0    0  0.38717376565E+02 -0.13514504681E+02  0.20239769399E+03  0.20651032609E+03  0.10566000000E+00 0.  1.
    -200003    1    4    4    0    0 -0.22708566338E+02 -0.15219522364E+02  0.29341945986E+03  0.29621325472E+03  0.30000000000E+02 0.  1.
    -200000    1    3    3    0    0  0.35972284448E+03  0.30831425703E+03  0.17654365975E+03  0.51558400841E+03  0.10100000000E+03 0.  1.
<mgrwt>
<rscale>  0 0.17073462E+04</rscale>
<asrwt>0</asrwt>
<pdfrwt beam="1">  1        2 0.43120261E+00 0.17073462E+04</pdfrwt>
<pdfrwt beam="2">  1       -2 0.34490995E-01 0.17073462E+04</pdfrwt>
<totfact> 0.17347878E+01</totfact>
</mgrwt>
</event>
<event>
 8    2  0.4480234E-052  0.2013193E+04  0.7818608E-02  0.8600477E-01
          2   -1    0    0  501    0  0.00000000000E+00  0.00000000000E+00  0.27240407093E+04  0.27240407093E+04  0.25500000000E-02 0. -1.
         -2   -1    0    0    0  501 -0.00000000000E+00 -0.00000000000E+00 -0.37196079385E+03  0.37196079386E+03  0.25500000000E-02 0.  1.
    -200001    2    1    2    0    0 -0.56848506410E+03 -0.15678228899E+03  0.20036626436E+04  0.21768064479E+04  0.61324250347E+03 0.  0.
   -5000001    2    3    3    0    0 -0.42112477167E+03 -0.22170020959E+03  0.18658130040E+04  0.19420024545E+04  0.25222670578E+03 0.  0.
     200001    1    1    2    0    0  0.56848506410E+03  0.15678228899E+03  0.34841727183E+03  0.91919505523E+03  0.61300000000E+03 0.  1.
         13    1    4    4    0    0 -0.15339538805E+03 -0.17647149863E+03  0.54179068613E+03  0.59009278393E+03  0.10566000000E+00 0.  1.
    -200003    1    4    4    0    0 -0.26772938362E+03 -0.45228710964E+02  0.13240223178E+04  0.13519096705E+04  0.30000000000E+02 0.  1.
    -200000    1    3    3    0    0 -0.14736029242E+03  0.64917920603E+02  0.13784963967E+03  0.23480399348E+03  0.10100000000E+03 0.  1.
<mgrwt>
<rscale>  0 0.20131928E+04</rscale>
<asrwt>0</asrwt>
<pdfrwt beam="1">  1        2 0.38914868E+00 0.20131928E+04</pdfrwt>
<pdfrwt beam="2">  1       -2 0.53137255E-01 0.20131928E+04</pdfrwt>
<totfact> 0.10412411E+01</totfact>
</mgrwt>
</event>
<event>
 8    2  0.4480234E-052  0.1758000E+04  0.7818608E-02  0.8728959E-01
          2   -1    0    0  501    0  0.00000000000E+00  0.00000000000E+00  0.16655362145E+04  0.16655362145E+04  0.25500000000E-02 0. -1.
         -2   -1    0    0    0  501 -0.00000000000E+00 -0.00000000000E+00 -0.46389918551E+03  0.46389918551E+03  0.25500000000E-02 0.  1.
    -200001    2    1    2    0    0  0.54769127600E+03  0.11162823907E+03  0.95093677139E+03  0.12628061732E+04  0.61479434802E+03 0.  0.
   -5000001    2    3    3    0    0  0.60936679633E+03  0.19512474767E+03  0.66793761640E+03  0.94489886207E+03  0.19311043602E+03 0.  0.
     200001    1    1    2    0    0 -0.54769127600E+03 -0.11162823907E+03  0.25070025758E+03  0.86662922678E+03  0.61300000000E+03 0.  1.
         13    1    4    4    0    0  0.44665944606E+03  0.83803779494E+02  0.54906840406E+03  0.71274389349E+03  0.10566000000E+00 0.  1.
    -200003    1    4    4    0    0  0.16270735028E+03  0.11132096818E+03  0.11886921234E+03  0.23215496858E+03  0.30000000000E+02 0.  1.
    -200000    1    3    3    0    0 -0.61675520335E+02 -0.83496508600E+02  0.28299915499E+03  0.31790731115E+03  0.10100000000E+03 0.  1.
<mgrwt>
<rscale>  0 0.17579999E+04</rscale>
<asrwt>0</asrwt>
<pdfrwt beam="1">  1        2 0.23793375E+00 0.17579999E+04</pdfrwt>
<pdfrwt beam="2">  1       -2 0.66271311E-01 0.17579999E+04</pdfrwt>
<totfact> 0.23775890E+01</totfact>
</mgrwt>
</event>
<event>
 8    2  0.4480234E-052  0.1746705E+04  0.7818608E-02  0.8735166E-01
          2   -1    0    0  501    0  0.00000000000E+00  0.00000000000E+00  0.11539381273E+04  0.11539381273E+04  0.25500000000E-02 0.  1.
         -2   -1    0    0    0  501 -0.00000000000E+00 -0.00000000000E+00 -0.66099295623E+03  0.66099295623E+03  0.25500000000E-02 0. -1.
    -200001    2    1    2    0    0  0.28772256892E+03 -0.73414433345E+02  0.81484576144E+03  0.10615633475E+04  0.61218393490E+03 0.  0.
   -5000001    2    3    3    0    0  0.40637931513E+03  0.11311309944E+03  0.43999851185E+03  0.61481576281E+03  0.80380412683E+02 0.  0.
     200001    1    1    2    0    0 -0.28772256892E+03  0.73414433345E+02 -0.32190059033E+03  0.75336773606E+03  0.61300000000E+03 0. -1.
         13    1    4    4    0    0  0.27317586400E+03  0.10375960046E+03  0.31093690925E+03  0.42669998835E+03  0.10566000000E+00 0.  1.
    -200003    1    4    4    0    0  0.13320345114E+03  0.93534989792E+01  0.12906160260E+03  0.18811577446E+03  0.30000000000E+02 0.  1.
    -200000    1    3    3    0    0 -0.11865674621E+03 -0.18652753278E+03  0.37484724959E+03  0.44674758469E+03  0.10100000000E+03 0.  1.
<mgrwt>
<rscale>  0 0.17467054E+04</rscale>
<asrwt>0</asrwt>
<pdfrwt beam="1">  1        2 0.16484830E+00 0.17467054E+04</pdfrwt>
<pdfrwt beam="2">  1       -2 0.94427566E-01 0.17467054E+04</pdfrwt>
<totfact> 0.20420846E+01</totfact>
</mgrwt>
</event>
<event>
 8    2  0.4480234E-052  0.1542131E+04  0.7818608E-02  0.8856910E-01
         -2   -1    0    0    0  501 -0.00000000000E+00  0.00000000000E+00  0.20386266760E+03  0.20386266761E+03  0.25500000000E-02 0. -1.
          2   -1    0    0  501    0  0.00000000000E+00 -0.00000000000E+00 -0.29163831629E+04  0.29163831629E+04  0.25500000000E-02 0.  1.
    -200001    2    1    2    0    0  0.20304440020E+03  0.36390375148E+03 -0.17864447401E+04  0.19340593894E+04  0.61281966625E+03 0.  0.
   -5000001    2    3    3    0    0 -0.52765757973E+02  0.19866970914E+03 -0.16498646302E+03  0.28116221467E+03  0.97866130165E+02 0.  0.
     200001    1    1    2    0    0 -0.20304440020E+03 -0.36390375148E+03 -0.92607575518E+03  0.11861864411E+04  0.61300000000E+03 0. -1.
         13    1    4    4    0    0 -0.69390245387E+01  0.28900345467E+02 -0.76426604052E+02  0.82002542647E+02  0.10566000000E+00 0.  1.
    -200003    1    4    4    0    0 -0.45826733435E+02  0.16976936368E+03 -0.88559858969E+02  0.19915967203E+03  0.30000000000E+02 0.  1.
    -200000    1    3    3    0    0  0.25581015818E+03  0.16523404234E+03 -0.16214582771E+04  0.16528971747E+04  0.10100000000E+03 0.  1.
<mgrwt>
<rscale>  0 0.15421305E+04</rscale>
<asrwt>0</asrwt>
<pdfrwt beam="1">  1        2 0.41662614E+00 0.15421305E+04</pdfrwt>
<pdfrwt beam="2">  1       -2 0.29123240E-01 0.15421305E+04</pdfrwt>
<totfact> 0.27558475E+01</totfact>
</mgrwt>
</event>
<event>
 8    2  0.4480234E-052  0.1358564E+04  0.7818608E-02  0.8984371E-01
         -2   -1    0    0    0  501 -0.00000000000E+00  0.00000000000E+00  0.29177678911E+03  0.29177678912E+03  0.25500000000E-02 0. -1.
          2   -1    0    0  501    0  0.00000000000E+00 -0.00000000000E+00 -0.15814272899E+04  0.15814272899E+04  0.25500000000E-02 0.  1.
    -200001    2    1    2    0    0  0.14767805844E+02  0.20238139855E+02 -0.10469603096E+04  0.12134350291E+04  0.61292006780E+03 0.  0.
   -5000001    2    3    3    0    0  0.26849880165E+03  0.12635129029E+03 -0.65346345803E+03  0.72284335454E+03  0.86207709489E+02 0.  0.
     200001    1    1    2    0    0 -0.14767805844E+02 -0.20238139855E+02 -0.24269019121E+03  0.65976904998E+03  0.61300000000E+03 0. -1.
         13    1    4    4    0    0  0.97068382275E+02  0.71259696581E+02 -0.33202320626E+03  0.35318498815E+03  0.10566000000E+00 0.  1.
    -200003    1    4    4    0    0  0.17143041938E+03  0.55091593710E+02 -0.32144025177E+03  0.36965836639E+03  0.30000000000E+02 0.  1.
    -200000    1    3    3    0    0 -0.25373099581E+03 -0.10611315044E+03 -0.39349685156E+03  0.49059167453E+03  0.10100000000E+03 0. -1.
<mgrwt>
<rscale>  0 0.13585636E+04</rscale>
<asrwt>0</asrwt>
<pdfrwt beam="1">  1        2 0.22591818E+00 0.13585636E+04</pdfrwt>
<pdfrwt beam="2">  1       -2 0.41682399E-01 0.13585636E+04</pdfrwt>
<totfact> 0.70484702E+01</totfact>
</mgrwt>
</event>
<event>
 8    2  0.4480234E-052  0.1953706E+04  0.7818608E-02  0.8628576E-01
          2   -1    0    0  501    0  0.00000000000E+00  0.00000000000E+00  0.65828050353E+03  0.65828050353E+03  0.25500000000E-02 0. -1.
         -2   -1    0    0    0  501 -0.00000000000E+00 -0.00000000000E+00 -0.14495972545E+04  0.14495972545E+04  0.25500000000E-02 0.  1.
    -200001    2    1    2    0    0 -0.32982357227E+03  0.11514787413E+03 -0.11241277656E+04  0.13277657191E+04  0.61421164891E+03 0.  0.
   -5000001    2    3    3    0    0 -0.58688752092E+02 -0.15534494360E+03 -0.75864087707E+03  0.78882034074E+03  0.13829363139E+03 0.  0.
     200001    1    1    2    0    0  0.32982357227E+03 -0.11514787413E+03  0.33281101468E+03  0.78011203890E+03  0.61300000000E+03 0. -1.
         13    1    4    4    0    0  0.20041692073E+02  0.11954558170E+02 -0.41415060972E+02  0.47537346598E+02  0.10566000000E+00 0.  1.
    -200003    1    4    4    0    0 -0.78730444165E+02 -0.16729950177E+03 -0.71722581610E+03  0.74128299414E+03  0.30000000000E+02 0.  1.
    -200000    1    3    3    0    0 -0.27113482018E+03  0.27049281773E+03 -0.36548688855E+03  0.53894537837E+03  0.10100000000E+03 0.  1.
<mgrwt>
<rscale>  0 0.19537058E+04</rscale>
<asrwt>0</asrwt>
<pdfrwt beam="1">  1        2 0.94040073E-01 0.19537058E+04</pdfrwt>
<pdfrwt beam="2">  1       -2 0.20708532E+00 0.19537058E+04</pdfrwt>
<totfact> 0.54272118E+00</totfact>
</mgrwt>
</event>
<event>
 8    2  0.4480234E-052  0.1326191E+04  0.7818608E-02  0.9009050E-01
         -2   -1    0    0    0  501 -0.00000000000E+00  0.00000000000E+00  0.59822644193E+03  0.59822644194E+03  0.25500000000E-02 0. -1.
          2   -1    0    0  501    0  0.00000000000E+00 -0.00000000000E+00 -0.73499861240E+03  0.73499861241E+03  0.25500000000E-02 0.  1.
    -200001    2    1    2    0    0 -0.18280447651E+03  0.17441119735E+03 -0.14287546395E+02  0.65897864128E+03  0.60845046905E+03 0.  0.
   -5000001    2    3    3    0    0 -0.23261021708E+03  0.13299937324E+03  0.23838048013E+03  0.37926864397E+03  0.12338194610E+03 0.  0.
     200001    1    1    2    0    0  0.18280447651E+03 -0.17441119735E+03 -0.12248462408E+03  0.67424641306E+03  0.61300000000E+03 0. -1.
         13    1    4    4    0    0 -0.10663803744E+03  0.12633047934E+03  0.13440655705E+03  0.21306382795E+03  0.10566000000E+00 0.  1.
    -200003    1    4    4    0    0 -0.12597217964E+03  0.66688938985E+01  0.10397392308E+03  0.16620481602E+03  0.30000000000E+02 0.  1.
    -200000    1    3    3    0    0  0.49805740562E+02  0.41411824111E+02 -0.25266802652E+03  0.27970999731E+03  0.10100000000E+03 0.  1.
<mgrwt>
<rscale>  0 0.13261909E+04</rscale>
<asrwt>0</asrwt>
<pdfrwt beam="1">  1        2 0.10499980E+00 0.13261909E+04</pdfrwt>
<pdfrwt beam="2">  1       -2 0.85460920E-01 0.13261909E+04</pdfrwt>
<totfact> 0.49396900E+01</totfact>
</mgrwt>
</event>
<event>
 8    2  0.4480234E-052  0.1703203E+04  0.7818608E-02  0.8759540E-01
          2   -1    0    0  501    0  0.00000000000E+00  0.00000000000E+00  0.23103182906E+04  0.23103182906E+04  0.25500000000E-02 0.  1.
         -2   -1    0    0    0  501 -0.00000000000E+00 -0.00000000000E+00 -0.31390709813E+03  0.31390709814E+03  0.25500000000E-02 0. -1.
    -200001    2    1    2    0    0 -0.37924276469E+03 -0.41631475464E+03  0.12767291709E+04  0.15238371565E+04  0.61229017154E+03 0.  0.
   -5000001    2    3    3    0    0 -0.29430437167E+03  0.68954767682E+02  0.43219258171E+03  0.54091086709E+03  0.12010127095E+03 0.  0.
     200001    1    1    2    0    0  0.37924276469E+03  0.41631475464E+03  0.71968202155E+03  0.11003882322E+04  0.61300000000E+03 0. -1.
         13    1    4    4    0    0 -0.20803427341E+03  0.94139090991E+02  0.27581698625E+03  0.35807184815E+03  0.10566000000E+00 0.  1.
    -200003    1    4    4    0    0 -0.86270098252E+02 -0.25184323309E+02  0.15637559546E+03  0.18283901895E+03  0.30000000000E+02 0.  1.
    -200000    1    3    3    0    0 -0.84938393020E+02 -0.48526952232E+03  0.84453658918E+03  0.98292628939E+03  0.10100000000E+03 0.  1.
<mgrwt>
<rscale>  0 0.17032032E+04</rscale>
<asrwt>0</asrwt>
<pdfrwt beam="1">  1        2 0.33004546E+00 0.17032032E+04</pdfrwt>
<pdfrwt beam="2">  1       -2 0.44843873E-01 0.17032032E+04</pdfrwt>
<totfact> 0.24932236E+01</totfact>
</mgrwt>
</event>
<event>
 8    2  0.4480234E-052  0.1679621E+04  0.7818608E-02  0.8773073E-01
          2   -1    0    0  501    0  0.00000000000E+00  0.00000000000E+00  0.17532854666E+04  0.17532854666E+04  0.25500000000E-02 0.  1.
         -2   -1    0    0    0  501 -0.00000000000E+00 -0.00000000000E+00 -0.40226303712E+03  0.40226303713E+03  0.25500000000E-02 0. -1.
    -200001    2    1    2    0    0  0.28884359549E+03  0.24015504865E+03  0.12327674958E+04  0.14269482708E+04  0.61266679270E+03 0.  0.
   -5000001    2    3    3    0    0  0.14485216918E+03 -0.18671898629E+03  0.53328648709E+03  0.58883750601E+03  0.80554332053E+02 0.  0.
     200001    1    1    2    0    0 -0.28884359549E+03 -0.24015504865E+03  0.11825493370E+03  0.72860023291E+03  0.61300000000E+03 0. -1.
         13    1    4    4    0    0  0.43444479575E+02 -0.47967016957E+02  0.23023659958E+03  0.23915927845E+03  0.10566000000E+00 0.  1.
    -200003    1    4    4    0    0  0.10140768960E+03 -0.13875196934E+03  0.30304988751E+03  0.34967822756E+03  0.30000000000E+02 0.  1.
    -200000    1    3    3    0    0  0.14399142632E+03  0.42687403494E+03  0.69948100867E+03  0.83811076479E+03  0.10100000000E+03 0.  1.
<mgrwt>
<rscale>  0 0.16796213E+04</rscale>
<asrwt>0</asrwt>
<pdfrwt beam="1">  1        2 0.25046935E+00 0.16796213E+04</pdfrwt>
<pdfrwt beam="2">  1       -2 0.57466149E-01 0.16796213E+04</pdfrwt>
<totfact> 0.29156626E+01</totfact>
</mgrwt>
</event>
<event>
 8    2  0.4480234E-052  0.1591792E+04  0.7818608E-02  0.8825607E-01
          2   -1    0    0  501    0  0.00000000000E+00  0.00000000000E+00  0.78007346022E+03  0.78007346022E+03  0.25500000000E-02 0.  1.
         -2   -1    0    0    0  501 -0.00000000000E+00 -0.00000000000E+00 -0.81203897234E+03  0.81203897234E+03  0.25500000000E-02 0. -1.
    -200001    2    1    2    0    0  0.17502563186E+03  0.47135248623E+03 -0.91254779033E+02  0.79707070079E+03  0.61170836947E+03 0.  0.
   -5000001    2    3    3    0    0  0.79730301518E+02 -0.80709125112E+02  0.12555989447E+03  0.18792143719E+03  0.81720839450E+02 0.  0.
     200001    1    1    2    0    0 -0.17502563186E+03 -0.47135248623E+03  0.59289266912E+02  0.79504173177E+03  0.61300000000E+03 0.  1.
         13    1    4    4    0    0  0.80439219303E+02 -0.57882927847E+02  0.72318578781E+02  0.12268206609E+03  0.10566000000E+00 0.  1.
    -200003    1    4    4    0    0 -0.70891778523E+00 -0.22826197265E+02  0.53241315686E+02  0.65239371103E+02  0.30000000000E+02 0.  1.
    -200000    1    3    3    0    0  0.95295330346E+02  0.55206161134E+03 -0.21681467350E+03  0.60914926360E+03  0.10100000000E+03 0.  1.
<mgrwt>
<rscale>  0 0.15917915E+04</rscale>
<asrwt>0</asrwt>
<pdfrwt beam="1">  1        2 0.11143907E+00 0.15917915E+04</pdfrwt>
<pdfrwt beam="2">  1       -2 0.11600557E+00 0.15917915E+04</pdfrwt>
<totfact> 0.21799424E+01</totfact>
</mgrwt>
</event>
<event>
 8    2  0.4480234E-052  0.1708414E+04  0.7818608E-02  0.8756580E-01
          2   -1    0    0  501    0  0.00000000000E+00  0.00000000000E+00  0.24543024010E+04  0.24543024010E+04  0.25500000000E-02 0.  1.
         -2   -1    0    0    0  501 -0.00000000000E+00 -0.00000000000E+00 -0.29730207479E+03  0.29730207480E+03  0.25500000000E-02 0. -1.
    -200001    2    1    2    0    0 -0.36285295372E+02 -0.58853742601E+03  0.95082769485E+03  0.12756931163E+04  0.61288391823E+03 0.  0.
   -5000001    2    3    3    0    0 -0.29907488116E+03 -0.26932532967E+03  0.57608661891E+03  0.70860705331E+03  0.90918896663E+02 0.  0.
     200001    1    1    2    0    0  0.36285295372E+02  0.58853742601E+03  0.12061726314E+04  0.14759113595E+04  0.61300000000E+03 0. -1.
         13    1    4    4    0    0 -0.16094449162E+02 -0.10007791869E+01  0.53417508275E+02  0.55798514382E+02  0.10566000000E+00 0.  1.
    -200003    1    4    4    0    0 -0.28298043200E+03 -0.26832455049E+03  0.52266911064E+03  0.65280853893E+03  0.30000000000E+02 0.  1.
    -200000    1    3    3    0    0  0.26278958579E+03 -0.31921209633E+03  0.37474107594E+03  0.56708606299E+03  0.10100000000E+03 0.  1.
<mgrwt>
<rscale>  0 0.17084135E+04</rscale>
<asrwt>0</asrwt>
<pdfrwt beam="1">  1        2 0.35061463E+00 0.17084135E+04</pdfrwt>
<pdfrwt beam="2">  1       -2 0.42471725E-01 0.17084135E+04</pdfrwt>
<totfact> 0.23353809E+01</totfact>
</mgrwt>
</event>
<event>
 8    2  0.4480234E-052  0.1308409E+04  0.7818608E-02  0.9022923E-01
          2   -1    0    0  501    0  0.00000000000E+00  0.00000000000E+00  0.42357604354E+03  0.42357604355E+03  0.25500000000E-02 0.  1.
         -2   -1    0    0    0  501 -0.00000000000E+00 -0.00000000000E+00 -0.10104061617E+04  0.10104061617E+04  0.25500000000E-02 0. -1.
    -200001    2    1    2    0    0 -0.13249622953E+03 -0.12488116750E+03 -0.14442418466E+03  0.65639454662E+03  0.61387694115E+03 0.  0.
   -5000001    2    3    3    0    0  0.20198792868E+03 -0.16352980742E+03 -0.10337915970E+03  0.30247497449E+03  0.11516396263E+03 0.  0.
     200001    1    1    2    0    0  0.13249622953E+03  0.12488116750E+03 -0.44240593345E+03  0.77758765859E+03  0.61300000000E+03 0. -1.
         13    1    4    4    0    0 -0.11810787537E+02 -0.23752411610E+02 -0.15278008702E+02  0.30612096849E+02  0.10566000000E+00 0.  1.
    -200003    1    4    4    0    0  0.21379871621E+03 -0.13977739581E+03 -0.88101150993E+02  0.27186287764E+03  0.30000000000E+02 0.  1.
    -200000    1    3    3    0    0 -0.33448415821E+03  0.38648639920E+02 -0.41045024967E+02  0.35391957213E+03  0.10100000000E+03 0.  1.
<mgrwt>
<rscale>  0 0.13084095E+04</rscale>
<asrwt>0</asrwt>
<pdfrwt beam="1">  1        2 0.60510864E-01 0.13084095E+04</pdfrwt>
<pdfrwt beam="2">  1       -2 0.14434374E+00 0.13084095E+04</pdfrwt>
<totfact> 0.26354935E+01</totfact>
</mgrwt>
</event>
<event>
 8    2  0.4480234E-052  0.1528831E+04  0.7818608E-02  0.8865504E-01
          2   -1    0    0  501    0  0.00000000000E+00  0.00000000000E+00  0.21923748879E+03  0.21923748881E+03  0.25500000000E-02 0.  1.
         -2   -1    0    0    0  501 -0.00000000000E+00 -0.00000000000E+00 -0.26652894235E+04  0.26652894235E+04  0.25500000000E-02 0. -1.
    -200001    2    1    2    0    0 -0.21157866030E+03  0.37723693027E+03 -0.14994369279E+04  0.16766683932E+04  0.61305184851E+03 0.  0.
   -5000001    2    3    3    0    0 -0.30858181764E+03 -0.26053175260E+02 -0.75620093096E+03  0.81954922477E+03  0.62606530915E+02 0.  0.
     200001    1    1    2    0    0  0.21157866030E+03 -0.37723693027E+03 -0.94661500679E+03  0.12078585191E+04  0.61300000000E+03 0.  1.
         13    1    4    4    0    0 -0.23111653790E+03 -0.25842612396E+02 -0.54066960378E+03  0.58856293319E+03  0.10566000000E+00 0.  1.
    -200003    1    4    4    0    0 -0.77465279734E+02 -0.21056286444E+00 -0.21553132718E+03  0.23098629158E+03  0.30000000000E+02 0. -1.
    -200000    1    3    3    0    0  0.97003157340E+02  0.40329010553E+03 -0.74323599696E+03  0.85711916845E+03  0.10100000000E+03 0. -1.
<mgrwt>
<rscale>  0 0.15288314E+04</rscale>
<asrwt>0</asrwt>
<pdfrwt beam="1">  1        2 0.31319643E-01 0.15288314E+04</pdfrwt>
<pdfrwt beam="2">  1       -2 0.38075561E+00 0.15288314E+04</pdfrwt>
<totfact> 0.16355655E+00</totfact>
</mgrwt>
</event>
<event>
 8    2  0.4480234E-052  0.1648555E+04  0.7818608E-02  0.8791262E-01
         -2   -1    0    0    0  501 -0.00000000000E+00  0.00000000000E+00  0.44376629265E+03  0.44376629266E+03  0.25500000000E-02 0. -1.
          2   -1    0    0  501    0  0.00000000000E+00 -0.00000000000E+00 -0.15310621158E+04  0.15310621158E+04  0.25500000000E-02 0.  1.
    -200001    2    1    2    0    0 -0.12838682648E+03 -0.36659363772E+03 -0.75595015058E+02  0.72976551949E+03  0.61316313873E+03 0.  0.
   -5000001    2    3    3    0    0 -0.11838749582E+03 -0.51848397355E+03 -0.88286958664E+02  0.54664603346E+03  0.90476896676E+02 0.  0.
     200001    1    1    2    0    0  0.12838682648E+03  0.36659363772E+03 -0.10117008081E+04  0.12450628890E+04  0.61300000000E+03 0.  1.
         13    1    4    4    0    0 -0.20574914266E+02 -0.23176444644E+02  0.75128981077E+01  0.31889331843E+02  0.10566000000E+00 0.  1.
    -200003    1    4    4    0    0 -0.97812581554E+02 -0.49530752890E+03 -0.95799856771E+02  0.51475670161E+03  0.30000000000E+02 0.  1.
    -200000    1    3    3    0    0 -0.99993306599E+01  0.15189033583E+03  0.12691943606E+02  0.18311948603E+03  0.10100000000E+03 0.  1.
<mgrwt>
<rscale>  0 0.16485554E+04</rscale>
<asrwt>0</asrwt>
<pdfrwt beam="1">  1        2 0.21872316E+00 0.16485554E+04</pdfrwt>
<pdfrwt beam="2">  1       -2 0.63395186E-01 0.16485554E+04</pdfrwt>
<totfact> 0.31038203E+01</totfact>
</mgrwt>
</event>
<event>
 8    2  0.4480234E-052  0.1740482E+04  0.7818608E-02  0.8738607E-01
         -2   -1    0    0    0  501 -0.00000000000E+00  0.00000000000E+00  0.95141851375E+03  0.95141851375E+03  0.25500000000E-02 0. -1.
          2   -1    0    0  501    0  0.00000000000E+00 -0.00000000000E+00 -0.79598982710E+03  0.79598982710E+03  0.25500000000E-02 0.  1.
    -200001    2    1    2    0    0  0.39937141421E+03  0.45759541523E+03 -0.37552369506E+02  0.86315623961E+03  0.61215800492E+03 0.  0.
   -5000001    2    3    3    0    0 -0.10419171017E+03  0.24562960565E+03  0.72454993471E+02  0.29675713599E+03  0.10782048061E+03 0.  0.
     200001    1    1    2    0    0 -0.39937141421E+03 -0.45759541523E+03  0.19298105615E+03  0.88425210125E+03  0.61300000000E+03 0. -1.
         13    1    4    4    0    0 -0.99580905425E+02  0.22163678239E+03  0.39985685966E+02  0.24624801782E+03  0.10566000000E+00 0.  1.
    -200003    1    4    4    0    0 -0.46108047496E+01  0.23992823263E+02  0.32469307505E+02  0.50509118171E+02  0.30000000000E+02 0. -1.
    -200000    1    3    3    0    0  0.50356312439E+03  0.21196580957E+03 -0.11000736298E+03  0.56639910362E+03  0.10100000000E+03 0.  1.
<mgrwt>
<rscale>  0 0.17404821E+04</rscale>
<asrwt>0</asrwt>
<pdfrwt beam="1">  1        2 0.11371283E+00 0.17404821E+04</pdfrwt>
<pdfrwt beam="2">  1       -2 0.13591693E+00 0.17404821E+04</pdfrwt>
<totfact> 0.14108087E+01</totfact>
</mgrwt>
</event>
<event>
 8    2  0.4480234E-052  0.1501162E+04  0.7818608E-02  0.8883680E-01
          2   -1    0    0  501    0  0.00000000000E+00  0.00000000000E+00  0.14194880434E+04  0.14194880434E+04  0.25500000000E-02 0.  1.
         -2   -1    0    0    0  501 -0.00000000000E+00 -0.00000000000E+00 -0.39688402668E+03  0.39688402668E+03  0.25500000000E-02 0. -1.
    -200001    2    1    2    0    0 -0.41331215416E+02  0.42732281246E+03  0.58727637335E+03  0.95058213452E+03  0.61188217848E+03 0.  0.
   -5000001    2    3    3    0    0 -0.18091365108E+03  0.11476090298E+03  0.54513407673E+03  0.59120047559E+03  0.80293379127E+02 0.  0.
     200001    1    1    2    0    0  0.41331215416E+02 -0.42732281246E+03  0.43532764334E+03  0.86578993554E+03  0.61300000000E+03 0. -1.
         13    1    4    4    0    0 -0.71620311707E+01 -0.67195338825E+01  0.70807379767E+01  0.12107635625E+02  0.10566000000E+00 0.  1.
    -200003    1    4    4    0    0 -0.17375161991E+03  0.12148043687E+03  0.53805333875E+03  0.57909283997E+03  0.30000000000E+02 0.  1.
    -200000    1    3    3    0    0  0.13958243567E+03  0.31256190948E+03  0.42142296623E+02  0.35938165892E+03  0.10100000000E+03 0. -1.
<mgrwt>
<rscale>  0 0.15011624E+04</rscale>
<asrwt>0</asrwt>
<pdfrwt beam="1">  1        2 0.20278401E+00 0.15011624E+04</pdfrwt>
<pdfrwt beam="2">  1       -2 0.56697718E-01 0.15011624E+04</pdfrwt>
<totfact> 0.45585527E+01</totfact>
</mgrwt>
</event>
<event>
 8    2  0.4480234E-052  0.1333183E+04  0.7818608E-02  0.9003657E-01
         -2   -1    0    0    0  501 -0.00000000000E+00  0.00000000000E+00  0.17697134645E+03  0.17697134647E+03  0.25500000000E-02 0. -1.
          2   -1    0    0  501    0  0.00000000000E+00 -0.00000000000E+00 -0.25108248426E+04  0.25108248426E+04  0.25500000000E-02 0.  1.
    -200001    2    1    2    0    0  0.16290900598E+03 -0.58136872854E+02 -0.75393266534E+03  0.98431796149E+03  0.60872665888E+03 0.  0.
   -5000001    2    3    3    0    0  0.18205064145E+03 -0.20383584279E+03 -0.10516166329E+03  0.31148855877E+03  0.10618220173E+03 0.  0.
     200001    1    1    2    0    0 -0.16290900598E+03  0.58136872854E+02 -0.15799208308E+04  0.17034782276E+04  0.61300000000E+03 0.  1.
         13    1    4    4    0    0  0.56963899002E+02 -0.13243868880E+03 -0.69803875260E+02  0.16017953753E+03  0.10566000000E+00 0.  1.
    -200003    1    4    4    0    0  0.12508674245E+03 -0.71397153997E+02 -0.35357788027E+02  0.15130902124E+03  0.30000000000E+02 0.  1.
    -200000    1    3    3    0    0 -0.19141635472E+02  0.14569896994E+03 -0.64877100206E+03  0.67282940272E+03  0.10100000000E+03 0.  1.
<mgrwt>
<rscale>  0 0.13331827E+04</rscale>
<asrwt>0</asrwt>
<pdfrwt beam="1">  1        2 0.35868924E+00 0.13331827E+04</pdfrwt>
<pdfrwt beam="2">  1       -2 0.25281622E-01 0.13331827E+04</pdfrwt>
<totfact> 0.60020279E+01</totfact>
</mgrwt>
</event>
<event>
 8    2  0.4480234E-052  0.1380208E+04  0.7818608E-02  0.8968271E-01
         -2   -1    0    0    0  501 -0.00000000000E+00  0.00000000000E+00  0.14047012256E+03  0.14047012259E+03  0.25500000000E-02 0. -1.
          2   -1    0    0  501    0  0.00000000000E+00 -0.00000000000E+00 -0.33903566613E+04  0.33903566613E+04  0.25500000000E-02 0.  1.
    -200001    2    1    2    0    0 -0.14172127348E+03 -0.22907241355E+03 -0.20494968408E+04  0.21563219578E+04  0.61378171632E+03 0.  0.
   -5000001    2    3    3    0    0  0.22033993255E+03 -0.13562429714E+02 -0.72376825227E+03  0.76158536601E+03  0.86244775846E+02 0.  0.
     200001    1    1    2    0    0  0.14172127348E+03  0.22907241355E+03 -0.12003896980E+04  0.13745048261E+04  0.61300000000E+03 0. -1.
         13    1    4    4    0    0  0.17429341892E+03 -0.33878288062E+02 -0.57087798947E+03  0.59785251049E+03  0.10566000000E+00 0.  1.
    -200003    1    4    4    0    0  0.46046513630E+02  0.20315858348E+02 -0.15289026280E+03  0.16373285552E+03  0.30000000000E+02 0. -1.
    -200000    1    3    3    0    0 -0.36206120604E+03 -0.21550998384E+03 -0.13257285885E+04  0.13947365918E+04  0.10100000000E+03 0. -1.
<mgrwt>
<rscale>  0 0.13802084E+04</rscale>
<asrwt>0</asrwt>
<pdfrwt beam="1">  1        2 0.48433662E+00 0.13802084E+04</pdfrwt>
<pdfrwt beam="2">  1       -2 0.20067162E-01 0.13802084E+04</pdfrwt>
<totfact> 0.29397831E+01</totfact>
</mgrwt>
</event>
<event>
 8    2  0.4480234E-052  0.1307224E+04  0.7818608E-02  0.9023856E-01
          2   -1    0    0  501    0  0.00000000000E+00  0.00000000000E+00  0.23489977310E+04  0.23489977310E+04  0.25500000000E-02 0.  1.
         -2   -1    0    0    0  501 -0.00000000000E+00 -0.00000000000E+00 -0.18186834074E+03  0.18186834076E+03  0.25500000000E-02 0. -1.
    -200001    2    1    2    0    0  0.30082833838E+02  0.12240602391E+03  0.14574181145E+04  0.15846381360E+04  0.60919803825E+03 0.  0.
   -5000001    2    3    3    0    0 -0.89115039129E+02  0.28176610732E+03  0.54283487715E+03  0.64322044588E+03  0.17812694550E+03 0.  0.
     200001    1    1    2    0    0 -0.30082833838E+02 -0.12240602391E+03  0.70971127571E+03  0.94622793578E+03  0.61300000000E+03 0. -1.
         13    1    4    4    0    0 -0.10791135584E+03  0.20271623858E+03  0.49157858548E+03  0.54257557167E+03  0.10566000000E+00 0.  1.
    -200003    1    4    4    0    0  0.18796316710E+02  0.79049868740E+02  0.51256291675E+02  0.10064487422E+03  0.30000000000E+02 0.  1.
    -200000    1    3    3    0    0  0.11919787297E+03 -0.15936008342E+03  0.91458323737E+03  0.94141769007E+03  0.10100000000E+03 0. -1.
<mgrwt>
<rscale>  0 0.13072235E+04</rscale>
<asrwt>0</asrwt>
<pdfrwt beam="1">  1        2 0.33557110E+00 0.13072235E+04</pdfrwt>
<pdfrwt beam="2">  1       -2 0.25981192E-01 0.13072235E+04</pdfrwt>
<totfact> 0.69506484E+01</totfact>
</mgrwt>
</event>
<event>
 8    2  0.4480234E-052  0.1632136E+04  0.7818608E-02  0.8801045E-01
         -2   -1    0    0    0  501 -0.00000000000E+00  0.00000000000E+00  0.40222026790E+03  0.40222026791E+03  0.25500000000E-02 0. -1.
          2   -1    0    0  501    0  0.00000000000E+00 -0.00000000000E+00 -0.16557278502E+04  0.16557278502E+04  0.25500000000E-02 0.  1.
    -200001    2    1    2    0    0  0.53091004374E+03  0.39909616260E+02 -0.73009479761E+03  0.10919314541E+04  0.61303966829E+03 0.  0.
   -5000001    2    3    3    0    0  0.42876340906E+03  0.46701950095E+02 -0.10503765976E+03  0.45054428836E+03  0.77059150716E+02 0.  0.
     200001    1    1    2    0    0 -0.53091004374E+03 -0.39909616260E+02 -0.52341278470E+03  0.96601666404E+03  0.61300000000E+03 0. -1.
         13    1    4    4    0    0  0.14995645326E+03  0.39635755042E+02 -0.14466862415E+02  0.15577943454E+03  0.10566000000E+00 0.  1.
    -200003    1    4    4    0    0  0.27880695580E+03  0.70661950532E+01 -0.90570797342E+02  0.29476485382E+03  0.30000000000E+02 0.  1.
    -200000    1    3    3    0    0  0.10214663468E+03 -0.67923338354E+01 -0.62505713785E+03  0.64138716573E+03  0.10100000000E+03 0.  1.
<mgrwt>
<rscale>  0 0.16321364E+04</rscale>
<asrwt>0</asrwt>
<pdfrwt beam="1">  1        2 0.23653255E+00 0.16321364E+04</pdfrwt>
<pdfrwt beam="2">  1       -2 0.57460039E-01 0.16321364E+04</pdfrwt>
<totfact> 0.32899187E+01</totfact>
</mgrwt>
</event>
<event>
 8    2  0.4480234E-052  0.1511765E+04  0.7818608E-02  0.8876667E-01
          2   -1    0    0  501    0  0.00000000000E+00  0.00000000000E+00  0.14432796057E+04  0.14432796057E+04  0.25500000000E-02 0.  1.
         -2   -1    0    0    0  501 -0.00000000000E+00 -0.00000000000E+00 -0.39587481019E+03  0.39587481020E+03  0.25500000000E-02 0. -1.
    -200001    2    1    2    0    0  0.20493367975E+03  0.39045682048E+03  0.49265565725E+03  0.90215390997E+03  0.61377336118E+03 0.  0.
   -5000001    2    3    3    0    0  0.17971404332E+03 -0.20432582373E+02  0.39751266935E+03  0.46773554067E+03  0.16746816389E+03 0.  0.
     200001    1    1    2    0    0 -0.20493367975E+03 -0.39045682048E+03  0.55474913830E+03  0.93700050598E+03  0.61300000000E+03 0.  1.
         13    1    4    4    0    0 -0.10071630981E+02 -0.50629627058E+02  0.73236296604E+02  0.89601133871E+02  0.10566000000E+00 0.  1.
    -200003    1    4    4    0    0  0.18978567431E+03  0.30197044685E+02  0.32427637275E+03  0.37813440680E+03  0.30000000000E+02 0.  1.
    -200000    1    3    3    0    0  0.25219636429E+02  0.41088940286E+03  0.95142987900E+02  0.43441836930E+03  0.10100000000E+03 0. -1.
<mgrwt>
<rscale>  0 0.15117646E+04</rscale>
<asrwt>0</asrwt>
<pdfrwt beam="1">  1        2 0.20618280E+00 0.15117646E+04</pdfrwt>
<pdfrwt beam="2">  1       -2 0.56553544E-01 0.15117646E+04</pdfrwt>
<totfact> 0.44460992E+01</totfact>
</mgrwt>
</event>
<event>
 8    2  0.4480234E-052  0.1491201E+04  0.7818608E-02  0.8890325E-01
          2   -1    0    0  501    0  0.00000000000E+00  0.00000000000E+00  0.18924341468E+04  0.18924341468E+04  0.25500000000E-02 0.  1.
         -2   -1    0    0    0  501 -0.00000000000E+00 -0.00000000000E+00 -0.29375947237E+03  0.29375947238E+03  0.25500000000E-02 0. -1.
    -200001    2    1    2    0    0  0.29247810038E+03 -0.14773679059E+03  0.11942989514E+04  0.13820429343E+04  0.61345178185E+03 0.  0.
   -5000001    2    3    3    0    0  0.31942684963E+03 -0.14109472440E+03  0.12223608697E+04  0.12736048258E+04  0.77213489830E+02 0.  0.
     200001    1    1    2    0    0 -0.29247810038E+03  0.14773679059E+03  0.40437572306E+03  0.80415068482E+03  0.61300000000E+03 0. -1.
         13    1    4    4    0    0  0.26555814980E+03 -0.12499466547E+03  0.98020399557E+03  0.10232031477E+04  0.10566000000E+00 0.  1.
    -200003    1    4    4    0    0  0.53868699830E+02 -0.16100058933E+02  0.24215687411E+03  0.25040167811E+03  0.30000000000E+02 0. -1.
    -200000    1    3    3    0    0 -0.26948749242E+02 -0.66420661847E+01 -0.28061918319E+02  0.10843810856E+03  0.10100000000E+03 0. -1.
<mgrwt>
<rscale>  0 0.14912015E+04</rscale>
<asrwt>0</asrwt>
<pdfrwt beam="1">  1        2 0.27034773E+00 0.14912015E+04</pdfrwt>
<pdfrwt beam="2">  1       -2 0.41965639E-01 0.14912015E+04</pdfrwt>
<totfact> 0.47489536E+01</totfact>
</mgrwt>
</event>
<event>
 8    2  0.4480234E-052  0.1371446E+04  0.7818608E-02  0.8974751E-01
          2   -1    0    0  501    0  0.00000000000E+00  0.00000000000E+00  0.64854108255E+03  0.64854108256E+03  0.25500000000E-02 0.  1.
         -2   -1    0    0    0  501 -0.00000000000E+00 -0.00000000000E+00 -0.72503630430E+03  0.72503630430E+03  0.25500000000E-02 0. -1.
    -200001    2    1    2    0    0  0.82542371341E+02  0.83913947596E+02  0.24560247177E+03  0.67117385766E+03  0.61343213104E+03 0.  0.
   -5000001    2    3    3    0    0 -0.56714179585E+02  0.12909664675E+03 -0.11325265141E+03  0.27065936015E+03  0.20136505114E+03 0.  0.
     200001    1    1    2    0    0 -0.82542371341E+02 -0.83913947596E+02 -0.32209769351E+03  0.70240352920E+03  0.61300000000E+03 0. -1.
         13    1    4    4    0    0  0.64400818523E+02 -0.38914170791E+00 -0.16588871452E+02  0.66504275635E+02  0.10566000000E+00 0.  1.
    -200003    1    4    4    0    0 -0.12111499811E+03  0.12948578845E+03 -0.96663779958E+02  0.20415508452E+03  0.30000000000E+02 0.  1.
    -200000    1    3    3    0    0  0.13925655093E+03 -0.45182699149E+02  0.35885512318E+03  0.40051449750E+03  0.10100000000E+03 0.  1.
<mgrwt>
<rscale>  0 0.13714457E+04</rscale>
<asrwt>0</asrwt>
<pdfrwt beam="1">  1        2 0.92648726E-01 0.13714457E+04</pdfrwt>
<pdfrwt beam="2">  1       -2 0.10357661E+00 0.13714457E+04</pdfrwt>
<totfact> 0.36674965E+01</totfact>
</mgrwt>
</event>
<event>
 8    2  0.4480234E-052  0.1512670E+04  0.7818608E-02  0.8876071E-01
         -2   -1    0    0    0  501 -0.00000000000E+00  0.00000000000E+00  0.31446656808E+03  0.31446656809E+03  0.25500000000E-02 0. -1.
          2   -1    0    0  501    0  0.00000000000E+00 -0.00000000000E+00 -0.18190895742E+04  0.18190895742E+04  0.25500000000E-02 0.  1.
    -200001    2    1    2    0    0 -0.42865835227E+03 -0.10930736922E+03 -0.75357176765E+03  0.10679375207E+04  0.61394141020E+03 0.  0.
   -5000001    2    3    3    0    0 -0.44555745883E+03 -0.22662575389E+03 -0.32538259270E+03  0.61231031263E+03  0.13845362357E+03 0.  0.
     200001    1    1    2    0    0  0.42865835227E+03  0.10930736922E+03 -0.75105123851E+03  0.10656186217E+04  0.61300000000E+03 0. -1.
         13    1    4    4    0    0 -0.35227741796E+03 -0.19390514628E+03 -0.19775487924E+03  0.44811336555E+03  0.10566000000E+00 0.  1.
    -200003    1    4    4    0    0 -0.93280040872E+02 -0.32720607604E+02 -0.12762771347E+03  0.16419694708E+03  0.30000000000E+02 0.  1.
    -200000    1    3    3    0    0  0.16899106553E+02  0.11731838467E+03 -0.42818917494E+03  0.45562720806E+03  0.10100000000E+03 0.  1.
<mgrwt>
<rscale>  0 0.15126703E+04</rscale>
<asrwt>0</asrwt>
<pdfrwt beam="1">  1        2 0.25986993E+00 0.15126703E+04</pdfrwt>
<pdfrwt beam="2">  1       -2 0.44923796E-01 0.15126703E+04</pdfrwt>
<totfact> 0.45183177E+01</totfact>
</mgrwt>
</event>
<event>
 8    2  0.4480234E-052  0.1299957E+04  0.7818608E-02  0.9029599E-01
          2   -1    0    0  501    0  0.00000000000E+00  0.00000000000E+00  0.12313765080E+04  0.12313765080E+04  0.25500000000E-02 0.  1.
         -2   -1    0    0    0  501 -0.00000000000E+00 -0.00000000000E+00 -0.34308950872E+03  0.34308950873E+03  0.25500000000E-02 0. -1.
    -200001    2    1    2    0    0  0.18375112684E+02 -0.51635680887E+01  0.70423616884E+03  0.93414733404E+03  0.61344792199E+03 0.  0.
   -5000001    2    3    3    0    0  0.20405154992E+03 -0.17862203515E+03  0.33871036678E+03  0.47766766186E+03  0.19974688021E+03 0.  0.
     200001    1    1    2    0    0 -0.18375112684E+02  0.51635680887E+01  0.18405083041E+03  0.64031868267E+03  0.61300000000E+03 0. -1.
         13    1    4    4    0    0  0.77873656844E+02 -0.19125557331E+03  0.20782980956E+03  0.29297822727E+03  0.10566000000E+00 0.  1.
    -200003    1    4    4    0    0  0.12617789308E+03  0.12633538154E+02  0.13088055722E+03  0.18468943458E+03  0.30000000000E+02 0.  1.
    -200000    1    3    3    0    0 -0.18567643724E+03  0.17345846706E+03  0.36552580207E+03  0.45647967218E+03  0.10100000000E+03 0.  1.
<mgrwt>
<rscale>  0 0.12999575E+04</rscale>
<asrwt>0</asrwt>
<pdfrwt beam="1">  1        2 0.17591093E+00 0.12999575E+04</pdfrwt>
<pdfrwt beam="2">  1       -2 0.49012786E-01 0.12999575E+04</pdfrwt>
<totfact> 0.79263533E+01</totfact>
</mgrwt>
</event>
<event>
 8    2  0.4480234E-052  0.2657837E+04  0.7818608E-02  0.8348816E-01
         -2   -1    0    0    0  501 -0.00000000000E+00  0.00000000000E+00  0.99148622525E+03  0.99148622526E+03  0.25500000000E-02 0. -1.
          2   -1    0    0  501    0  0.00000000000E+00 -0.00000000000E+00 -0.17811893912E+04  0.17811893912E+04  0.25500000000E-02 0.  1.
    -200001    2    1    2    0    0  0.43657496421E+02  0.96219601128E+03  0.31339004388E+03  0.11851269493E+04  0.61529295883E+03 0.  0.
   -5000001    2    3    3    0    0  0.94547503533E+02  0.77154049995E+03  0.46897386906E+03  0.91430109475E+03  0.10860952314E+03 0.  0.
     200001    1    1    2    0    0 -0.43657496421E+02 -0.96219601128E+03 -0.11030932098E+04  0.15875486672E+04  0.61300000000E+03 0.  1.
         13    1    4    4    0    0  0.52423847284E+02  0.15101226528E+03  0.12505443852E+03  0.20295710824E+03  0.10566000000E+00 0.  1.
    -200003    1    4    4    0    0  0.42123656249E+02  0.62052823467E+03  0.34391943054E+03  0.71134398651E+03  0.30000000000E+02 0.  1.
    -200000    1    3    3    0    0 -0.50890007112E+02  0.19065551133E+03 -0.15558382518E+03  0.27082585453E+03  0.10100000000E+03 0.  1.
<mgrwt>
<rscale>  0 0.26578373E+04</rscale>
<asrwt>0</asrwt>
<pdfrwt beam="1">  1        2 0.25445563E+00 0.26578373E+04</pdfrwt>
<pdfrwt beam="2">  1       -2 0.14164089E+00 0.26578373E+04</pdfrwt>
<totfact> 0.32145112E+00</totfact>
</mgrwt>
</event>
<event>
 8    2  0.4480234E-052  0.2680944E+04  0.7818608E-02  0.8341215E-01
          2   -1    0    0  501    0  0.00000000000E+00  0.00000000000E+00  0.27519596892E+04  0.27519596892E+04  0.25500000000E-02 0.  1.
         -2   -1    0    0    0  501 -0.00000000000E+00 -0.00000000000E+00 -0.65293999425E+03  0.65293999426E+03  0.25500000000E-02 0. -1.
    -200001    2    1    2    0    0 -0.55194453570E+03 -0.77599785394E+03  0.13909673373E+03  0.11413002371E+04  0.61351682128E+03 0.  0.
   -5000001    2    3    3    0    0 -0.55100527138E+03 -0.80685946939E+03  0.18589085060E+02  0.98106161840E+03  0.86644864680E+02 0.  0.
     200001    1    1    2    0    0  0.55194453570E+03  0.77599785394E+03  0.19599229612E+04  0.22635994464E+04  0.61300000000E+03 0.  1.
         13    1    4    4    0    0 -0.12183512430E+03 -0.23104130881E+03 -0.13643179073E+02  0.26155311389E+03  0.10566000000E+00 0.  1.
    -200003    1    4    4    0    0 -0.42917014707E+03 -0.57581816059E+03  0.32232264133E+02  0.71950850450E+03  0.30000000000E+02 0.  1.
    -200000    1    3    3    0    0 -0.93926432002E+00  0.30861615456E+02  0.12050764867E+03  0.16023861867E+03  0.10100000000E+03 0.  1.
<mgrwt>
<rscale>  0 0.26809435E+04</rscale>
<asrwt>0</asrwt>
<pdfrwt beam="1">  1        2 0.39313709E+00 0.26809435E+04</pdfrwt>
<pdfrwt beam="2">  1       -2 0.93277144E-01 0.26809435E+04</pdfrwt>
<totfact> 0.27782840E+00</totfact>
</mgrwt>
</event>
<event>
 8    2  0.4480234E-052  0.2305973E+04  0.7818608E-02  0.8475570E-01
          2   -1    0    0  501    0  0.00000000000E+00  0.00000000000E+00  0.96247827781E+03  0.96247827782E+03  0.25500000000E-02 0.  1.
         -2   -1    0    0    0  501 -0.00000000000E+00 -0.00000000000E+00 -0.13812035043E+04  0.13812035043E+04  0.25500000000E-02 0. -1.
    -200001    2    1    2    0    0 -0.81119036797E+03  0.53337120340E+03 -0.10205482994E+03  0.11526470246E+04  0.61291542747E+03 0.  0.
   -5000001    2    3    3    0    0 -0.55066588477E+02  0.94041644703E+02 -0.22675117348E+03  0.26355546058E+03  0.78544420712E+02 0.  0.
     200001    1    1    2    0    0  0.81119036797E+03 -0.53337120340E+03 -0.31667039659E+03  0.11910347576E+04  0.61300000000E+03 0.  1.
         13    1    4    4    0    0 -0.50629442905E+01  0.73971237883E+01  0.43399873295E+01  0.99597941387E+01  0.10566000000E+00 0.  1.
    -200003    1    4    4    0    0 -0.50003644186E+02  0.86644520915E+02 -0.23109116081E+03  0.25359566645E+03  0.30000000000E+02 0.  1.
    -200000    1    3    3    0    0 -0.75612377949E+03  0.43932955870E+03  0.12469634354E+03  0.88909156399E+03  0.10100000000E+03 0.  1.
<mgrwt>
<rscale>  0 0.23059734E+04</rscale>
<asrwt>0</asrwt>
<pdfrwt beam="1">  1        2 0.13749690E+00 0.23059734E+04</pdfrwt>
<pdfrwt beam="2">  1       -2 0.19731479E+00 0.23059734E+04</pdfrwt>
<totfact> 0.37382296E+00</totfact>
</mgrwt>
</event>
<event>
 8    2  0.4480234E-052  0.1238250E+04  0.7818608E-02  0.9080019E-01
          2   -1    0    0  501    0  0.00000000000E+00  0.00000000000E+00  0.31006622787E+03  0.31006622788E+03  0.25500000000E-02 0.  1.
         -2   -1    0    0    0  501 -0.00000000000E+00 -0.00000000000E+00 -0.12362392570E+04  0.12362392570E+04  0.25500000000E-02 0. -1.
    -200001    2    1    2    0    0  0.11473351166E+02  0.58528467948E+02 -0.38466488891E+03  0.72620958485E+03  0.61307101140E+03 0.  0.
   -5000001    2    3    3    0    0  0.13016076970E+03  0.26023344017E+03 -0.56976654552E+02  0.31105638653E+03  0.94055659510E+02 0.  0.
     200001    1    1    2    0    0 -0.11473351166E+02 -0.58528467948E+02 -0.54150814023E+03  0.82009590005E+03  0.61300000000E+03 0.  1.
         13    1    4    4    0    0  0.44227708451E+02  0.19332804886E+02 -0.94927085277E+01  0.49193192810E+02  0.10566000000E+00 0.  1.
    -200003    1    4    4    0    0  0.85933061251E+02  0.24090063528E+03 -0.47483946024E+02  0.26186319372E+03  0.30000000000E+02 0.  1.
    -200000    1    3    3    0    0 -0.11868741854E+03 -0.20170497222E+03 -0.32768823436E+03  0.41515319832E+03  0.10100000000E+03 0. -1.
<mgrwt>
<rscale>  0 0.12382504E+04</rscale>
<asrwt>0</asrwt>
<pdfrwt beam="1">  1        2 0.44295176E-01 0.12382504E+04</pdfrwt>
<pdfrwt beam="2">  1       -2 0.17660561E+00 0.12382504E+04</pdfrwt>
<totfact> 0.21665209E+01</totfact>
</mgrwt>
</event>
<event>
 8    2  0.4480234E-052  0.1466397E+04  0.7818608E-02  0.8907112E-01
         -2   -1    0    0    0  501 -0.00000000000E+00  0.00000000000E+00  0.76040586881E+03  0.76040586881E+03  0.25500000000E-02 0. -1.
          2   -1    0    0  501    0  0.00000000000E+00 -0.00000000000E+00 -0.70696416723E+03  0.70696416723E+03  0.25500000000E-02 0.  1.
    -200001    2    1    2    0    0  0.19305690635E+03  0.21540071674E+03  0.30584417011E+03  0.74408278745E+03  0.61355529525E+03 0.  0.
   -5000001    2    3    3    0    0  0.13281788073E+03  0.21477522353E+03 -0.12956883439E+03  0.29306769243E+03  0.73017829433E+02 0.  0.
     200001    1    1    2    0    0 -0.19305690635E+03 -0.21540071674E+03 -0.25240246852E+03  0.72328724859E+03  0.61300000000E+03 0.  1.
         13    1    4    4    0    0  0.11315932538E+02  0.72341703172E+02 -0.38496768875E+02  0.82724752794E+02  0.10566000000E+00 0.  1.
    -200003    1    4    4    0    0  0.12150194819E+03  0.14243352036E+03 -0.91072065517E+02  0.21034293963E+03  0.30000000000E+02 0.  1.
    -200000    1    3    3    0    0  0.60239025622E+02  0.62549320759E+00  0.43541300450E+03  0.45101509502E+03  0.10100000000E+03 0. -1.
<mgrwt>
<rscale>  0 0.14663965E+04</rscale>
<asrwt>0</asrwt>
<pdfrwt beam="1">  1        2 0.10099488E+00 0.14663965E+04</pdfrwt>
<pdfrwt beam="2">  1       -2 0.10862941E+00 0.14663965E+04</pdfrwt>
<totfact> 0.29223490E+01</totfact>
</mgrwt>
</event>
<event>
 8    2  0.4480234E-052  0.1315494E+04  0.7818608E-02  0.9017368E-01
         -2   -1    0    0    0  501 -0.00000000000E+00  0.00000000000E+00  0.55120399717E+03  0.55120399717E+03  0.25500000000E-02 0. -1.
          2   -1    0    0  501    0  0.00000000000E+00 -0.00000000000E+00 -0.78488357041E+03  0.78488357041E+03  0.25500000000E-02 0.  1.
    -200001    2    1    2    0    0 -0.86827662801E+02 -0.87855552414E+02  0.91807890239E+02  0.63112747652E+03  0.61207480081E+03 0.  0.
   -5000001    2    3    3    0    0  0.77237907747E+02  0.22704010948E+03  0.46497384107E+02  0.25919894671E+03  0.86655533831E+02 0.  0.
     200001    1    1    2    0    0  0.86827662801E+02  0.87855552414E+02 -0.32548746348E+03  0.70496009107E+03  0.61300000000E+03 0.  1.
         13    1    4    4    0    0  0.31992250215E+00  0.11086684660E+03  0.59767062584E+01  0.11102833966E+03  0.10566000000E+00 0.  1.
    -200003    1    4    4    0    0  0.76917985245E+02  0.11617326288E+03  0.40520677849E+02  0.14817060705E+03  0.30000000000E+02 0.  1.
    -200000    1    3    3    0    0 -0.16406557055E+03 -0.31489566189E+03  0.45310506132E+02  0.37192852981E+03  0.10100000000E+03 0. -1.
<mgrwt>
<rscale>  0 0.13154938E+04</rscale>
<asrwt>0</asrwt>
<pdfrwt beam="1">  1        2 0.11212622E+00 0.13154938E+04</pdfrwt>
<pdfrwt beam="2">  1       -2 0.78743429E-01 0.13154938E+04</pdfrwt>
<totfact> 0.54724201E+01</totfact>
</mgrwt>
</event>
<event>
 8    2  0.4480234E-052  0.1391722E+04  0.7818608E-02  0.8959833E-01
         -2   -1    0    0    0  501 -0.00000000000E+00  0.00000000000E+00  0.44648585149E+03  0.44648585150E+03  0.25500000000E-02 0. -1.
          2   -1    0    0  501    0  0.00000000000E+00 -0.00000000000E+00 -0.10845191202E+04  0.10845191202E+04  0.25500000000E-02 0.  1.
    -200001    2    1    2    0    0 -0.18135513789E+02  0.97379183145E+02  0.27805134520E+02  0.62055377512E+03  0.61196589786E+03 0.  0.
   -5000001    2    3    3    0    0  0.19234881742E+02 -0.16782402184E+03  0.20662473608E+03  0.28305305468E+03  0.94288743879E+02 0.  0.
     200001    1    1    2    0    0  0.18135513789E+02 -0.97379183145E+02 -0.66583840327E+03  0.91045119663E+03  0.61300000000E+03 0.  1.
         13    1    4    4    0    0  0.17806942406E+02 -0.26159201667E+02  0.11380089790E+01  0.31665395279E+02  0.10566000000E+00 0.  1.
    -200003    1    4    4    0    0  0.14279393364E+01 -0.14166482017E+03  0.20548672710E+03  0.25138765940E+03  0.30000000000E+02 0.  1.
    -200000    1    3    3    0    0 -0.37370395531E+02  0.26520320498E+03 -0.17881960156E+03  0.33750072044E+03  0.10100000000E+03 0.  1.
<mgrwt>
<rscale>  0 0.13917219E+04</rscale>
<asrwt>0</asrwt>
<pdfrwt beam="1">  1        2 0.15493130E+00 0.13917219E+04</pdfrwt>
<pdfrwt beam="2">  1       -2 0.63783693E-01 0.13917219E+04</pdfrwt>
<totfact> 0.55328723E+01</totfact>
</mgrwt>
</event>
<event>
 8    2  0.4480234E-052  0.2185852E+04  0.7818608E-02  0.8524340E-01
         -2   -1    0    0    0  501 -0.00000000000E+00  0.00000000000E+00  0.12380428147E+04  0.12380428147E+04  0.25500000000E-02 0. -1.
          2   -1    0    0  501    0  0.00000000000E+00 -0.00000000000E+00 -0.96481917517E+03  0.96481917517E+03  0.25500000000E-02 0.  1.
    -200001    2    1    2    0    0 -0.48734059160E+03 -0.75456756473E+03  0.24833877557E+03  0.11150838330E+04  0.61226362403E+03 0.  0.
   -5000001    2    3    3    0    0 -0.19903949630E+03 -0.75036579548E+03  0.16886453222E+03  0.79940625740E+03  0.88710687132E+02 0.  0.
     200001    1    1    2    0    0  0.48734059160E+03  0.75456756473E+03  0.24884863930E+02  0.10877781568E+04  0.61300000000E+03 0.  1.
         13    1    4    4    0    0 -0.28115214702E+02 -0.22683200181E+03  0.28977235478E+02  0.23039729530E+03  0.10566000000E+00 0.  1.
    -200003    1    4    4    0    0 -0.17092428160E+03 -0.52353379367E+03  0.13988729675E+03  0.56900896209E+03  0.30000000000E+02 0.  1.
    -200000    1    3    3    0    0 -0.28830109529E+03 -0.42017692550E+01  0.79474243351E+02  0.31567757565E+03  0.10100000000E+03 0.  1.
<mgrwt>
<rscale>  0 0.21858522E+04</rscale>
<asrwt>0</asrwt>
<pdfrwt beam="1">  1        2 0.13783131E+00 0.21858522E+04</pdfrwt>
<pdfrwt beam="2">  1       -2 0.17686326E+00 0.21858522E+04</pdfrwt>
<totfact> 0.51763620E+00</totfact>
</mgrwt>
</event>
<event>
 8    2  0.4480234E-052  0.1902279E+04  0.7818608E-02  0.8653723E-01
         -2   -1    0    0    0  501 -0.00000000000E+00  0.00000000000E+00  0.60483910768E+03  0.60483910769E+03  0.25500000000E-02 0. -1.
          2   -1    0    0  501    0  0.00000000000E+00 -0.00000000000E+00 -0.14957140122E+04  0.14957140122E+04  0.25500000000E-02 0.  1.
    -200001    2    1    2    0    0  0.49174652795E+03  0.34215955742E+03 -0.90057657597E+03  0.12433769811E+04  0.61323758651E+03 0.  0.
   -5000001    2    3    3    0    0 -0.46895633230E+02 -0.98988636141E+02 -0.70859366872E+02  0.15554484630E+03  0.84706545406E+02 0.  0.
     200001    1    1    2    0    0 -0.49174652795E+03 -0.34215955742E+03  0.97016714248E+01  0.85717613880E+03  0.61300000000E+03 0. -1.
         13    1    4    4    0    0  0.18842746950E+02 -0.54177273077E+01 -0.15539190733E+02  0.25017563720E+02  0.10566000000E+00 0.  1.
    -200003    1    4    4    0    0 -0.65738380181E+02 -0.93570908833E+02 -0.55320176139E+02  0.13052728258E+03  0.30000000000E+02 0.  1.
    -200000    1    3    3    0    0  0.53864216118E+03  0.44114819356E+03 -0.82971720910E+03  0.10878321348E+04  0.10100000000E+03 0.  1.
<mgrwt>
<rscale>  0 0.19022790E+04</rscale>
<asrwt>0</asrwt>
<pdfrwt beam="1">  1        2 0.21367343E+00 0.19022790E+04</pdfrwt>
<pdfrwt beam="2">  1       -2 0.86405588E-01 0.19022790E+04</pdfrwt>
<totfact> 0.16029033E+01</totfact>
</mgrwt>
</event>
<event>
 8    2  0.4480234E-052  0.1957683E+04  0.7818608E-02  0.8626665E-01
          2   -1    0    0  501    0  0.00000000000E+00  0.00000000000E+00  0.16209295859E+04  0.16209295859E+04  0.25500000000E-02 0. -1.
         -2   -1    0    0    0  501 -0.00000000000E+00 -0.00000000000E+00 -0.59109978975E+03  0.59109978975E+03  0.25500000000E-02 0.  1.
    -200001    2    1    2    0    0  0.31781528444E+03  0.69028579786E+03  0.59365144988E+03  0.11426736876E+04  0.61300903317E+03 0.  0.
   -5000001    2    3    3    0    0  0.24062573819E+01 -0.28580511144E+02  0.14966478941E+03  0.23516237683E+03  0.17910655655E+03 0.  0.
     200001    1    1    2    0    0 -0.31781528444E+03 -0.69028579786E+03  0.43617834629E+03  0.10693556880E+04  0.61300000000E+03 0.  1.
         13    1    4    4    0    0 -0.62156397776E+02 -0.67840417500E+02  0.11369406021E+03  0.14626035185E+03  0.10566000000E+00 0.  1.
    -200003    1    4    4    0    0  0.64562655158E+02  0.39259906356E+02  0.35970729194E+02  0.88902024988E+02  0.30000000000E+02 0.  1.
    -200000    1    3    3    0    0  0.31540902706E+03  0.71886630900E+03  0.44398666047E+03  0.90751131081E+03  0.10100000000E+03 0.  1.
<mgrwt>
<rscale>  0 0.19576835E+04</rscale>
<asrwt>0</asrwt>
<pdfrwt beam="1">  1        2 0.23156137E+00 0.19576835E+04</pdfrwt>
<pdfrwt beam="2">  1       -2 0.84442828E-01 0.19576835E+04</pdfrwt>
<totfact> 0.14440449E+01</totfact>
</mgrwt>
</event>
<event>
 8    2  0.4480234E-052  0.1438956E+04  0.7818608E-02  0.8926093E-01
         -2   -1    0    0    0  501 -0.00000000000E+00  0.00000000000E+00  0.22472134340E+03  0.22472134341E+03  0.25500000000E-02 0. -1.
          2   -1    0    0  501    0  0.00000000000E+00 -0.00000000000E+00 -0.23035128225E+04  0.23035128225E+04  0.25500000000E-02 0.  1.
    -200001    2    1    2    0    0  0.32945923595E+03  0.18241240263E+03 -0.10841844721E+04  0.13007042187E+04  0.61201129267E+03 0.  0.
   -5000001    2    3    3    0    0  0.17785442049E+03  0.95439069618E+02 -0.32626939940E+02  0.22994625163E+03  0.10521383242E+03 0.  0.
     200001    1    1    2    0    0 -0.32945923595E+03 -0.18241240263E+03 -0.99460700703E+03  0.12275299472E+04  0.61300000000E+03 0.  1.
         13    1    4    4    0    0  0.11540376066E+03  0.10360516948E+03 -0.57753080629E+01  0.15519479522E+03  0.10566000000E+00 0.  1.
    -200003    1    4    4    0    0  0.62450659831E+02 -0.81660998644E+01 -0.26851631877E+02  0.74751456406E+02  0.30000000000E+02 0. -1.
    -200000    1    3    3    0    0  0.15160481547E+03  0.86973333012E+02 -0.10515575321E+04  0.10707579671E+04  0.10100000000E+03 0.  1.
<mgrwt>
<rscale>  0 0.14389559E+04</rscale>
<asrwt>0</asrwt>
<pdfrwt beam="1">  1        2 0.32907325E+00 0.14389559E+04</pdfrwt>
<pdfrwt beam="2">  1       -2 0.32103050E-01 0.14389559E+04</pdfrwt>
<totfact> 0.49074794E+01</totfact>
</mgrwt>
</event>
<event>
 8    2  0.4480234E-052  0.1648342E+04  0.7818608E-02  0.8791388E-01
         -2   -1    0    0    0  501 -0.00000000000E+00  0.00000000000E+00  0.27222556274E+03  0.27222556276E+03  0.25500000000E-02 0. -1.
          2   -1    0    0  501    0  0.00000000000E+00 -0.00000000000E+00 -0.24952034979E+04  0.24952034979E+04  0.25500000000E-02 0.  1.
    -200001    2    1    2    0    0 -0.28549317739E+03  0.37958173526E+03 -0.64364209733E+03  0.10079804718E+04  0.61331952036E+03 0.  0.
   -5000001    2    3    3    0    0  0.23947715691E+02  0.42523548192E+03 -0.46725169085E+03  0.63494896326E+03  0.58628791229E+02 0.  0.
     200001    1    1    2    0    0  0.28549317739E+03 -0.37958173526E+03 -0.15793358378E+04  0.17594485888E+04  0.61300000000E+03 0. -1.
         13    1    4    4    0    0 -0.10666527450E+02  0.37548852220E+02 -0.34035355269E+02  0.51789069148E+02  0.10566000000E+00 0.  1.
    -200003    1    4    4    0    0  0.34614243141E+02  0.38768662970E+03 -0.43321633558E+03  0.58315989411E+03  0.30000000000E+02 0.  1.
    -200000    1    3    3    0    0 -0.30944089308E+03 -0.45653746658E+02 -0.17639040648E+03  0.37303150858E+03  0.10100000000E+03 0.  1.
<mgrwt>
<rscale>  0 0.16483424E+04</rscale>
<asrwt>0</asrwt>
<pdfrwt beam="1">  1        2 0.35645763E+00 0.16483424E+04</pdfrwt>
<pdfrwt beam="2">  1       -2 0.38889368E-01 0.16483424E+04</pdfrwt>
<totfact> 0.26551028E+01</totfact>
</mgrwt>
</event>
<event>
 8    2  0.4480234E-052  0.1567951E+04  0.7818608E-02  0.8840482E-01
          2   -1    0    0  501    0  0.00000000000E+00  0.00000000000E+00  0.40640819249E+03  0.40640819249E+03  0.25500000000E-02 0.  1.
         -2   -1    0    0    0  501 -0.00000000000E+00 -0.00000000000E+00 -0.15123167638E+04  0.15123167638E+04  0.25500000000E-02 0. -1.
    -200001    2    1    2    0    0  0.41599656429E+03 -0.13327803152E+03 -0.82312524104E+03  0.11146406404E+04  0.61161460050E+03 0.  0.
   -5000001    2    3    3    0    0  0.19613328112E+03 -0.31581745176E+03 -0.22389710361E+03  0.44312305765E+03  0.89550010669E+02 0.  0.
     200001    1    1    2    0    0 -0.41599656429E+03  0.13327803152E+03 -0.28278333023E+03  0.80408431588E+03  0.61300000000E+03 0. -1.
         13    1    4    4    0    0  0.10984766099E+03 -0.18571386389E+03 -0.17186952269E+03  0.27585375086E+03  0.10566000000E+00 0.  1.
    -200003    1    4    4    0    0  0.86285620127E+02 -0.13010358787E+03 -0.52027580923E+02  0.16726930679E+03  0.30000000000E+02 0. -1.
    -200000    1    3    3    0    0  0.21986328317E+03  0.18253942024E+03 -0.59922813742E+03  0.67151758272E+03  0.10100000000E+03 0. -1.
<mgrwt>
<rscale>  0 0.15679514E+04</rscale>
<asrwt>0</asrwt>
<pdfrwt beam="1">  1        2 0.58058314E-01 0.15679514E+04</pdfrwt>
<pdfrwt beam="2">  1       -2 0.21604525E+00 0.15679514E+04</pdfrwt>
<totfact> 0.85645603E+00</totfact>
</mgrwt>
</event>
<event>
 8    2  0.4480234E-052  0.1856453E+04  0.7818608E-02  0.8676841E-01
          2   -1    0    0  501    0  0.00000000000E+00  0.00000000000E+00  0.19935761171E+04  0.19935761171E+04  0.25500000000E-02 0.  1.
         -2   -1    0    0    0  501 -0.00000000000E+00 -0.00000000000E+00 -0.43219058982E+03  0.43219058983E+03  0.25500000000E-02 0. -1.
    -200001    2    1    2    0    0 -0.51118550876E+03 -0.31896555587E+03  0.12387391806E+04  0.15076603322E+04  0.61279300721E+03 0.  0.
   -5000001    2    3    3    0    0 -0.71637042536E+02 -0.20721810748E+03  0.89294656129E+03  0.92846789276E+03  0.12894904670E+03 0.  0.
     200001    1    1    2    0    0  0.51118550876E+03  0.31896555587E+03  0.32264634668E+03  0.91810637468E+03  0.61300000000E+03 0. -1.
         13    1    4    4    0    0  0.27580267169E+02 -0.83585087158E+02  0.23254963088E+03  0.24864931112E+03  0.10566000000E+00 0.  1.
    -200003    1    4    4    0    0 -0.99217309705E+02 -0.12363302032E+03  0.66039693040E+03  0.67981858164E+03  0.30000000000E+02 0.  1.
    -200000    1    3    3    0    0 -0.43954846622E+03 -0.11174744839E+03  0.34579261928E+03  0.57919243946E+03  0.10100000000E+03 0. -1.
<mgrwt>
<rscale>  0 0.18564534E+04</rscale>
<asrwt>0</asrwt>
<pdfrwt beam="1">  1        2 0.28479659E+00 0.18564534E+04</pdfrwt>
<pdfrwt beam="2">  1       -2 0.61741512E-01 0.18564534E+04</pdfrwt>
<totfact> 0.18574244E+01</totfact>
</mgrwt>
</event>
<event>
 8    2  0.4480234E-052  0.1627354E+04  0.7818608E-02  0.8803918E-01
         -2   -1    0    0    0  501 -0.00000000000E+00  0.00000000000E+00  0.62476865656E+03  0.62476865656E+03  0.25500000000E-02 0. -1.
          2   -1    0    0  501    0  0.00000000000E+00 -0.00000000000E+00 -0.10597042821E+04  0.10597042821E+04  0.25500000000E-02 0.  1.
    -200001    2    1    2    0    0 -0.19236978005E+03 -0.34547377464E+03 -0.59087720896E+03  0.93852050134E+03  0.61263904065E+03 0.  0.
   -5000001    2    3    3    0    0 -0.19451565564E+03  0.10203859509E+03 -0.11648776712E+03  0.27858242214E+03  0.12566045863E+03 0.  0.
     200001    1    1    2    0    0  0.19236978005E+03  0.34547377464E+03  0.15594158346E+03  0.74595243728E+03  0.61300000000E+03 0. -1.
         13    1    4    4    0    0 -0.11707492462E+03  0.59825501667E+02 -0.26737780797E+01  0.13150204895E+03  0.10566000000E+00 0.  1.
    -200003    1    4    4    0    0 -0.77440731014E+02  0.42213093425E+02 -0.11381398904E+03  0.14708037319E+03  0.30000000000E+02 0.  1.
    -200000    1    3    3    0    0  0.21458755858E+01 -0.44751236973E+03 -0.47438944184E+03  0.65993807919E+03  0.10100000000E+03 0.  1.
<mgrwt>
<rscale>  0 0.16273537E+04</rscale>
<asrwt>0</asrwt>
<pdfrwt beam="1">  1        2 0.15138632E+00 0.16273537E+04</pdfrwt>
<pdfrwt beam="2">  1       -2 0.89252666E-01 0.16273537E+04</pdfrwt>
<totfact> 0.26691710E+01</totfact>
</mgrwt>
</event>
<event>
 8    2  0.4480234E-052  0.1772038E+04  0.7818608E-02  0.8721312E-01
          2   -1    0    0  501    0  0.00000000000E+00  0.00000000000E+00  0.27635156780E+04  0.27635156780E+04  0.25500000000E-02 0.  1.
         -2   -1    0    0    0  501 -0.00000000000E+00 -0.00000000000E+00 -0.28406907311E+03  0.28406907312E+03  0.25500000000E-02 0. -1.
    -200001    2    1    2    0    0 -0.56342371101E+03 -0.31464799388E+02  0.72087480868E+03  0.11016196759E+04  0.61275534165E+03 0.  0.
   -5000001    2    3    3    0    0  0.40533311255E+02 -0.13418221053E+03  0.28575933104E+03  0.34343669651E+03  0.12900602423E+03 0.  0.
     200001    1    1    2    0    0  0.56342371101E+03  0.31464799388E+02  0.17585717962E+04  0.19459650753E+04  0.61300000000E+03 0.  1.
         13    1    4    4    0    0 -0.14865737709E+02  0.19232863212E+02  0.43826040852E+02  0.50116127202E+02  0.10566000000E+00 0.  1.
    -200003    1    4    4    0    0  0.55399048964E+02 -0.15341507374E+03  0.24193329019E+03  0.29332056930E+03  0.30000000000E+02 0.  1.
    -200000    1    3    3    0    0 -0.60395702227E+03  0.10271741114E+03  0.43511547765E+03  0.75818297935E+03  0.10100000000E+03 0. -1.
<mgrwt>
<rscale>  0 0.17720376E+04</rscale>
<asrwt>0</asrwt>
<pdfrwt beam="1">  1        2 0.39478796E+00 0.17720376E+04</pdfrwt>
<pdfrwt beam="2">  1       -2 0.40581296E-01 0.17720376E+04</pdfrwt>
<totfact> 0.17396031E+01</totfact>
</mgrwt>
</event>
<event>
 8    2  0.4480234E-052  0.2022681E+04  0.7818608E-02  0.8596089E-01
         -2   -1    0    0    0  501 -0.00000000000E+00  0.00000000000E+00  0.34084966305E+03  0.34084966306E+03  0.25500000000E-02 0. -1.
          2   -1    0    0  501    0  0.00000000000E+00 -0.00000000000E+00 -0.30007648935E+04  0.30007648935E+04  0.25500000000E-02 0.  1.
    -200001    2    1    2    0    0 -0.78423979132E+03  0.16272263914E+03 -0.14571479931E+04  0.17719239071E+04  0.61230984918E+03 0.  0.
   -5000001    2    3    3    0    0 -0.81301700998E+03  0.21486670659E+03 -0.10494233953E+04  0.13476745939E+04  0.88164553729E+02 0.  0.
     200001    1    1    2    0    0  0.78423979132E+03 -0.16272263914E+03 -0.12027672374E+04  0.15696906494E+04  0.61300000000E+03 0.  1.
         13    1    4    4    0    0 -0.16482605778E+03  0.57547951773E+02 -0.17177905170E+03  0.24492335504E+03  0.10566000000E+00 0.  1.
    -200003    1    4    4    0    0 -0.64819095220E+03  0.15731875482E+03 -0.87764434355E+03  0.11027512389E+04  0.30000000000E+02 0.  1.
    -200000    1    3    3    0    0  0.28777218658E+02 -0.52144067452E+02 -0.40772459780E+03  0.42424931318E+03  0.10100000000E+03 0.  1.
<mgrwt>
<rscale>  0 0.20226811E+04</rscale>
<asrwt>0</asrwt>
<pdfrwt beam="1">  1        2 0.42868068E+00 0.20226811E+04</pdfrwt>
<pdfrwt beam="2">  1       -2 0.48692811E-01 0.20226811E+04</pdfrwt>
<totfact> 0.87684515E+00</totfact>
</mgrwt>
</event>
<event>
 8    2  0.4480234E-052  0.1397439E+04  0.7818608E-02  0.8955675E-01
         -2   -1    0    0    0  501 -0.00000000000E+00  0.00000000000E+00  0.32216180076E+03  0.32216180077E+03  0.25500000000E-02 0. -1.
          2   -1    0    0  501    0  0.00000000000E+00 -0.00000000000E+00 -0.15154150940E+04  0.15154150940E+04  0.25500000000E-02 0.  1.
    -200001    2    1    2    0    0 -0.25399402350E+03  0.10608364600E+03 -0.34429352996E+03  0.75486345919E+03  0.61279205553E+03 0.  0.
   -5000001    2    3    3    0    0  0.94776438093E+02 -0.17392342101E+03 -0.95475969055E+02  0.23317775776E+03  0.77616212554E+02 0.  0.
     200001    1    1    2    0    0  0.25399402350E+03 -0.10608364600E+03 -0.84895976329E+03  0.10827134356E+04  0.61300000000E+03 0.  1.
         13    1    4    4    0    0  0.72623663680E+02 -0.14980358364E+03 -0.87433834582E+02  0.18804253985E+03  0.10566000000E+00 0.  1.
    -200003    1    4    4    0    0  0.22152774413E+02 -0.24119837374E+02 -0.80421344727E+01  0.45135217912E+02  0.30000000000E+02 0.  1.
    -200000    1    3    3    0    0 -0.34877046160E+03  0.28000706702E+03 -0.24881756091E+03  0.52168570143E+03  0.10100000000E+03 0.  1.
<mgrwt>
<rscale>  0 0.13974389E+04</rscale>
<asrwt>0</asrwt>
<pdfrwt beam="1">  1        2 0.21648787E+00 0.13974389E+04</pdfrwt>
<pdfrwt beam="2">  1       -2 0.46023115E-01 0.13974389E+04</pdfrwt>
<totfact> 0.62552583E+01</totfact>
</mgrwt>
</event>
<event>
 8    2  0.4480234E-052  0.1528892E+04  0.7818608E-02  0.8865464E-01
         -2   -1    0    0    0  501 -0.00000000000E+00  0.00000000000E+00  0.36546083374E+03  0.36546083375E+03  0.25500000000E-02 0.  1.
          2   -1    0    0  501    0  0.00000000000E+00 -0.00000000000E+00 -0.15990160661E+04  0.15990160661E+04  0.25500000000E-02 0. -1.
    -200001    2    1    2    0    0  0.63871709332E+02  0.12857818010E+03 -0.59465535508E+02  0.63223534522E+03  0.61284046716E+03 0.  0.
   -5000001    2    3    3    0    0  0.28355136391E+03  0.65081621450E+02 -0.15831974339E+03  0.36341548359E+03  0.14956162323E+03 0.  0.
     200001    1    1    2    0    0 -0.63871709332E+02 -0.12857818010E+03 -0.11740896969E+04  0.13322415547E+04  0.61300000000E+03 0.  1.
         13    1    4    4    0    0  0.14367304014E+03  0.41371999841E+02 -0.15920393633E+03  0.21840212760E+03  0.10566000000E+00 0.  1.
    -200003    1    4    4    0    0  0.13987832377E+03  0.23709621610E+02  0.88419294779E+00  0.14501335599E+03  0.30000000000E+02 0.  1.
    -200000    1    3    3    0    0 -0.21967965457E+03  0.63496558650E+02  0.98854207877E+02  0.26881986163E+03  0.10100000000E+03 0.  1.
<mgrwt>
<rscale>  0 0.15288921E+04</rscale>
<asrwt>0</asrwt>
<pdfrwt beam="1">  1        2 0.22843086E+00 0.15288921E+04</pdfrwt>
<pdfrwt beam="2">  1       -2 0.52208692E-01 0.15288921E+04</pdfrwt>
<totfact> 0.43318503E+01</totfact>
</mgrwt>
</event>
<event>
 8    2  0.4480234E-052  0.1291405E+04  0.7818608E-02  0.9036409E-01
         -2   -1    0    0    0  501 -0.00000000000E+00  0.00000000000E+00  0.22047005840E+03  0.22047005842E+03  0.25500000000E-02 0. -1.
          2   -1    0    0  501    0  0.00000000000E+00 -0.00000000000E+00 -0.18911028877E+04  0.18911028877E+04  0.25500000000E-02 0.  1.
    -200001    2    1    2    0    0  0.11095516632E+03  0.15561640922E+03 -0.94494723329E+03  0.11425961146E+04  0.61324798545E+03 0.  0.
   -5000001    2    3    3    0    0 -0.48699486211E+02 -0.21138452124E+03 -0.32235714848E+03  0.39560300571E+03  0.74381121101E+02 0.  0.
     200001    1    1    2    0    0 -0.11095516632E+03 -0.15561640922E+03 -0.72568559599E+03  0.96897683150E+03  0.61300000000E+03 0.  1.
         13    1    4    4    0    0 -0.33379688057E+02 -0.52998019912E+02 -0.56708342546E+02  0.84491662120E+02  0.10566000000E+00 0.  1.
    -200003    1    4    4    0    0 -0.15319798154E+02 -0.15838650132E+03 -0.26564880594E+03  0.31111134359E+03  0.30000000000E+02 0.  1.
    -200000    1    3    3    0    0  0.15965465253E+03  0.36700093045E+03 -0.62259008481E+03  0.74699310889E+03  0.10100000000E+03 0.  1.
<mgrwt>
<rscale>  0 0.12914048E+04</rscale>
<asrwt>0</asrwt>
<pdfrwt beam="1">  1        2 0.27015755E+00 0.12914048E+04</pdfrwt>
<pdfrwt beam="2">  1       -2 0.31495724E-01 0.12914048E+04</pdfrwt>
<totfact> 0.83846468E+01</totfact>
</mgrwt>
</event>
<event>
 8    2  0.4480234E-052  0.1487853E+04  0.7818608E-02  0.8892571E-01
         -2   -1    0    0    0  501 -0.00000000000E+00  0.00000000000E+00  0.27823897617E+03  0.27823897619E+03  0.25500000000E-02 0. -1.
          2   -1    0    0  501    0  0.00000000000E+00 -0.00000000000E+00 -0.19890328481E+04  0.19890328481E+04  0.25500000000E-02 0.  1.
    -200001    2    1    2    0    0  0.14799926813E+03  0.26892458546E+03 -0.41462408145E+03  0.80096716911E+03  0.61270797371E+03 0.  0.
   -5000001    2    3    3    0    0  0.21519864001E+03 -0.10209967022E+03 -0.12450142952E+03  0.31460628762E+03  0.16352893607E+03 0.  0.
     200001    1    1    2    0    0 -0.14799926813E+03 -0.26892458546E+03 -0.12961697905E+04  0.14663046552E+04  0.61300000000E+03 0.  1.
         13    1    4    4    0    0  0.21180884790E+03 -0.11991547839E+03 -0.76441297408E+02  0.25511956632E+03  0.10566000000E+00 0.  1.
    -200003    1    4    4    0    0  0.33897921129E+01  0.17815808170E+02 -0.48060132116E+02  0.59486721294E+02  0.30000000000E+02 0.  1.
    -200000    1    3    3    0    0 -0.67199371885E+02  0.37102425569E+03 -0.29012265192E+03  0.48636088150E+03  0.10100000000E+03 0. -1.
<mgrwt>
<rscale>  0 0.14878528E+04</rscale>
<asrwt>0</asrwt>
<pdfrwt beam="1">  1        2 0.28414754E+00 0.14878528E+04</pdfrwt>
<pdfrwt beam="2">  1       -2 0.39748426E-01 0.14878528E+04</pdfrwt>
<totfact> 0.47130415E+01</totfact>
</mgrwt>
</event>
<event>
 8    2  0.4480234E-052  0.1272475E+04  0.7818608E-02  0.9051682E-01
         -2   -1    0    0    0  501 -0.00000000000E+00  0.00000000000E+00  0.13269714975E+04  0.13269714975E+04  0.25500000000E-02 0. -1.
          2   -1    0    0  501    0  0.00000000000E+00 -0.00000000000E+00 -0.30505412013E+03  0.30505412014E+03  0.25500000000E-02 0.  1.
    -200001    2    1    2    0    0 -0.39758599421E+02 -0.15376970153E+03  0.43179798715E+03  0.76644155932E+03  0.61299045246E+03 0.  0.
   -5000001    2    3    3    0    0  0.22399889004E+03 -0.92523188218E+02  0.26051286723E+02  0.26829445901E+03  0.11210354187E+03 0.  0.
     200001    1    1    2    0    0  0.39758599421E+02  0.15376970153E+03  0.59011939026E+03  0.86558405837E+03  0.61300000000E+03 0. -1.
         13    1    4    4    0    0  0.20850651704E+03 -0.57318570556E+02  0.33917646052E+02  0.21888536739E+03  0.10566000000E+00 0.  1.
    -200003    1    4    4    0    0  0.15492372993E+02 -0.35204617662E+02 -0.78663593296E+01  0.49409091621E+02  0.30000000000E+02 0.  1.
    -200000    1    3    3    0    0 -0.26375748946E+03 -0.61246513315E+02  0.40574670042E+03  0.49814710031E+03  0.10100000000E+03 0.  1.
<mgrwt>
<rscale>  0 0.12724749E+04</rscale>
<asrwt>0</asrwt>
<pdfrwt beam="1">  1        2 0.43579160E-01 0.12724749E+04</pdfrwt>
<pdfrwt beam="2">  1       -2 0.18956736E+00 0.12724749E+04</pdfrwt>
<totfact> 0.17944948E+01</totfact>
</mgrwt>
</event>
<event>
 8    2  0.4480234E-052  0.1568203E+04  0.7818608E-02  0.8840324E-01
         -2   -1    0    0    0  501 -0.00000000000E+00  0.00000000000E+00  0.59959178954E+03  0.59959178954E+03  0.25500000000E-02 0. -1.
          2   -1    0    0  501    0  0.00000000000E+00 -0.00000000000E+00 -0.10253893356E+04  0.10253893356E+04  0.25500000000E-02 0.  1.
    -200001    2    1    2    0    0  0.41579887300E+03  0.25781875583E+03 -0.23015405178E+03  0.81664667057E+03  0.61203078628E+03 0.  0.
   -5000001    2    3    3    0    0  0.32507260756E+03 -0.13886376416E+03 -0.14333091480E+03  0.38847902347E+03  0.73599289113E+02 0.  0.
     200001    1    1    2    0    0 -0.41579887300E+03 -0.25781875583E+03 -0.19564349432E+03  0.80833445461E+03  0.61300000000E+03 0.  1.
         13    1    4    4    0    0  0.51912323664E+02 -0.48888366424E+02 -0.19540781743E+02  0.73937913379E+02  0.10566000000E+00 0.  1.
    -200003    1    4    4    0    0  0.27316028390E+03 -0.89975397738E+02 -0.12379013305E+03  0.31454111009E+03  0.30000000000E+02 0.  1.
    -200000    1    3    3    0    0  0.90726265433E+02  0.39668251999E+03 -0.86823136983E+02  0.42816764709E+03  0.10100000000E+03 0. -1.
<mgrwt>
<rscale>  0 0.15682028E+04</rscale>
<asrwt>0</asrwt>
<pdfrwt beam="1">  1        2 0.14648419E+00 0.15682028E+04</pdfrwt>
<pdfrwt beam="2">  1       -2 0.85655970E-01 0.15682028E+04</pdfrwt>
<totfact> 0.30906400E+01</totfact>
</mgrwt>
</event>
<event>
 8    2  0.4480234E-052  0.1716583E+04  0.7818608E-02  0.8751962E-01
          2   -1    0    0  501    0  0.00000000000E+00  0.00000000000E+00  0.17835857455E+04  0.17835857455E+04  0.25500000000E-02 0.  1.
         -2   -1    0    0    0  501 -0.00000000000E+00 -0.00000000000E+00 -0.41302443743E+03  0.41302443743E+03  0.25500000000E-02 0. -1.
    -200001    2    1    2    0    0  0.47643938855E+03  0.32479925086E+03  0.90133001881E+03  0.12330563198E+04  0.61281566617E+03 0.  0.
   -5000001    2    3    3    0    0  0.53905522933E+03  0.11266905632E+03  0.43059979092E+03  0.70323756741E+03  0.76498625861E+02 0.  0.
     200001    1    1    2    0    0 -0.47643938855E+03 -0.32479925086E+03  0.46923128927E+03  0.96355386313E+03  0.61300000000E+03 0. -1.
         13    1    4    4    0    0  0.14262279961E+03  0.60047022756E+02  0.11129092775E+03  0.19061109536E+03  0.10566000000E+00 0.  1.
    -200003    1    4    4    0    0  0.39643242971E+03  0.52622033563E+02  0.31930886317E+03  0.51262647205E+03  0.30000000000E+02 0.  1.
    -200000    1    3    3    0    0 -0.62615840778E+02  0.21213019454E+03  0.47073022789E+03  0.52981875241E+03  0.10100000000E+03 0. -1.
<mgrwt>
<rscale>  0 0.17165832E+04</rscale>
<asrwt>0</asrwt>
<pdfrwt beam="1">  1        2 0.25479797E+00 0.17165832E+04</pdfrwt>
<pdfrwt beam="2">  1       -2 0.59003491E-01 0.17165832E+04</pdfrwt>
<totfact> 0.26528430E+01</totfact>
</mgrwt>
</event>
<event>
 8    2  0.4480234E-052  0.1377556E+04  0.7818608E-02  0.8970227E-01
          2   -1    0    0  501    0  0.00000000000E+00  0.00000000000E+00  0.10613798722E+04  0.10613798722E+04  0.25500000000E-02 0.  1.
         -2   -1    0    0    0  501 -0.00000000000E+00 -0.00000000000E+00 -0.44697930264E+03  0.44697930265E+03  0.25500000000E-02 0. -1.
    -200001    2    1    2    0    0  0.65364824279E+02 -0.29852996579E+03  0.38571274823E+03  0.78623742586E+03  0.61319023553E+03 0.  0.
   -5000001    2    3    3    0    0 -0.16160428301E+03 -0.55546652548E+02  0.32843810215E+03  0.43404819936E+03  0.22654994489E+03 0.  0.
     200001    1    1    2    0    0 -0.65364824279E+02  0.29852996579E+03  0.22868782131E+03  0.72212174897E+03  0.61300000000E+03 0.  1.
         13    1    4    4    0    0 -0.20751140659E+03 -0.23347585066E+02  0.29711685990E+03  0.36315910176E+03  0.10566000000E+00 0.  1.
    -200003    1    4    4    0    0  0.45907123582E+02 -0.32199067482E+02  0.31321242251E+02  0.70889097599E+02  0.30000000000E+02 0.  1.
    -200000    1    3    3    0    0  0.22696910729E+03 -0.24298331324E+03  0.57274646077E+02  0.35218922650E+03  0.10100000000E+03 0. -1.
<mgrwt>
<rscale>  0 0.13775556E+04</rscale>
<asrwt>0</asrwt>
<pdfrwt beam="1">  1        2 0.15162569E+00 0.13775556E+04</pdfrwt>
<pdfrwt beam="2">  1       -2 0.63854187E-01 0.13775556E+04</pdfrwt>
<totfact> 0.57043243E+01</totfact>
</mgrwt>
</event>
<event>
 8    2  0.4480234E-052  0.1785357E+04  0.7818608E-02  0.8714125E-01
         -2   -1    0    0    0  501 -0.00000000000E+00  0.00000000000E+00  0.35595444751E+03  0.35595444752E+03  0.25500000000E-02 0. -1.
          2   -1    0    0  501    0  0.00000000000E+00 -0.00000000000E+00 -0.22386989143E+04  0.22386989143E+04  0.25500000000E-02 0.  1.
    -200001    2    1    2    0    0  0.57851723660E+03  0.18459053771E+03 -0.12759929787E+04  0.15398205656E+04  0.61166447741E+03 0.  0.
   -5000001    2    3    3    0    0  0.27824287109E+03 -0.52772971722E+02 -0.34600879028E+03  0.52908928534E+03  0.28285916471E+03 0.  0.
     200001    1    1    2    0    0 -0.57851723660E+03 -0.18459053771E+03 -0.60675148806E+03  0.10548327962E+04  0.61300000000E+03 0. -1.
         13    1    4    4    0    0  0.13131224159E+03  0.96752061291E+02 -0.61273351835E+02  0.17423633652E+03  0.10566000000E+00 0.  1.
    -200003    1    4    4    0    0  0.14693062950E+03 -0.14952503301E+03 -0.28473543844E+03  0.35485294882E+03  0.30000000000E+02 0.  1.
    -200000    1    3    3    0    0  0.30027436551E+03  0.23736350943E+03 -0.92998418840E+03  0.10107312802E+04  0.10100000000E+03 0.  1.
<mgrwt>
<rscale>  0 0.17853569E+04</rscale>
<asrwt>0</asrwt>
<pdfrwt beam="1">  1        2 0.31981412E+00 0.17853569E+04</pdfrwt>
<pdfrwt beam="2">  1       -2 0.50850636E-01 0.17853569E+04</pdfrwt>
<totfact> 0.20925407E+01</totfact>
</mgrwt>
</event>
<event>
 8    2  0.4480234E-052  0.1378770E+04  0.7818608E-02  0.8969331E-01
          2   -1    0    0  501    0  0.00000000000E+00  0.00000000000E+00  0.23954843833E+04  0.23954843833E+04  0.25500000000E-02 0.  1.
         -2   -1    0    0    0  501 -0.00000000000E+00 -0.00000000000E+00 -0.19839495469E+03  0.19839495471E+03  0.25500000000E-02 0. -1.
    -200001    2    1    2    0    0  0.95190790207E+02  0.21421886443E+03  0.70597311031E+03  0.96472376438E+03  0.61428242744E+03 0.  0.
   -5000001    2    3    3    0    0  0.49931164362E+02  0.39739157748E+03  0.30241472263E+03  0.50792944654E+03  0.78259000634E+02 0.  0.
     200001    1    1    2    0    0 -0.95190790207E+02 -0.21421886443E+03  0.14911163183E+04  0.16291555737E+04  0.61300000000E+03 0. -1.
         13    1    4    4    0    0  0.24733002806E-01 -0.32346237016E+01  0.28358167575E+01  0.43030713368E+01  0.10566000000E+00 0.  1.
    -200003    1    4    4    0    0  0.49906431360E+02  0.40062620118E+03  0.29957890587E+03  0.50362637521E+03  0.30000000000E+02 0.  1.
    -200000    1    3    3    0    0  0.45259625844E+02 -0.18317271305E+03  0.40355838768E+03  0.45679431784E+03  0.10100000000E+03 0. -1.
<mgrwt>
<rscale>  0 0.13787705E+04</rscale>
<asrwt>0</asrwt>
<pdfrwt beam="1">  1        2 0.34221206E+00 0.13787705E+04</pdfrwt>
<pdfrwt beam="2">  1       -2 0.28342136E-01 0.13787705E+04</pdfrwt>
<totfact> 0.55734481E+01</totfact>
</mgrwt>
</event>
<event>
 8    2  0.4480234E-052  0.1269681E+04  0.7818608E-02  0.9053960E-01
         -2   -1    0    0    0  501 -0.00000000000E+00  0.00000000000E+00  0.21841222353E+04  0.21841222353E+04  0.25500000000E-02 0. -1.
          2   -1    0    0  501    0  0.00000000000E+00 -0.00000000000E+00 -0.18452370077E+03  0.18452370079E+03  0.25500000000E-02 0.  1.
    -200001    2    1    2    0    0  0.15217486289E+03 -0.64776808133E+02  0.10002829468E+04  0.11846890671E+04  0.61283683660E+03 0.  0.
   -5000001    2    3    3    0    0  0.53912135917E+02 -0.75504326553E+02 -0.11025086661E+02  0.16355460891E+03  0.13424282413E+03 0.  0.
     200001    1    1    2    0    0 -0.15217486289E+03  0.64776808133E+02  0.99931558775E+03  0.11839568690E+04  0.61300000000E+03 0. -1.
         13    1    4    4    0    0  0.30291881968E+02 -0.43316698926E+02  0.57926178073E+02  0.78418032296E+02  0.10566000000E+00 0.  1.
    -200003    1    4    4    0    0  0.23620253949E+02 -0.32187627628E+02 -0.68951264733E+02  0.85136576612E+02  0.30000000000E+02 0.  1.
    -200000    1    3    3    0    0  0.98262726970E+02  0.10727518421E+02  0.10113080335E+04  0.10211344582E+04  0.10100000000E+03 0. -1.
<mgrwt>
<rscale>  0 0.12696808E+04</rscale>
<asrwt>0</asrwt>
<pdfrwt beam="1">  1        2 0.26360529E-01 0.12696808E+04</pdfrwt>
<pdfrwt beam="2">  1       -2 0.31201745E+00 0.12696808E+04</pdfrwt>
<totfact> 0.54895336E+00</totfact>
</mgrwt>
</event>
<event>
 8    2  0.4480234E-052  0.1839794E+04  0.7818608E-02  0.8685419E-01
         -2   -1    0    0    0  501 -0.00000000000E+00  0.00000000000E+00  0.17093557652E+04  0.17093557652E+04  0.25500000000E-02 0. -1.
          2   -1    0    0  501    0  0.00000000000E+00 -0.00000000000E+00 -0.49504639751E+03  0.49504639751E+03  0.25500000000E-02 0.  1.
    -200001    2    1    2    0    0  0.42788462294E+03 -0.43782919675E+03  0.23307498192E+03  0.89544472419E+03  0.61050606124E+03 0.  0.
   -5000001    2    3    3    0    0  0.18866470537E+03 -0.34240658536E+03  0.40486790201E+03  0.56979851875E+03  0.88970181240E+02 0.  0.
     200001    1    1    2    0    0 -0.42788462294E+03  0.43782919675E+03  0.98123438580E+03  0.13089574386E+04  0.61300000000E+03 0. -1.
         13    1    4    4    0    0  0.98725282767E+02 -0.11002081440E+03  0.12225199853E+03  0.19182498108E+03  0.10566000000E+00 0.  1.
    -200003    1    4    4    0    0  0.89939422606E+02 -0.23238577096E+03  0.28261590348E+03  0.37797353767E+03  0.30000000000E+02 0.  1.
    -200000    1    3    3    0    0  0.23921991757E+03 -0.95422611389E+02 -0.17179292008E+03  0.32564620544E+03  0.10100000000E+03 0.  1.
<mgrwt>
<rscale>  0 0.18397939E+04</rscale>
<asrwt>0</asrwt>
<pdfrwt beam="1">  1        2 0.70720914E-01 0.18397939E+04</pdfrwt>
<pdfrwt beam="2">  1       -2 0.24419368E+00 0.18397939E+04</pdfrwt>
<totfact> 0.44719764E+00</totfact>
</mgrwt>
</event>
<event>
 8    2  0.4480234E-052  0.1506173E+04  0.7818608E-02  0.8880358E-01
         -2   -1    0    0    0  501 -0.00000000000E+00  0.00000000000E+00  0.35812777067E+03  0.35812777068E+03  0.25500000000E-02 0. -1.
          2   -1    0    0  501    0  0.00000000000E+00 -0.00000000000E+00 -0.15836221837E+04  0.15836221837E+04  0.25500000000E-02 0.  1.
    -200001    2    1    2    0    0  0.38925155987E+02  0.40106065556E+03 -0.39231046521E+03  0.83164666724E+03  0.61266945478E+03 0.  0.
   -5000001    2    3    3    0    0 -0.18911550781E+03 -0.52933927199E+02 -0.66591822889E+02  0.21975839356E+03  0.72750290188E+02 0.  0.
     200001    1    1    2    0    0 -0.38925155987E+02 -0.40106065556E+03 -0.83318394784E+03  0.11101032872E+04  0.61300000000E+03 0.  1.
         13    1    4    4    0    0 -0.44673881777E+02 -0.10947702550E+02 -0.45910744222E+02  0.64987810421E+02  0.10566000000E+00 0.  1.
    -200003    1    4    4    0    0 -0.14444162603E+03 -0.41986224650E+02 -0.20681078667E+02  0.15477058314E+03  0.30000000000E+02 0.  1.
    -200000    1    3    3    0    0  0.22804066379E+03  0.45399458276E+03 -0.32571864232E+03  0.61188827369E+03  0.10100000000E+03 0. -1.
<mgrwt>
<rscale>  0 0.15061727E+04</rscale>
<asrwt>0</asrwt>
<pdfrwt beam="1">  1        2 0.22623174E+00 0.15061727E+04</pdfrwt>
<pdfrwt beam="2">  1       -2 0.51161111E-01 0.15061727E+04</pdfrwt>
<totfact> 0.46086068E+01</totfact>
</mgrwt>
</event>
<event>
 8    2  0.4480234E-052  0.1981498E+04  0.7818608E-02  0.8615320E-01
          2   -1    0    0  501    0  0.00000000000E+00  0.00000000000E+00  0.14084387742E+04  0.14084387742E+04  0.25500000000E-02 0.  1.
         -2   -1    0    0    0  501 -0.00000000000E+00 -0.00000000000E+00 -0.69693040405E+03  0.69693040405E+03  0.25500000000E-02 0. -1.
    -200001    2    1    2    0    0  0.21073113232E+03 -0.56875992173E+03  0.87339972788E+03  0.12279449534E+04  0.61410607001E+03 0.  0.
   -5000001    2    3    3    0    0  0.39566209909E+03 -0.38521324633E+03  0.70492352369E+03  0.90164129743E+03  0.10536656579E+03 0.  0.
     200001    1    1    2    0    0 -0.21073113232E+03  0.56875992173E+03 -0.16189135770E+03  0.87742422488E+03  0.61300000000E+03 0. -1.
         13    1    4    4    0    0  0.22959950188E+02 -0.67060643151E+02  0.78750989105E+02  0.10595290757E+03  0.10566000000E+00 0.  1.
    -200003    1    4    4    0    0  0.37270214890E+03 -0.31815260318E+03  0.62617253459E+03  0.79568838987E+03  0.30000000000E+02 0.  1.
    -200000    1    3    3    0    0 -0.18493096676E+03 -0.18354667540E+03  0.16847620419E+03  0.32630365597E+03  0.10100000000E+03 0. -1.
<mgrwt>
<rscale>  0 0.19814982E+04</rscale>
<asrwt>0</asrwt>
<pdfrwt beam="1">  1        2 0.20120554E+00 0.19814982E+04</pdfrwt>
<pdfrwt beam="2">  1       -2 0.99561487E-01 0.19814982E+04</pdfrwt>
<totfact> 0.12766495E+01</totfact>
</mgrwt>
</event>
<event>
 8    2  0.4480234E-052  0.1288305E+04  0.7818608E-02  0.9038891E-01
          2   -1    0    0  501    0  0.00000000000E+00  0.00000000000E+00  0.16388274968E+04  0.16388274968E+04  0.25500000000E-02 0.  1.
         -2   -1    0    0    0  501 -0.00000000000E+00 -0.00000000000E+00 -0.25318855975E+03  0.25318855976E+03  0.25500000000E-02 0. -1.
    -200001    2    1    2    0    0  0.19227152198E+03  0.16444476459E+02  0.68468969452E+03  0.94104939070E+03  0.61606429776E+03 0.  0.
   -5000001    2    3    3    0    0  0.72623170592E+02  0.26141222726E+03  0.29553375980E+03  0.45528373892E+03  0.21525009239E+03 0.  0.
     200001    1    1    2    0    0 -0.19227152198E+03 -0.16444476459E+02  0.70094924250E+03  0.95096666583E+03  0.61300000000E+03 0. -1.
         13    1    4    4    0    0 -0.33586453206E+02 -0.19415515339E+02  0.64450575991E+02  0.75225660412E+02  0.10566000000E+00 0.  1.
    -200003    1    4    4    0    0  0.10620962380E+03  0.28082774259E+03  0.23108318381E+03  0.38005807850E+03  0.30000000000E+02 0.  1.
    -200000    1    3    3    0    0  0.11964835139E+03 -0.24496775080E+03  0.38915593473E+03  0.48576565179E+03  0.10100000000E+03 0.  1.
<mgrwt>
<rscale>  0 0.12883049E+04</rscale>
<asrwt>0</asrwt>
<pdfrwt beam="1">  1        2 0.23411822E+00 0.12883049E+04</pdfrwt>
<pdfrwt beam="2">  1       -2 0.36169794E-01 0.12883049E+04</pdfrwt>
<totfact> 0.87091372E+01</totfact>
</mgrwt>
</event>
<event>
 8    2  0.4480234E-052  0.1699507E+04  0.7818608E-02  0.8761646E-01
          2   -1    0    0  501    0  0.00000000000E+00  0.00000000000E+00  0.13899124129E+04  0.13899124129E+04  0.25500000000E-02 0.  1.
         -2   -1    0    0    0  501 -0.00000000000E+00 -0.00000000000E+00 -0.51951518249E+03  0.51951518250E+03  0.25500000000E-02 0. -1.
    -200001    2    1    2    0    0  0.28797353754E+03  0.14718087349E+03 -0.11701916822E+03  0.70304825534E+03  0.61318218806E+03 0.  0.
   -5000001    2    3    3    0    0  0.71445735583E+02  0.20643250084E+02  0.23488716208E+03  0.25927452418E+03  0.80750622716E+02 0.  0.
     200001    1    1    2    0    0 -0.28797353754E+03 -0.14718087349E+03  0.98741639867E+03  0.12063793401E+04  0.61300000000E+03 0.  1.
         13    1    4    4    0    0  0.68009535770E+02  0.13434402545E+02  0.10566814952E+03  0.12637859437E+03  0.10566000000E+00 0.  1.
    -200003    1    4    4    0    0  0.34361998123E+01  0.72088475385E+01  0.12921901257E+03  0.13289592981E+03  0.30000000000E+02 0.  1.
    -200000    1    3    3    0    0  0.21652780196E+03  0.12653762341E+03 -0.35190633031E+03  0.44377373116E+03  0.10100000000E+03 0. -1.
<mgrwt>
<rscale>  0 0.16995065E+04</rscale>
<asrwt>0</asrwt>
<pdfrwt beam="1">  1        2 0.19855891E+00 0.16995065E+04</pdfrwt>
<pdfrwt beam="2">  1       -2 0.74216456E-01 0.16995065E+04</pdfrwt>
<totfact> 0.26128673E+01</totfact>
</mgrwt>
</event>
<event>
 8    2  0.4480234E-052  0.1245288E+04  0.7818608E-02  0.9074114E-01
         -2   -1    0    0    0  501 -0.00000000000E+00  0.00000000000E+00  0.23940771002E+03  0.23940771004E+03  0.25500000000E-02 0. -1.
          2   -1    0    0  501    0  0.00000000000E+00 -0.00000000000E+00 -0.16193531377E+04  0.16193531377E+04  0.25500000000E-02 0.  1.
    -200001    2    1    2    0    0  0.51108251738E+02  0.66151993989E+02 -0.78629429450E+03  0.10013351614E+04  0.61434945118E+03 0.  0.
   -5000001    2    3    3    0    0 -0.11676833301E+03 -0.12611582222E+03 -0.68419518888E+03  0.70846200075E+03  0.65232705081E+02 0.  0.
     200001    1    1    2    0    0 -0.51108251738E+02 -0.66151993989E+02 -0.59365113319E+03  0.85742568636E+03  0.61300000000E+03 0. -1.
         13    1    4    4    0    0 -0.56830795136E+01 -0.18387883772E+02 -0.15793133509E+03  0.15909974679E+03  0.10566000000E+00 0.  1.
    -200003    1    4    4    0    0 -0.11108525349E+03 -0.10772793845E+03 -0.52626385379E+03  0.54936225395E+03  0.30000000000E+02 0.  1.
    -200000    1    3    3    0    0  0.16787658474E+03  0.19226781621E+03 -0.10209910563E+03  0.29287316064E+03  0.10100000000E+03 0. -1.
<mgrwt>
<rscale>  0 0.12452881E+04</rscale>
<asrwt>0</asrwt>
<pdfrwt beam="1">  1        2 0.23133616E+00 0.12452881E+04</pdfrwt>
<pdfrwt beam="2">  1       -2 0.34201102E-01 0.12452881E+04</pdfrwt>
<totfact> 0.99520570E+01</totfact>
</mgrwt>
</event>
<event>
 8    2  0.4480234E-052  0.1733495E+04  0.7818608E-02  0.8742488E-01
          2   -1    0    0  501    0  0.00000000000E+00  0.00000000000E+00  0.28108833354E+03  0.28108833355E+03  0.25500000000E-02 0.  1.
         -2   -1    0    0    0  501 -0.00000000000E+00 -0.00000000000E+00 -0.26726521557E+04  0.26726521557E+04  0.25500000000E-02 0. -1.
    -200001    2    1    2    0    0  0.43660192875E+03 -0.63569720691E+02 -0.19203374750E+04  0.20635238730E+04  0.61300277566E+03 0.  0.
   -5000001    2    3    3    0    0  0.13398489131E+02 -0.88393485609E+02 -0.18465037998E+03  0.27396301557E+03  0.18156828816E+03 0.  0.
     200001    1    1    2    0    0 -0.43660192875E+03  0.63569720691E+02 -0.47122634713E+03  0.89021661623E+03  0.61300000000E+03 0.  1.
         13    1    4    4    0    0  0.41654830842E+02 -0.38699544334E+02 -0.19973055606E+03  0.20766580328E+03  0.10566000000E+00 0.  1.
    -200003    1    4    4    0    0 -0.28256341711E+02 -0.49693941275E+02  0.15080176085E+02  0.66297212287E+02  0.30000000000E+02 0.  1.
    -200000    1    3    3    0    0  0.42320343962E+03  0.24823764918E+02 -0.17356870951E+04  0.17895608575E+04  0.10100000000E+03 0. -1.
<mgrwt>
<rscale>  0 0.17334951E+04</rscale>
<asrwt>0</asrwt>
<pdfrwt beam="1">  1        2 0.40155478E-01 0.17334951E+04</pdfrwt>
<pdfrwt beam="2">  1       -2 0.38180744E+00 0.17334951E+04</pdfrwt>
<totfact> 0.11957384E+00</totfact>
</mgrwt>
</event>
<event>
 8    2  0.4480234E-052  0.2215357E+04  0.7818608E-02  0.8512063E-01
         -2   -1    0    0    0  501 -0.00000000000E+00  0.00000000000E+00  0.45714828387E+03  0.45714828388E+03  0.25500000000E-02 0. -1.
          2   -1    0    0  501    0  0.00000000000E+00 -0.00000000000E+00 -0.26839239673E+04  0.26839239673E+04  0.25500000000E-02 0.  1.
    -200001    2    1    2    0    0 -0.33540359497E+03  0.40990633897E+03 -0.21850313418E+04  0.23298815410E+04  0.61111967079E+03 0.  0.
   -5000001    2    3    3    0    0 -0.33854238617E+03  0.17089896270E+03 -0.52410446795E+03  0.64880645096E+03  0.49466299735E+02 0.  0.
     200001    1    1    2    0    0  0.33540359497E+03 -0.40990633897E+03 -0.41744341608E+02  0.81119071019E+03  0.61300000000E+03 0. -1.
         13    1    4    4    0    0 -0.15213086199E+03  0.86289880620E+02 -0.22139380270E+03  0.28214352679E+03  0.10566000000E+00 0.  1.
    -200003    1    4    4    0    0 -0.18641152417E+03  0.84609082077E+02 -0.30271066525E+03  0.36666292418E+03  0.30000000000E+02 0. -1.
    -200000    1    3    3    0    0  0.31387911996E+01  0.23900737628E+03 -0.16609268739E+04  0.16810750900E+04  0.10100000000E+03 0.  1.
<mgrwt>
<rscale>  0 0.22153566E+04</rscale>
<asrwt>0</asrwt>
<pdfrwt beam="1">  1        2 0.38341770E+00 0.22153566E+04</pdfrwt>
<pdfrwt beam="2">  1       -2 0.65306899E-01 0.22153566E+04</pdfrwt>
<totfact> 0.69694269E+00</totfact>
</mgrwt>
</event>
<event>
 8    2  0.4480234E-052  0.2307913E+04  0.7818608E-02  0.8474808E-01
          2   -1    0    0  501    0  0.00000000000E+00  0.00000000000E+00  0.80004828241E+03  0.80004828242E+03  0.25500000000E-02 0.  1.
         -2   -1    0    0    0  501 -0.00000000000E+00 -0.00000000000E+00 -0.16644185345E+04  0.16644185345E+04  0.25500000000E-02 0. -1.
    -200001    2    1    2    0    0 -0.96948561222E+03 -0.75077924234E+02 -0.55400234866E+03  0.12738214951E+04  0.60841067709E+03 0.  0.
   -5000001    2    3    3    0    0 -0.35542370083E+03 -0.18669261893E+03  0.31832171690E+02  0.41188590797E+03  0.86351450225E+02 0.  0.
     200001    1    1    2    0    0  0.96948561222E+03  0.75077924234E+02 -0.31036790345E+03  0.11906453219E+04  0.61300000000E+03 0. -1.
         13    1    4    4    0    0 -0.13504980396E+03 -0.99986458972E+02 -0.14720985627E+02  0.16867857039E+03  0.10566000000E+00 0.  1.
    -200003    1    4    4    0    0 -0.22037389687E+03 -0.86706159953E+02  0.46553157317E+02  0.24320733758E+03  0.30000000000E+02 0.  1.
    -200000    1    3    3    0    0 -0.61406191138E+03  0.11161469469E+03 -0.58583452035E+03  0.86193558710E+03  0.10100000000E+03 0. -1.
<mgrwt>
<rscale>  0 0.23079126E+04</rscale>
<asrwt>0</asrwt>
<pdfrwt beam="1">  1        2 0.11429261E+00 0.23079126E+04</pdfrwt>
<pdfrwt beam="2">  1       -2 0.23777407E+00 0.23079126E+04</pdfrwt>
<totfact> 0.26443902E+00</totfact>
</mgrwt>
</event>
<event>
 8    2  0.4480234E-052  0.1854342E+04  0.7818608E-02  0.8677923E-01
         -2   -1    0    0    0  501 -0.00000000000E+00  0.00000000000E+00  0.93841456762E+03  0.93841456763E+03  0.25500000000E-02 0. -1.
          2   -1    0    0  501    0  0.00000000000E+00 -0.00000000000E+00 -0.91606192126E+03  0.91606192127E+03  0.25500000000E-02 0.  1.
    -200001    2    1    2    0    0  0.67441678755E+03  0.62500233380E+02 -0.14058149979E+03  0.92654286062E+03  0.61642049932E+03 0.  0.
   -5000001    2    3    3    0    0  0.74540279529E+03  0.10244005386E+03 -0.19990054270E+03  0.78387558544E+03  0.91550066161E+02 0.  0.
     200001    1    1    2    0    0 -0.67441678755E+03 -0.62500233380E+02  0.16293414615E+03  0.92793362828E+03  0.61300000000E+03 0. -1.
         13    1    4    4    0    0  0.18007158096E+03  0.63534762362E+01 -0.80606662438E+02  0.19739196063E+03  0.10566000000E+00 0.  1.
    -200003    1    4    4    0    0  0.56533121433E+03  0.96086577624E+02 -0.11929388026E+03  0.58648362481E+03  0.30000000000E+02 0.  1.
    -200000    1    3    3    0    0 -0.70986007740E+02 -0.39939820480E+02  0.59319042910E+02  0.14266727518E+03  0.10100000000E+03 0. -1.
<mgrwt>
<rscale>  0 0.18543418E+04</rscale>
<asrwt>0</asrwt>
<pdfrwt beam="1">  1        2 0.13086599E+00 0.18543418E+04</pdfrwt>
<pdfrwt beam="2">  1       -2 0.13405922E+00 0.18543418E+04</pdfrwt>
<totfact> 0.12022676E+01</totfact>
</mgrwt>
</event>
<event>
 8    2  0.4480234E-052  0.1309141E+04  0.7818608E-02  0.9022348E-01
         -2   -1    0    0    0  501 -0.00000000000E+00  0.00000000000E+00  0.58518938734E+03  0.58518938734E+03  0.25500000000E-02 0. -1.
          2   -1    0    0  501    0  0.00000000000E+00 -0.00000000000E+00 -0.73217713873E+03  0.73217713873E+03  0.25500000000E-02 0.  1.
    -200001    2    1    2    0    0  0.21990372674E+03  0.44240080907E+02 -0.21061596577E+02  0.65257992102E+03  0.61245581773E+03 0.  0.
   -5000001    2    3    3    0    0 -0.13156384522E+03  0.96802256412E+00  0.16540750983E+03  0.23981648657E+03  0.11332396254E+03 0.  0.
     200001    1    1    2    0    0 -0.21990372674E+03 -0.44240080907E+02 -0.12592615482E+03  0.66478660505E+03  0.61300000000E+03 0. -1.
         13    1    4    4    0    0 -0.90573910168E+02  0.48373790588E+02  0.11372525582E+03  0.15322239325E+03  0.10566000000E+00 0.  1.
    -200003    1    4    4    0    0 -0.40989935055E+02 -0.47405768024E+02  0.51682254015E+02  0.86594093320E+02  0.30000000000E+02 0.  1.
    -200000    1    3    3    0    0  0.35146757196E+03  0.43272058343E+02 -0.18646910641E+03  0.41276343445E+03  0.10100000000E+03 0.  1.
<mgrwt>
<rscale>  0 0.13091406E+04</rscale>
<asrwt>0</asrwt>
<pdfrwt beam="1">  1        2 0.10459673E+00 0.13091406E+04</pdfrwt>
<pdfrwt beam="2">  1       -2 0.83598484E-01 0.13091406E+04</pdfrwt>
<totfact> 0.52248586E+01</totfact>
</mgrwt>
</event>
<event>
 8    2  0.4480234E-052  0.1854366E+04  0.7818608E-02  0.8677911E-01
         -2   -1    0    0    0  501 -0.00000000000E+00  0.00000000000E+00  0.62886230944E+03  0.62886230945E+03  0.25500000000E-02 0. -1.
          2   -1    0    0  501    0  0.00000000000E+00 -0.00000000000E+00 -0.13670217509E+04  0.13670217509E+04  0.25500000000E-02 0.  1.
    -200001    2    1    2    0    0  0.45765942065E+03 -0.30055692701E+03  0.91463501344E+02  0.82805280590E+03  0.61442596429E+03 0.  0.
   -5000001    2    3    3    0    0 -0.13472444079E+02  0.31697492446E+02  0.67130100086E+02  0.24226159085E+03  0.23021292380E+03 0.  0.
     200001    1    1    2    0    0 -0.45765942065E+03  0.30055692701E+03 -0.82962294285E+03  0.11678312545E+04  0.61300000000E+03 0.  1.
         13    1    4    4    0    0 -0.56420571518E+02 -0.86581426359E+02  0.32788334545E+02  0.10841914188E+03  0.10566000000E+00 0.  1.
    -200003    1    4    4    0    0  0.42948127439E+02  0.11827891880E+03  0.34341765542E+02  0.13384244896E+03  0.30000000000E+02 0.  1.
    -200000    1    3    3    0    0  0.47113186473E+03 -0.33225441946E+03  0.24333401258E+02  0.58579121505E+03  0.10100000000E+03 0. -1.
<mgrwt>
<rscale>  0 0.18543662E+04</rscale>
<asrwt>0</asrwt>
<pdfrwt beam="1">  1        2 0.19528882E+00 0.18543662E+04</pdfrwt>
<pdfrwt beam="2">  1       -2 0.89837473E-01 0.18543662E+04</pdfrwt>
<totfact> 0.17261345E+01</totfact>
</mgrwt>
</event>
<event>
 8    2  0.4480234E-052  0.1596832E+04  0.7818608E-02  0.8822496E-01
          2   -1    0    0  501    0  0.00000000000E+00  0.00000000000E+00  0.34056488782E+04  0.34056488782E+04  0.25500000000E-02 0.  1.
         -2   -1    0    0    0  501 -0.00000000000E+00 -0.00000000000E+00 -0.18717968645E+03  0.18717968646E+03  0.25500000000E-02 0. -1.
    -200001    2    1    2    0    0 -0.88511410694E+02 -0.50256102226E+03  0.15270070012E+04  0.17227442904E+04  0.61294017438E+03 0.  0.
   -5000001    2    3    3    0    0  0.12085983466E+03 -0.47198805527E+03  0.13212270844E+04  0.14107869233E+04  0.85433661559E+02 0.  0.
     200001    1    1    2    0    0  0.88511410694E+02  0.50256102226E+03  0.16914621906E+04  0.18700842743E+04  0.61300000000E+03 0.  1.
         13    1    4    4    0    0 -0.78903686826E+01 -0.80797053625E+02  0.19352619410E+03  0.20986381479E+03  0.10566000000E+00 0.  1.
    -200003    1    4    4    0    0  0.12875020334E+03 -0.39119100165E+03  0.11277008903E+04  0.12009231086E+04  0.30000000000E+02 0.  1.
    -200000    1    3    3    0    0 -0.20937124536E+03 -0.30572966988E+02  0.20577991681E+03  0.31195736704E+03  0.10100000000E+03 0. -1.
<mgrwt>
<rscale>  0 0.15968322E+04</rscale>
<asrwt>0</asrwt>
<pdfrwt beam="1">  1        2 0.48652125E+00 0.15968322E+04</pdfrwt>
<pdfrwt beam="2">  1       -2 0.26739956E-01 0.15968322E+04</pdfrwt>
<totfact> 0.16849831E+01</totfact>
</mgrwt>
</event>
<event>
 8    2  0.4480234E-052  0.1623463E+04  0.7818608E-02  0.8806262E-01
         -2   -1    0    0    0  501 -0.00000000000E+00  0.00000000000E+00  0.52074479814E+03  0.52074479814E+03  0.25500000000E-02 0. -1.
          2   -1    0    0  501    0  0.00000000000E+00 -0.00000000000E+00 -0.12653192273E+04  0.12653192274E+04  0.25500000000E-02 0.  1.
    -200001    2    1    2    0    0 -0.23607908651E+02  0.33526419490E+03 -0.82661296271E+03  0.10821757285E+04  0.61225477001E+03 0.  0.
   -5000001    2    3    3    0    0  0.19053582783E+03 -0.84774890996E+01 -0.38810484821E+03  0.47677813044E+03  0.20078905089E+03 0.  0.
     200001    1    1    2    0    0  0.23607908651E+02 -0.33526419490E+03  0.82038533501E+02  0.70388829704E+03  0.61300000000E+03 0. -1.
         13    1    4    4    0    0  0.88993176812E+02 -0.40187394825E+02 -0.34431226968E+03  0.35789071298E+03  0.10566000000E+00 0.  1.
    -200003    1    4    4    0    0  0.10154265102E+03  0.31709905726E+02 -0.43792578527E+02  0.11888741746E+03  0.30000000000E+02 0.  1.
    -200000    1    3    3    0    0 -0.21414373648E+03  0.34374168400E+03 -0.43850811451E+03  0.60539759801E+03  0.10100000000E+03 0.  1.
<mgrwt>
<rscale>  0 0.16234635E+04</rscale>
<asrwt>0</asrwt>
<pdfrwt beam="1">  1        2 0.18075989E+00 0.16234635E+04</pdfrwt>
<pdfrwt beam="2">  1       -2 0.74392115E-01 0.16234635E+04</pdfrwt>
<totfact> 0.30620122E+01</totfact>
</mgrwt>
</event>
<event>
 8    2  0.4480234E-052  0.1667302E+04  0.7818608E-02  0.8780236E-01
         -2   -1    0    0    0  501 -0.00000000000E+00  0.00000000000E+00  0.67201683710E+03  0.67201683711E+03  0.25500000000E-02 0. -1.
          2   -1    0    0  501    0  0.00000000000E+00 -0.00000000000E+00 -0.10341613106E+04  0.10341613106E+04  0.25500000000E-02 0.  1.
    -200001    2    1    2    0    0  0.40956636481E+03  0.25463175387E+02  0.21665016720E+03  0.76854004237E+03  0.61263653278E+03 0.  0.
   -5000001    2    3    3    0    0  0.63102009736E+02 -0.13152398128E+03 -0.15169466484E+03  0.22950253719E+03  0.91540821233E+02 0.  0.
     200001    1    1    2    0    0 -0.40956636481E+03 -0.25463175387E+02 -0.57879464071E+03  0.93763810535E+03  0.61300000000E+03 0.  1.
         13    1    4    4    0    0  0.43192462524E+02 -0.12842423907E+03 -0.11170544551E+03  0.17560322241E+03  0.10566000000E+00 0.  1.
    -200003    1    4    4    0    0  0.19909547211E+02 -0.30997422166E+01 -0.39989219329E+02  0.53899314787E+02  0.30000000000E+02 0.  1.
    -200000    1    3    3    0    0  0.34646435508E+03  0.15698715667E+03  0.36834483204E+03  0.53903750518E+03  0.10100000000E+03 0. -1.
<mgrwt>
<rscale>  0 0.16673018E+04</rscale>
<asrwt>0</asrwt>
<pdfrwt beam="1">  1        2 0.14773733E+00 0.16673018E+04</pdfrwt>
<pdfrwt beam="2">  1       -2 0.96002405E-01 0.16673018E+04</pdfrwt>
<totfact> 0.23279692E+01</totfact>
</mgrwt>
</event>
<event>
 8    2  0.4480234E-052  0.2014744E+04  0.7818608E-02  0.8599758E-01
         -2   -1    0    0    0  501 -0.00000000000E+00  0.00000000000E+00  0.31251258782E+03  0.31251258783E+03  0.25500000000E-02 0. -1.
          2   -1    0    0  501    0  0.00000000000E+00 -0.00000000000E+00 -0.32472231894E+04  0.32472231894E+04  0.25500000000E-02 0.  1.
    -200001    2    1    2    0    0 -0.62652901229E+03  0.48776535837E+03 -0.12989395599E+04  0.16408898874E+04  0.61222707739E+03 0.  0.
   -5000001    2    3    3    0    0 -0.17500829097E+03  0.18694991150E+03 -0.82263609841E+03  0.91189957042E+03  0.29875157708E+03 0.  0.
     200001    1    1    2    0    0  0.62652901229E+03 -0.48776535837E+03 -0.16357710417E+04  0.19188458898E+04  0.61300000000E+03 0. -1.
         13    1    4    4    0    0 -0.19628485296E+02  0.22890450888E+03 -0.47533951321E+03  0.52794906535E+03  0.10566000000E+00 0.  1.
    -200003    1    4    4    0    0 -0.15537980568E+03 -0.41954597380E+02 -0.34729658520E+03  0.38395050507E+03  0.30000000000E+02 0.  1.
    -200000    1    3    3    0    0 -0.45152072131E+03  0.30081544687E+03 -0.47630346151E+03  0.72899031701E+03  0.10100000000E+03 0.  1.
<mgrwt>
<rscale>  0 0.20147438E+04</rscale>
<asrwt>0</asrwt>
<pdfrwt beam="1">  1        2 0.46388901E+00 0.20147438E+04</pdfrwt>
<pdfrwt beam="2">  1       -2 0.44644657E-01 0.20147438E+04</pdfrwt>
<totfact> 0.75600941E+00</totfact>
</mgrwt>
</event>
<event>
 8    2  0.4480234E-052  0.4471010E+04  0.7818608E-02  0.7915732E-01
          2   -1    0    0  501    0  0.00000000000E+00  0.00000000000E+00  0.24967068330E+04  0.24967068330E+04  0.25500000000E-02 0.  1.
         -2   -1    0    0    0  501 -0.00000000000E+00 -0.00000000000E+00 -0.20016293674E+04  0.20016293674E+04  0.25500000000E-02 0. -1.
    -200001    2    1    2    0    0 -0.14726635451E+03  0.98237118850E+03  0.21657717521E+04  0.24602662973E+04  0.61286412874E+03 0.  0.
   -5000001    2    3    3    0    0  0.22495495659E+02  0.78215463265E+03  0.19540281775E+04  0.21082121873E+04  0.11857736424E+03 0.  0.
     200001    1    1    2    0    0  0.14726635451E+03 -0.98237118850E+03 -0.16706942864E+04  0.20380699031E+04  0.61300000000E+03 0. -1.
         13    1    4    4    0    0  0.23756162056E+02  0.39761707862E+03  0.84886964765E+03  0.93767978880E+03  0.10566000000E+00 0.  1.
    -200003    1    4    4    0    0 -0.12606663972E+01  0.38453755403E+03  0.11051585299E+04  0.11705323985E+04  0.30000000000E+02 0.  1.
    -200000    1    3    3    0    0 -0.16976185017E+03  0.20021655585E+03  0.21174357454E+03  0.35205410999E+03  0.10100000000E+03 0. -1.
<mgrwt>
<rscale>  0 0.44710096E+04</rscale>
<asrwt>0</asrwt>
<pdfrwt beam="1">  1        2 0.35667240E+00 0.44710096E+04</pdfrwt>
<pdfrwt beam="2">  1       -2 0.28594705E+00 0.44710096E+04</pdfrwt>
<totfact> 0.13189171E-01</totfact>
</mgrwt>
</event>
<event>
 8    2  0.4480234E-052  0.3992761E+04  0.7818608E-02  0.8006008E-01
          2   -1    0    0  501    0  0.00000000000E+00  0.00000000000E+00  0.18298443639E+04  0.18298443639E+04  0.25500000000E-02 0.  1.
         -2   -1    0    0    0  501 -0.00000000000E+00 -0.00000000000E+00 -0.21780735005E+04  0.21780735005E+04  0.25500000000E-02 0. -1.
    -200001    2    1    2    0    0 -0.10965206527E+04 -0.15325056854E+04 -0.41535073049E+03  0.20251910739E+04  0.61477755222E+03 0.  0.
   -5000001    2    3    3    0    0 -0.71783126233E+03 -0.92698635568E+03  0.28570988151E+02  0.11782395963E+04  0.11334381388E+03 0.  0.
     200001    1    1    2    0    0  0.10965206527E+04  0.15325056854E+04  0.67121593815E+02  0.19827267906E+04  0.61300000000E+03 0. -1.
         13    1    4    4    0    0 -0.83906392071E+02 -0.69141901237E+02 -0.17712038056E+02  0.11015721762E+03  0.10566000000E+00 0.  1.
    -200003    1    4    4    0    0 -0.63392487026E+03 -0.85784445444E+03  0.46283026207E+02  0.10680823787E+04  0.30000000000E+02 0.  1.
    -200000    1    3    3    0    0 -0.37868939040E+03 -0.60551932972E+03 -0.44392171864E+03  0.84695147756E+03  0.10100000000E+03 0. -1.
<mgrwt>
<rscale>  0 0.39927612E+04</rscale>
<asrwt>0</asrwt>
<pdfrwt beam="1">  1        2 0.26140634E+00 0.39927612E+04</pdfrwt>
<pdfrwt beam="2">  1       -2 0.31115335E+00 0.39927612E+04</pdfrwt>
<totfact> 0.21273668E-01</totfact>
</mgrwt>
</event>
<event>
 8    2  0.4480234E-052  0.1447929E+04  0.7818608E-02  0.8919838E-01
         -2   -1    0    0    0  501 -0.00000000000E+00  0.00000000000E+00  0.27065569958E+03  0.27065569959E+03  0.25500000000E-02 0. -1.
          2   -1    0    0  501    0  0.00000000000E+00 -0.00000000000E+00 -0.19364985778E+04  0.19364985778E+04  0.25500000000E-02 0.  1.
    -200001    2    1    2    0    0 -0.37980283346E+03 -0.65093898413E+02 -0.83907595062E+03  0.11081547503E+04  0.61275695985E+03 0.  0.
   -5000001    2    3    3    0    0 -0.91683575378E+02 -0.71230796016E+02 -0.78388016527E+03  0.79783565147E+03  0.92703338429E+02 0.  0.
     200001    1    1    2    0    0  0.37980283346E+03  0.65093898413E+02 -0.82676692762E+03  0.10989995271E+04  0.61300000000E+03 0. -1.
         13    1    4    4    0    0 -0.47787522613E+02 -0.27531485181E+02 -0.14293137701E+03  0.15320254466E+03  0.10566000000E+00 0.  1.
    -200003    1    4    4    0    0 -0.43896052765E+02 -0.43699310835E+02 -0.64094878827E+03  0.64463310681E+03  0.30000000000E+02 0.  1.
    -200000    1    3    3    0    0 -0.28811925808E+03  0.61368976029E+01 -0.55195785344E+02  0.31031909885E+03  0.10100000000E+03 0. -1.
<mgrwt>
<rscale>  0 0.14479287E+04</rscale>
<asrwt>0</asrwt>
<pdfrwt beam="1">  1        2 0.27664265E+00 0.14479287E+04</pdfrwt>
<pdfrwt beam="2">  1       -2 0.38665101E-01 0.14479287E+04</pdfrwt>
<totfact> 0.53090119E+01</totfact>
</mgrwt>
</event>
<event>
 8    2  0.4480234E-052  0.1566377E+04  0.7818608E-02  0.8841474E-01
         -2   -1    0    0    0  501 -0.00000000000E+00  0.00000000000E+00  0.26669861208E+03  0.26669861209E+03  0.25500000000E-02 0. -1.
          2   -1    0    0  501    0  0.00000000000E+00 -0.00000000000E+00 -0.22999157161E+04  0.22999157161E+04  0.25500000000E-02 0.  1.
    -200001    2    1    2    0    0  0.25778282010E+03  0.64039409175E+02 -0.33284359271E+03  0.73970652914E+03  0.60483705556E+03 0.  0.
   -5000001    2    3    3    0    0 -0.15220419189E+03  0.93476305024E+02 -0.28448703445E+02  0.21834952147E+03  0.12232436050E+03 0.  0.
     200001    1    1    2    0    0 -0.25778282010E+03 -0.64039409175E+02 -0.17003735113E+04  0.18269077990E+04  0.61300000000E+03 0.  1.
         13    1    4    4    0    0 -0.85035822050E+02  0.11189837493E+03 -0.15150753238E+02  0.14135732677E+03  0.10566000000E+00 0.  1.
    -200003    1    4    4    0    0 -0.67168369836E+02 -0.18422069904E+02 -0.13297950207E+02  0.76992194706E+02  0.30000000000E+02 0.  1.
    -200000    1    3    3    0    0  0.40998701199E+03 -0.29436895850E+02 -0.30439488927E+03  0.52135700767E+03  0.10100000000E+03 0.  1.
<mgrwt>
<rscale>  0 0.15663771E+04</rscale>
<asrwt>0</asrwt>
<pdfrwt beam="1">  1        2 0.32855938E+00 0.15663771E+04</pdfrwt>
<pdfrwt beam="2">  1       -2 0.38099803E-01 0.15663771E+04</pdfrwt>
<totfact> 0.35171303E+01</totfact>
</mgrwt>
</event>
<event>
 8    2  0.4480234E-052  0.1270052E+04  0.7818608E-02  0.9053657E-01
          2   -1    0    0  501    0  0.00000000000E+00  0.00000000000E+00  0.81261988285E+03  0.81261988285E+03  0.25500000000E-02 0.  1.
         -2   -1    0    0    0  501 -0.00000000000E+00 -0.00000000000E+00 -0.49624413948E+03  0.49624413949E+03  0.25500000000E-02 0. -1.
    -200001    2    1    2    0    0  0.42204871835E+02  0.93020299346E+02  0.28690970912E+02  0.62405342400E+03  0.61496786655E+03 0.  0.
   -5000001    2    3    3    0    0  0.21821437612E+03  0.25700887464E+03  0.86109692196E+02  0.35690270253E+03  0.79332114512E+02 0.  0.
     200001    1    1    2    0    0 -0.42204871835E+02 -0.93020299346E+02  0.28768477246E+03  0.68481059834E+03  0.61300000000E+03 0.  1.
         13    1    4    4    0    0  0.15660603767E+03  0.17974020537E+03  0.86566372593E+02  0.25362519687E+03  0.10566000000E+00 0.  1.
    -200003    1    4    4    0    0  0.61608338448E+02  0.77268669275E+02 -0.45668039694E+00  0.10327750566E+03  0.30000000000E+02 0.  1.
    -200000    1    3    3    0    0 -0.17600950428E+03 -0.16398857530E+03 -0.57418721284E+02  0.26715072147E+03  0.10100000000E+03 0. -1.
<mgrwt>
<rscale>  0 0.12700517E+04</rscale>
<asrwt>0</asrwt>
<pdfrwt beam="1">  1        2 0.11608855E+00 0.12700517E+04</pdfrwt>
<pdfrwt beam="2">  1       -2 0.70892021E-01 0.12700517E+04</pdfrwt>
<totfact> 0.66231889E+01</totfact>
</mgrwt>
</event>
<event>
 8    2  0.4480234E-052  0.2400636E+04  0.7818608E-02  0.8439265E-01
          2   -1    0    0  501    0  0.00000000000E+00  0.00000000000E+00  0.22986609648E+04  0.22986609648E+04  0.25500000000E-02 0.  1.
         -2   -1    0    0    0  501 -0.00000000000E+00 -0.00000000000E+00 -0.62678397766E+03  0.62678397767E+03  0.25500000000E-02 0. -1.
    -200001    2    1    2    0    0  0.47037619146E+03 -0.34073992835E+03  0.18754955064E+04  0.20567752920E+04  0.61276728615E+03 0.  0.
   -5000001    2    3    3    0    0 -0.98295542664E+01  0.76672102184E+02  0.83833789810E+02  0.15281020089E+03  0.10172326082E+03 0.  0.
     200001    1    1    2    0    0 -0.47037619146E+03  0.34073992835E+03 -0.20361851927E+03  0.86866965047E+03  0.61300000000E+03 0. -1.
         13    1    4    4    0    0 -0.21630893776E+02  0.88958844412E+02  0.49236023007E+02  0.10395079937E+03  0.10566000000E+00 0.  1.
    -200003    1    4    4    0    0  0.11801339509E+02 -0.12286742228E+02  0.34597766803E+02  0.48859401516E+02  0.30000000000E+02 0.  1.
    -200000    1    3    3    0    0  0.48020574572E+03 -0.41741203053E+03  0.17916617166E+04  0.19039650911E+04  0.10100000000E+03 0.  1.
<mgrwt>
<rscale>  0 0.24006365E+04</rscale>
<asrwt>0</asrwt>
<pdfrwt beam="1">  1        2 0.32838014E+00 0.24006365E+04</pdfrwt>
<pdfrwt beam="2">  1       -2 0.89540568E-01 0.24006365E+04</pdfrwt>
<totfact> 0.54331407E+00</totfact>
</mgrwt>
</event>
<event>
 8    2  0.4480234E-052  0.1272625E+04  0.7818608E-02  0.9051560E-01
         -2   -1    0    0    0  501 -0.00000000000E+00  0.00000000000E+00  0.26782467357E+03  0.26782467358E+03  0.25500000000E-02 0.  1.
          2   -1    0    0  501    0  0.00000000000E+00 -0.00000000000E+00 -0.15117855343E+04  0.15117855343E+04  0.25500000000E-02 0. -1.
    -200001    2    1    2    0    0 -0.47854914011E+02  0.16045106800E+03 -0.57759606345E+03  0.85882484687E+03  0.61312989413E+03 0.  0.
   -5000001    2    3    3    0    0  0.16855463427E+03 -0.14584918541E+03 -0.14893485654E+03  0.28037487657E+03  0.82133003714E+02 0.  0.
     200001    1    1    2    0    0  0.47854914011E+02 -0.16045106800E+03 -0.66636479729E+03  0.92078536103E+03  0.61300000000E+03 0. -1.
         13    1    4    4    0    0  0.70471074543E+01 -0.27426851305E+02  0.11092295543E+01  0.28339644497E+02  0.10566000000E+00 0.  1.
    -200003    1    4    4    0    0  0.16150752682E+03 -0.11842233411E+03 -0.15004408609E+03  0.25203523207E+03  0.30000000000E+02 0.  1.
    -200000    1    3    3    0    0 -0.21640954828E+03  0.30630025341E+03 -0.42866120691E+03  0.57844997030E+03  0.10100000000E+03 0. -1.
<mgrwt>
<rscale>  0 0.12726248E+04</rscale>
<asrwt>0</asrwt>
<pdfrwt beam="1">  1        2 0.21596936E+00 0.12726248E+04</pdfrwt>
<pdfrwt beam="2">  1       -2 0.38260669E-01 0.12726248E+04</pdfrwt>
<totfact> 0.91243327E+01</totfact>
</mgrwt>
</event>
<event>
 8    2  0.4480234E-052  0.1634508E+04  0.7818608E-02  0.8799625E-01
          2   -1    0    0  501    0  0.00000000000E+00  0.00000000000E+00  0.20923486199E+04  0.20923486199E+04  0.25500000000E-02 0.  1.
         -2   -1    0    0    0  501 -0.00000000000E+00 -0.00000000000E+00 -0.31921259652E+03  0.31921259653E+03  0.25500000000E-02 0. -1.
    -200001    2    1    2    0    0 -0.35962561782E+03 -0.11542013576E+03  0.31683531764E+03  0.78698953802E+03  0.61344561432E+03 0.  0.
   -5000001    2    3    3    0    0  0.12790387178E+03  0.90166142413E+02  0.37247757415E+02  0.18009504569E+03  0.80978369915E+02 0.  0.
     200001    1    1    2    0    0  0.35962561782E+03  0.11542013576E+03  0.14563007057E+04  0.16245716784E+04  0.61300000000E+03 0.  1.
         13    1    4    4    0    0  0.30958306132E+02  0.56955478560E+02 -0.55442788251E+01  0.65062227508E+02  0.10566000000E+00 0.  1.
    -200003    1    4    4    0    0  0.96945565647E+02  0.33210663854E+02  0.42792036240E+02  0.11503281818E+03  0.30000000000E+02 0.  1.
    -200000    1    3    3    0    0 -0.48752948960E+03 -0.20558627817E+03  0.27958756023E+03  0.60689449234E+03  0.10100000000E+03 0. -1.
<mgrwt>
<rscale>  0 0.16345079E+04</rscale>
<asrwt>0</asrwt>
<pdfrwt beam="1">  1        2 0.29890693E+00 0.16345079E+04</pdfrwt>
<pdfrwt beam="2">  1       -2 0.45601801E-01 0.16345079E+04</pdfrwt>
<totfact> 0.31420135E+01</totfact>
</mgrwt>
</event>
<event>
 8    2  0.4480234E-052  0.1245782E+04  0.7818608E-02  0.9073702E-01
         -2   -1    0    0    0  501 -0.00000000000E+00  0.00000000000E+00  0.39010743461E+03  0.39010743462E+03  0.25500000000E-02 0. -1.
          2   -1    0    0  501    0  0.00000000000E+00 -0.00000000000E+00 -0.99457957765E+03  0.99457957765E+03  0.25500000000E-02 0.  1.
    -200001    2    1    2    0    0 -0.95970968852E+02  0.50664839808E+02 -0.32095680346E+03  0.70063489392E+03  0.61326880895E+03 0.  0.
   -5000001    2    3    3    0    0 -0.70662706997E+02 -0.23019464894E+03  0.96356728217E+01  0.25452398180E+03  0.81895155901E+02 0.  0.
     200001    1    1    2    0    0  0.95970968852E+02 -0.50664839808E+02 -0.28351533957E+03  0.68405211836E+03  0.61300000000E+03 0. -1.
         13    1    4    4    0    0  0.13710905023E+02 -0.65064093603E+02  0.24616991518E+01  0.66538682882E+02  0.10566000000E+00 0.  1.
    -200003    1    4    4    0    0 -0.84373612020E+02 -0.16513055533E+03  0.71739736699E+01  0.18798529891E+03  0.30000000000E+02 0.  1.
    -200000    1    3    3    0    0 -0.25308261855E+02  0.28085948874E+03 -0.33059247629E+03  0.44611091212E+03  0.10100000000E+03 0.  1.
<mgrwt>
<rscale>  0 0.12457815E+04</rscale>
<asrwt>0</asrwt>
<pdfrwt beam="1">  1        2 0.14208280E+00 0.12457815E+04</pdfrwt>
<pdfrwt beam="2">  1       -2 0.55729634E-01 0.12457815E+04</pdfrwt>
<totfact> 0.84270276E+01</totfact>
</mgrwt>
</event>
<event>
 8    2  0.4480234E-052  0.1486280E+04  0.7818608E-02  0.8893628E-01
          2   -1    0    0  501    0  0.00000000000E+00  0.00000000000E+00  0.55571876858E+03  0.55571876859E+03  0.25500000000E-02 0.  1.
         -2   -1    0    0    0  501 -0.00000000000E+00 -0.00000000000E+00 -0.99377138347E+03  0.99377138347E+03  0.25500000000E-02 0. -1.
    -200001    2    1    2    0    0 -0.41711810025E+03  0.48088135765E+02 -0.20245082943E+03  0.77001777945E+03  0.61289563873E+03 0.  0.
   -5000001    2    3    3    0    0 -0.70295363199E+02 -0.81257315409E+02 -0.33912309304E+03  0.36271375993E+03  0.70799788241E+02 0.  0.
     200001    1    1    2    0    0  0.41711810025E+03 -0.48088135765E+02 -0.23560178546E+03  0.77947237261E+03  0.61300000000E+03 0.  1.
         13    1    4    4    0    0  0.56090635941E+01 -0.30825636819E+02 -0.62278779673E+02  0.69716131858E+02  0.10566000000E+00 0.  1.
    -200003    1    4    4    0    0 -0.75904426793E+02 -0.50431678590E+02 -0.27684431337E+03  0.29299762807E+03  0.30000000000E+02 0.  1.
    -200000    1    3    3    0    0 -0.34682273705E+03  0.12934545117E+03  0.13667226361E+03  0.40730401952E+03  0.10100000000E+03 0.  1.
<mgrwt>
<rscale>  0 0.14862805E+04</rscale>
<asrwt>0</asrwt>
<pdfrwt beam="1">  1        2 0.79388397E-01 0.14862805E+04</pdfrwt>
<pdfrwt beam="2">  1       -2 0.14196734E+00 0.14862805E+04</pdfrwt>
<totfact> 0.19924063E+01</totfact>
</mgrwt>
</event>
<event>
 8    2  0.4480234E-052  0.1436400E+04  0.7818608E-02  0.8927884E-01
         -2   -1    0    0    0  501 -0.00000000000E+00  0.00000000000E+00  0.36026003381E+03  0.36026003382E+03  0.25500000000E-02 0. -1.
          2   -1    0    0  501    0  0.00000000000E+00 -0.00000000000E+00 -0.14317743687E+04  0.14317743687E+04  0.25500000000E-02 0.  1.
    -200001    2    1    2    0    0 -0.39813085398E+02  0.22510755486E+03 -0.90416128763E+03  0.11167311111E+04  0.61426561627E+03 0.  0.
   -5000001    2    3    3    0    0 -0.57231059282E+02  0.40115794633E+03 -0.77006198368E+03  0.87284435563E+03  0.68254804960E+02 0.  0.
     200001    1    1    2    0    0  0.39813085398E+02 -0.22510755486E+03 -0.16735304725E+03  0.67530329145E+03  0.61300000000E+03 0. -1.
         13    1    4    4    0    0 -0.76369482006E+01  0.13071078723E+03 -0.19725596885E+03  0.23675633315E+03  0.10566000000E+00 0.  1.
    -200003    1    4    4    0    0 -0.49594111081E+02  0.27044715910E+03 -0.57280601482E+03  0.63608802248E+03  0.30000000000E+02 0.  1.
    -200000    1    3    3    0    0  0.17417973884E+02 -0.17605039148E+03 -0.13409930396E+03  0.24388675543E+03  0.10100000000E+03 0.  1.
<mgrwt>
<rscale>  0 0.14363998E+04</rscale>
<asrwt>0</asrwt>
<pdfrwt beam="1">  1        2 0.20453919E+00 0.14363998E+04</pdfrwt>
<pdfrwt beam="2">  1       -2 0.51465720E-01 0.14363998E+04</pdfrwt>
<totfact> 0.55118537E+01</totfact>
</mgrwt>
</event>
<event>
 8    2  0.4480234E-052  0.1391283E+04  0.7818608E-02  0.8960152E-01
          2   -1    0    0  501    0  0.00000000000E+00  0.00000000000E+00  0.37223283428E+03  0.37223283428E+03  0.25500000000E-02 0.  1.
         -2   -1    0    0    0  501 -0.00000000000E+00 -0.00000000000E+00 -0.13000394539E+04  0.13000394539E+04  0.25500000000E-02 0. -1.
    -200001    2    1    2    0    0  0.94785551565E+02  0.28206419406E+03 -0.63468456158E+03  0.93049465893E+03  0.61192426593E+03 0.  0.
   -5000001    2    3    3    0    0  0.15129686901E+03  0.21179107705E+03 -0.72004146149E+03  0.77043641848E+03  0.85827535013E+02 0.  0.
     200001    1    1    2    0    0 -0.94785551565E+02 -0.28206419406E+03 -0.29312205804E+03  0.74177762926E+03  0.61300000000E+03 0. -1.
         13    1    4    4    0    0  0.71936673415E+01  0.37604422739E+02 -0.18332182127E+03  0.18727718168E+03  0.10566000000E+00 0.  1.
    -200003    1    4    4    0    0  0.14410320166E+03  0.17418665431E+03 -0.53671964022E+03  0.58315923681E+03  0.30000000000E+02 0.  1.
    -200000    1    3    3    0    0 -0.56511317441E+02  0.70273117007E+02  0.85356899910E+02  0.16005824045E+03  0.10100000000E+03 0.  1.
<mgrwt>
<rscale>  0 0.13912834E+04</rscale>
<asrwt>0</asrwt>
<pdfrwt beam="1">  1        2 0.53176120E-01 0.13912834E+04</pdfrwt>
<pdfrwt beam="2">  1       -2 0.18571992E+00 0.13912834E+04</pdfrwt>
<totfact> 0.15134591E+01</totfact>
</mgrwt>
</event>
<event>
 8    2  0.4480234E-052  0.1511891E+04  0.7818608E-02  0.8876584E-01
          2   -1    0    0  501    0  0.00000000000E+00  0.00000000000E+00  0.12630905106E+04  0.12630905106E+04  0.25500000000E-02 0.  1.
         -2   -1    0    0    0  501 -0.00000000000E+00 -0.00000000000E+00 -0.45242480680E+03  0.45242480681E+03  0.25500000000E-02 0. -1.
    -200001    2    1    2    0    0  0.26353422265E+03  0.16524385651E+03  0.48298283474E+02  0.68900233541E+03  0.61289124271E+03 0.  0.
   -5000001    2    3    3    0    0  0.35007561218E+03 -0.39807253271E+02 -0.13340841434E+03  0.38444742451E+03  0.76579798507E+02 0.  0.
     200001    1    1    2    0    0 -0.26353422265E+03 -0.16524385651E+03  0.76236742029E+03  0.10265129820E+04  0.61300000000E+03 0. -1.
         13    1    4    4    0    0  0.25410876624E+03 -0.47359310965E+02 -0.11011606259E+03  0.28096214659E+03  0.10566000000E+00 0.  1.
    -200003    1    4    4    0    0  0.95966845942E+02  0.75520576937E+01 -0.23292351752E+02  0.10348527792E+03  0.30000000000E+02 0.  1.
    -200000    1    3    3    0    0 -0.86541389527E+02  0.20505110978E+03  0.18170669781E+03  0.30455491090E+03  0.10100000000E+03 0. -1.
<mgrwt>
<rscale>  0 0.15118908E+04</rscale>
<asrwt>0</asrwt>
<pdfrwt beam="1">  1        2 0.18044150E+00 0.15118908E+04</pdfrwt>
<pdfrwt beam="2">  1       -2 0.64632117E-01 0.15118908E+04</pdfrwt>
<totfact> 0.42067767E+01</totfact>
</mgrwt>
</event>
<event>
 8    2  0.4480234E-052  0.1852017E+04  0.7818608E-02  0.8679116E-01
         -2   -1    0    0    0  501 -0.00000000000E+00  0.00000000000E+00  0.65268180333E+03  0.65268180334E+03  0.25500000000E-02 0. -1.
          2   -1    0    0  501    0  0.00000000000E+00 -0.00000000000E+00 -0.13137976867E+04  0.13137976867E+04  0.25500000000E-02 0.  1.
    -200001    2    1    2    0    0  0.68238889742E+03 -0.12112264915E+03 -0.36125436897E+03  0.99384840308E+03  0.61392558649E+03 0.  0.
   -5000001    2    3    3    0    0  0.76595599544E+03 -0.53403592668E+02 -0.34230250541E+03  0.84508851731E+03  0.86389039999E+02 0.  0.
     200001    1    1    2    0    0 -0.68238889742E+03  0.12112264915E+03 -0.29986151436E+03  0.97263108693E+03  0.61300000000E+03 0.  1.
         13    1    4    4    0    0  0.57616256190E+03 -0.66572608182E+02 -0.25226310215E+03  0.63248074577E+03  0.10566000000E+00 0.  1.
    -200003    1    4    4    0    0  0.18979343354E+03  0.13169015514E+02 -0.90039403253E+02  0.21260777155E+03  0.30000000000E+02 0.  1.
    -200000    1    3    3    0    0 -0.83567098015E+02 -0.67719056486E+02 -0.18951863566E+02  0.14875988577E+03  0.10100000000E+03 0.  1.
<mgrwt>
<rscale>  0 0.18520171E+04</rscale>
<asrwt>0</asrwt>
<pdfrwt beam="1">  1        2 0.18768538E+00 0.18520171E+04</pdfrwt>
<pdfrwt beam="2">  1       -2 0.93240258E-01 0.18520171E+04</pdfrwt>
<totfact> 0.16942888E+01</totfact>
</mgrwt>
</event>
<event>
 8    2  0.4480234E-052  0.1279537E+04  0.7818608E-02  0.9045952E-01
         -2   -1    0    0    0  501 -0.00000000000E+00  0.00000000000E+00  0.13126731268E+03  0.13126731270E+03  0.25500000000E-02 0. -1.
          2   -1    0    0  501    0  0.00000000000E+00 -0.00000000000E+00 -0.31180916580E+04  0.31180916580E+04  0.25500000000E-02 0.  1.
    -200001    2    1    2    0    0  0.12625573261E+03 -0.10864704026E+03 -0.16451998635E+04  0.17649500177E+04  0.61694512312E+03 0.  0.
   -5000001    2    3    3    0    0  0.36197248527E+03 -0.95189495103E+02 -0.10118951727E+04  0.10815618964E+04  0.75889229521E+02 0.  0.
     200001    1    1    2    0    0 -0.12625573261E+03  0.10864704026E+03 -0.13416244819E+04  0.14844089530E+04  0.61300000000E+03 0. -1.
         13    1    4    4    0    0  0.28943183844E+03 -0.87166187672E+02 -0.82813754319E+03  0.88157843382E+03  0.10566000000E+00 0.  1.
    -200003    1    4    4    0    0  0.72540646839E+02 -0.80233074311E+01 -0.18375762955E+03  0.19998346262E+03  0.30000000000E+02 0.  1.
    -200000    1    3    3    0    0 -0.23571675267E+03 -0.13457545155E+02 -0.63330469072E+03  0.68338812127E+03  0.10100000000E+03 0. -1.
<mgrwt>
<rscale>  0 0.12795367E+04</rscale>
<asrwt>0</asrwt>
<pdfrwt beam="1">  1        2 0.44544162E+00 0.12795367E+04</pdfrwt>
<pdfrwt beam="2">  1       -2 0.18752475E-01 0.12795367E+04</pdfrwt>
<totfact> 0.48032457E+01</totfact>
</mgrwt>
</event>
<event>
 8    2  0.4480234E-052  0.1393388E+04  0.7818608E-02  0.8958619E-01
          2   -1    0    0  501    0  0.00000000000E+00  0.00000000000E+00  0.12969472701E+04  0.12969472701E+04  0.25500000000E-02 0.  1.
         -2   -1    0    0    0  501 -0.00000000000E+00 -0.00000000000E+00 -0.37424987405E+03  0.37424987406E+03  0.25500000000E-02 0. -1.
    -200001    2    1    2    0    0 -0.15914845947E+03  0.24340584253E+03  0.65063600983E+03  0.94019712074E+03  0.61324446368E+03 0.  0.
   -5000001    2    3    3    0    0 -0.11218921749E+03 -0.19509938556E+01 -0.66083814321E+02  0.17449910331E+03  0.11615782213E+03 0.  0.
     200001    1    1    2    0    0  0.15914845947E+03 -0.24340584253E+03  0.27206138618E+03  0.73100002338E+03  0.61300000000E+03 0.  1.
         13    1    4    4    0    0 -0.11373798028E+03 -0.15182583792E+02 -0.78905977200E+02  0.13925876422E+03  0.10566000000E+00 0.  1.
    -200003    1    4    4    0    0  0.15487627948E+01  0.13231589936E+02  0.12822162879E+02  0.35240339092E+02  0.30000000000E+02 0. -1.
    -200000    1    3    3    0    0 -0.46959241982E+02  0.24535683638E+03  0.71671982415E+03  0.76569801743E+03  0.10100000000E+03 0.  1.
<mgrwt>
<rscale>  0 0.13933877E+04</rscale>
<asrwt>0</asrwt>
<pdfrwt beam="1">  1        2 0.18527818E+00 0.13933877E+04</pdfrwt>
<pdfrwt beam="2">  1       -2 0.53464268E-01 0.13933877E+04</pdfrwt>
<totfact> 0.60566807E+01</totfact>
</mgrwt>
</event>
<event>
 8    2  0.4480234E-052  0.1713903E+04  0.7818608E-02  0.8753474E-01
         -2   -1    0    0    0  501 -0.00000000000E+00  0.00000000000E+00  0.31305616979E+03  0.31305616980E+03  0.25500000000E-02 0. -1.
          2   -1    0    0  501    0  0.00000000000E+00 -0.00000000000E+00 -0.23457969846E+04  0.23457969846E+04  0.25500000000E-02 0.  1.
    -200001    2    1    2    0    0 -0.40559545524E+03 -0.12051039282E+03 -0.36184865622E+03  0.82945980311E+03  0.61484850727E+03 0.  0.
   -5000001    2    3    3    0    0 -0.54576548315E+03 -0.12026170027E+03 -0.26936203481E+03  0.63349431199E+03  0.12820412775E+03 0.  0.
     200001    1    1    2    0    0  0.40559545524E+03  0.12051039282E+03 -0.16708921586E+04  0.18293933513E+04  0.61300000000E+03 0. -1.
         13    1    4    4    0    0 -0.23892854810E+02  0.47818113648E+01  0.11622488661E+02  0.26996807916E+02  0.10566000000E+00 0.  1.
    -200003    1    4    4    0    0 -0.52187262834E+03 -0.12504351164E+03 -0.28098452347E+03  0.60649750407E+03  0.30000000000E+02 0.  1.
    -200000    1    3    3    0    0  0.14017002791E+03 -0.24869254836E+00 -0.92486621404E+02  0.19596549112E+03  0.10100000000E+03 0. -1.
<mgrwt>
<rscale>  0 0.17139034E+04</rscale>
<asrwt>0</asrwt>
<pdfrwt beam="1">  1        2 0.33511385E+00 0.17139034E+04</pdfrwt>
<pdfrwt beam="2">  1       -2 0.44722311E-01 0.17139034E+04</pdfrwt>
<totfact> 0.24004559E+01</totfact>
</mgrwt>
</event>
<event>
 8    2  0.4480234E-052  0.1884284E+04  0.7818608E-02  0.8662719E-01
          2   -1    0    0  501    0  0.00000000000E+00  0.00000000000E+00  0.60730270932E+03  0.60730270932E+03  0.25500000000E-02 0.  1.
         -2   -1    0    0    0  501 -0.00000000000E+00 -0.00000000000E+00 -0.14615968461E+04  0.14615968461E+04  0.25500000000E-02 0. -1.
    -200001    2    1    2    0    0 -0.11153849711E+03  0.27572281058E+03 -0.11416586017E+04  0.13294326932E+04  0.61281564799E+03 0.  0.
   -5000001    2    3    3    0    0 -0.33169585622E+03  0.26811996130E+03 -0.67313330720E+03  0.80194428800E+03  0.89976314150E+02 0.  0.
     200001    1    1    2    0    0  0.11153849711E+03 -0.27572281058E+03  0.28736446489E+03  0.73946686220E+03  0.61300000000E+03 0.  1.
         13    1    4    4    0    0 -0.10130093262E+03  0.74915210442E+02 -0.13418454629E+03  0.18406431303E+03  0.10566000000E+00 0.  1.
    -200003    1    4    4    0    0 -0.23039492360E+03  0.19320475086E+03 -0.53894876091E+03  0.61787997497E+03  0.30000000000E+02 0.  1.
    -200000    1    3    3    0    0  0.22015735911E+03  0.76028492864E+01 -0.46852529448E+03  0.52748840523E+03  0.10100000000E+03 0.  1.
<mgrwt>
<rscale>  0 0.18842842E+04</rscale>
<asrwt>0</asrwt>
<pdfrwt beam="1">  1        2 0.86757530E-01 0.18842842E+04</pdfrwt>
<pdfrwt beam="2">  1       -2 0.20879955E+00 0.18842842E+04</pdfrwt>
<totfact> 0.58608869E+00</totfact>
</mgrwt>
</event>
<event>
 8    2  0.4480234E-052  0.1672304E+04  0.7818608E-02  0.8777320E-01
         -2   -1    0    0    0  501 -0.00000000000E+00  0.00000000000E+00  0.32805954457E+03  0.32805954458E+03  0.25500000000E-02 0. -1.
          2   -1    0    0  501    0  0.00000000000E+00 -0.00000000000E+00 -0.21311694411E+04  0.21311694411E+04  0.25500000000E-02 0.  1.
    -200001    2    1    2    0    0  0.46211293672E+03 -0.32110676749E+03 -0.10068776022E+04  0.13075290296E+04  0.61576922209E+03 0.  0.
   -5000001    2    3    3    0    0  0.55869713719E+03 -0.23142756127E+03 -0.92381334277E+03  0.11218639036E+04  0.19861097311E+03 0.  0.
     200001    1    1    2    0    0 -0.46211293672E+03  0.32110676749E+03 -0.79623229428E+03  0.11516999561E+04  0.61300000000E+03 0.  1.
         13    1    4    4    0    0  0.47901212696E+03 -0.20106421178E+03 -0.64172595748E+03  0.82564620189E+03  0.10566000000E+00 0.  1.
    -200003    1    4    4    0    0  0.79685010230E+02 -0.30363349488E+02 -0.28208738530E+03  0.29621770168E+03  0.30000000000E+02 0.  1.
    -200000    1    3    3    0    0 -0.96584200472E+02 -0.89679206220E+02 -0.83064259456E+02  0.18566512599E+03  0.10100000000E+03 0. -1.
<mgrwt>
<rscale>  0 0.16723044E+04</rscale>
<asrwt>0</asrwt>
<pdfrwt beam="1">  1        2 0.30445277E+00 0.16723044E+04</pdfrwt>
<pdfrwt beam="2">  1       -2 0.46865650E-01 0.16723044E+04</pdfrwt>
<totfact> 0.28318479E+01</totfact>
</mgrwt>
</event>
<event>
 8    2  0.4480234E-052  0.1731379E+04  0.7818608E-02  0.8743668E-01
         -2   -1    0    0    0  501 -0.00000000000E+00  0.00000000000E+00  0.21294244163E+03  0.21294244165E+03  0.25500000000E-02 0. -1.
          2   -1    0    0  501    0  0.00000000000E+00 -0.00000000000E+00 -0.35193452734E+04  0.35193452734E+04  0.25500000000E-02 0.  1.
    -200001    2    1    2    0    0  0.22003613986E+03  0.24260298091E+03 -0.53660657834E+03  0.87662450054E+03  0.61094335731E+03 0.  0.
   -5000001    2    3    3    0    0  0.27541868930E+03  0.13168521478E+03  0.12012628641E+01  0.31554674151E+03  0.79823886376E+02 0.  0.
     200001    1    1    2    0    0 -0.22003613986E+03 -0.24260298091E+03 -0.27697962534E+04  0.28556632145E+04  0.61300000000E+03 0.  1.
         13    1    4    4    0    0  0.22445009909E+03  0.10618782917E+03  0.18105710869E+02  0.24896090049E+03  0.10566000000E+00 0.  1.
    -200003    1    4    4    0    0  0.50968590209E+02  0.25497385612E+02 -0.16904448005E+02  0.66585841012E+02  0.30000000000E+02 0.  1.
    -200000    1    3    3    0    0 -0.55382549438E+02  0.11091776612E+03 -0.53780784120E+03  0.56107775903E+03  0.10100000000E+03 0.  1.
<mgrwt>
<rscale>  0 0.17313786E+04</rscale>
<asrwt>0</asrwt>
<pdfrwt beam="1">  1        2 0.50276358E+00 0.17313786E+04</pdfrwt>
<pdfrwt beam="2">  1       -2 0.30420351E-01 0.17313786E+04</pdfrwt>
<totfact> 0.11191738E+01</totfact>
</mgrwt>
</event>
<event>
 8    2  0.4480234E-052  0.1547195E+04  0.7818608E-02  0.8853661E-01
         -2   -1    0    0    0  501 -0.00000000000E+00  0.00000000000E+00  0.27204576500E+03  0.27204576501E+03  0.25500000000E-02 0. -1.
          2   -1    0    0  501    0  0.00000000000E+00 -0.00000000000E+00 -0.21998247166E+04  0.21998247166E+04  0.25500000000E-02 0.  1.
    -200001    2    1    2    0    0 -0.98771651975E+02 -0.46009591774E+03 -0.10111496319E+04  0.12729449616E+04  0.61361323684E+03 0.  0.
   -5000001    2    3    3    0    0 -0.21567235621E+03 -0.54697449564E+03 -0.81454431954E+03  0.10082407667E+04  0.85856455944E+02 0.  0.
     200001    1    1    2    0    0  0.98771651975E+02  0.46009591774E+03 -0.91662931970E+03  0.11989255200E+04  0.61300000000E+03 0. -1.
         13    1    4    4    0    0 -0.13749381954E+03 -0.33511192519E+03 -0.44073477307E+03  0.57048374576E+03  0.10566000000E+00 0.  1.
    -200003    1    4    4    0    0 -0.78178536675E+02 -0.21186257046E+03 -0.37380954647E+03  0.43775702095E+03  0.30000000000E+02 0. -1.
    -200000    1    3    3    0    0  0.11690070424E+03  0.86878577903E+02 -0.19660531231E+03  0.26470419486E+03  0.10100000000E+03 0. -1.
<mgrwt>
<rscale>  0 0.15471949E+04</rscale>
<asrwt>0</asrwt>
<pdfrwt beam="1">  1        2 0.31426066E+00 0.15471949E+04</pdfrwt>
<pdfrwt beam="2">  1       -2 0.38863682E-01 0.15471949E+04</pdfrwt>
<totfact> 0.38182921E+01</totfact>
</mgrwt>
</event>
<event>
 8    2  0.4480234E-052  0.1818988E+04  0.7818608E-02  0.8696266E-01
          2   -1    0    0  501    0  0.00000000000E+00  0.00000000000E+00  0.65288327139E+03  0.65288327139E+03  0.25500000000E-02 0.  1.
         -2   -1    0    0    0  501 -0.00000000000E+00 -0.00000000000E+00 -0.12669638257E+04  0.12669638257E+04  0.25500000000E-02 0. -1.
    -200001    2    1    2    0    0  0.62600889496E+03 -0.15056206719E+03 -0.51865830949E+03  0.10257383355E+04  0.60710511307E+03 0.  0.
   -5000001    2    3    3    0    0  0.24658608169E+03 -0.29117898285E+03 -0.42413472912E+02  0.39269415652E+03  0.82582698817E+02 0.  0.
     200001    1    1    2    0    0 -0.62600889496E+03  0.15056206719E+03 -0.95422244779E+02  0.89410876153E+03  0.61300000000E+03 0. -1.
         13    1    4    4    0    0  0.66938214179E+01 -0.41485909093E+02 -0.12556320008E+02  0.43858411219E+02  0.10566000000E+00 0.  1.
    -200003    1    4    4    0    0  0.23989226027E+03 -0.24969307376E+03 -0.29857152904E+02  0.34883574530E+03  0.30000000000E+02 0.  1.
    -200000    1    3    3    0    0  0.37942281328E+03  0.14061691566E+03 -0.47624483658E+03  0.63304417900E+03  0.10100000000E+03 0. -1.
<mgrwt>
<rscale>  0 0.18189882E+04</rscale>
<asrwt>0</asrwt>
<pdfrwt beam="1">  1        2 0.93269039E-01 0.18189882E+04</pdfrwt>
<pdfrwt beam="2">  1       -2 0.18099483E+00 0.18189882E+04</pdfrwt>
<totfact> 0.82670662E+00</totfact>
</mgrwt>
</event>
<event>
 8    2  0.4480234E-052  0.1356346E+04  0.7818608E-02  0.8986038E-01
          2   -1    0    0  501    0  0.00000000000E+00  0.00000000000E+00  0.44569832165E+03  0.44569832166E+03  0.25500000000E-02 0.  1.
         -2   -1    0    0    0  501 -0.00000000000E+00 -0.00000000000E+00 -0.10319057395E+04  0.10319057395E+04  0.25500000000E-02 0. -1.
    -200001    2    1    2    0    0  0.68279370308E+02 -0.18931574892E+03 -0.60116612667E+02  0.64511198284E+03  0.60996142344E+03 0.  0.
   -5000001    2    3    3    0    0  0.24233339770E+03 -0.56182938499E+02  0.16609790452E+03  0.31436561861E+03  0.96722438222E+02 0.  0.
     200001    1    1    2    0    0 -0.68279370308E+02  0.18931574892E+03 -0.52609080522E+03  0.83249207836E+03  0.61300000000E+03 0. -1.
         13    1    4    4    0    0  0.15946633395E+03  0.33407307790E+01  0.85852758529E+02  0.18113911631E+03  0.10566000000E+00 0.  1.
    -200003    1    4    4    0    0  0.82867063745E+02 -0.59523669278E+02  0.80245145996E+02  0.13322650230E+03  0.30000000000E+02 0.  1.
    -200000    1    3    3    0    0 -0.17405402739E+03 -0.13313281042E+03 -0.22621451719E+03  0.33074636423E+03  0.10100000000E+03 0. -1.
<mgrwt>
<rscale>  0 0.13563461E+04</rscale>
<asrwt>0</asrwt>
<pdfrwt beam="1">  1        2 0.63671189E-01 0.13563461E+04</pdfrwt>
<pdfrwt beam="2">  1       -2 0.14741510E+00 0.13563461E+04</pdfrwt>
<totfact> 0.23464746E+01</totfact>
</mgrwt>
</event>
<event>
 8    2  0.4480234E-052  0.1520904E+04  0.7818608E-02  0.8870670E-01
          2   -1    0    0  501    0  0.00000000000E+00  0.00000000000E+00  0.14789231253E+04  0.14789231253E+04  0.25500000000E-02 0. -1.
         -2   -1    0    0    0  501 -0.00000000000E+00 -0.00000000000E+00 -0.39101915175E+03  0.39101915176E+03  0.25500000000E-02 0.  1.
    -200001    2    1    2    0    0 -0.10286265272E+03  0.35916657207E+03  0.23323351082E+03  0.75378281190E+03  0.61172649536E+03 0.  0.
   -5000001    2    3    3    0    0 -0.23509810372E+02 -0.62834241475E+02 -0.44956783523E+02  0.23227308037E+03  0.21778158414E+03 0.  0.
     200001    1    1    2    0    0  0.10286265272E+03 -0.35916657207E+03  0.85467046273E+03  0.11161594652E+04  0.61300000000E+03 0. -1.
         13    1    4    4    0    0  0.14755828133E+02  0.10715253263E+02  0.78485751330E+02  0.80576519174E+02  0.10566000000E+00 0.  1.
    -200003    1    4    4    0    0 -0.38265638505E+02 -0.73549494738E+02 -0.12344253485E+03  0.15169656119E+03  0.30000000000E+02 0.  1.
    -200000    1    3    3    0    0 -0.79352842347E+02  0.42200081354E+03  0.27819029434E+03  0.52150973153E+03  0.10100000000E+03 0. -1.
<mgrwt>
<rscale>  0 0.15209040E+04</rscale>
<asrwt>0</asrwt>
<pdfrwt beam="1">  1        2 0.21127473E+00 0.15209040E+04</pdfrwt>
<pdfrwt beam="2">  1       -2 0.55859878E-01 0.15209040E+04</pdfrwt>
<totfact> 0.43628069E+01</totfact>
</mgrwt>
</event>
<event>
 8    2  0.4480234E-052  0.1360279E+04  0.7818608E-02  0.8983083E-01
          2   -1    0    0  501    0  0.00000000000E+00  0.00000000000E+00  0.11459584959E+04  0.11459584959E+04  0.25500000000E-02 0.  1.
         -2   -1    0    0    0  501 -0.00000000000E+00 -0.00000000000E+00 -0.40367059684E+03  0.40367059685E+03  0.25500000000E-02 0. -1.
    -200001    2    1    2    0    0  0.10412963037E+02  0.23274002434E+03  0.56956814670E+03  0.87148643699E+03  0.61709349972E+03 0.  0.
   -5000001    2    3    3    0    0 -0.10090973356E+03  0.31909740493E+03  0.60387166279E+03  0.69477177666E+03  0.77723280652E+02 0.  0.
     200001    1    1    2    0    0 -0.10412963037E+02 -0.23274002434E+03  0.17271975240E+03  0.67814265579E+03  0.61300000000E+03 0. -1.
         13    1    4    4    0    0 -0.45396200104E+02  0.93902132119E+02  0.24673868961E+03  0.26787761668E+03  0.10566000000E+00 0.  1.
    -200003    1    4    4    0    0 -0.55513533457E+02  0.22519527281E+03  0.35713297318E+03  0.42689415998E+03  0.30000000000E+02 0.  1.
    -200000    1    3    3    0    0  0.11132269660E+03 -0.86357380590E+02 -0.34303516095E+02  0.17671466033E+03  0.10100000000E+03 0. -1.
<mgrwt>
<rscale>  0 0.13602790E+04</rscale>
<asrwt>0</asrwt>
<pdfrwt beam="1">  1        2 0.16370836E+00 0.13602790E+04</pdfrwt>
<pdfrwt beam="2">  1       -2 0.57667228E-01 0.13602790E+04</pdfrwt>
<totfact> 0.63167882E+01</totfact>
</mgrwt>
</event>
<event>
 8    2  0.4480234E-052  0.1474966E+04  0.7818608E-02  0.8901273E-01
         -2   -1    0    0    0  501 -0.00000000000E+00  0.00000000000E+00  0.16512103495E+03  0.16512103497E+03  0.25500000000E-02 0. -1.
          2   -1    0    0  501    0  0.00000000000E+00 -0.00000000000E+00 -0.32938328370E+04  0.32938328370E+04  0.25500000000E-02 0.  1.
    -200001    2    1    2    0    0 -0.32253285938E+03  0.24750155728E+03 -0.17194786923E+04  0.18693025190E+04  0.61024623573E+03 0.  0.
   -5000001    2    3    3    0    0 -0.23344571438E+03 -0.75349637862E+02 -0.23036755602E+03  0.33965471979E+03  0.46061353867E+02 0.  0.
     200001    1    1    2    0    0  0.32253285938E+03 -0.24750155728E+03 -0.14092331098E+04  0.15896513529E+04  0.61300000000E+03 0. -1.
         13    1    4    4    0    0 -0.29940953207E+02 -0.15273772478E+02 -0.18779827307E+02  0.38502491898E+02  0.10566000000E+00 0.  1.
    -200003    1    4    4    0    0 -0.20350476117E+03 -0.60075865383E+02 -0.21158772871E+03  0.30115222789E+03  0.30000000000E+02 0. -1.
    -200000    1    3    3    0    0 -0.89087145006E+02  0.32285119514E+03 -0.14891111363E+04  0.15296477992E+04  0.10100000000E+03 0.  1.
<mgrwt>
<rscale>  0 0.14749659E+04</rscale>
<asrwt>0</asrwt>
<pdfrwt beam="1">  1        2 0.47054751E+00 0.14749659E+04</pdfrwt>
<pdfrwt beam="2">  1       -2 0.23588721E-01 0.14749659E+04</pdfrwt>
<totfact> 0.24906515E+01</totfact>
</mgrwt>
</event>
<event>
 8    2  0.4480234E-052  0.1392457E+04  0.7818608E-02  0.8959297E-01
         -2   -1    0    0    0  501 -0.00000000000E+00  0.00000000000E+00  0.48403876345E+03  0.48403876346E+03  0.25500000000E-02 0. -1.
          2   -1    0    0  501    0  0.00000000000E+00 -0.00000000000E+00 -0.10014359426E+04  0.10014359426E+04  0.25500000000E-02 0.  1.
    -200001    2    1    2    0    0  0.11063871384E+03  0.24528801097E+03 -0.46324897627E+03  0.81382884610E+03  0.61262602247E+03 0.  0.
   -5000001    2    3    3    0    0 -0.96151890643E+02 -0.85800546115E+02 -0.10561608293E+03  0.27486291663E+03  0.21860454290E+03 0.  0.
     200001    1    1    2    0    0 -0.11063871384E+03 -0.24528801097E+03 -0.54148202876E+02  0.67164585996E+03  0.61300000000E+03 0. -1.
         13    1    4    4    0    0 -0.13905604951E+03 -0.11285201846E+02 -0.11829833263E+03  0.18291650377E+03  0.10566000000E+00 0.  1.
    -200003    1    4    4    0    0  0.42904158865E+02 -0.74515344270E+02  0.12682249700E+02  0.91946412855E+02  0.30000000000E+02 0.  1.
    -200000    1    3    3    0    0  0.20679060448E+03  0.33108855708E+03 -0.35763289334E+03  0.53896592947E+03  0.10100000000E+03 0.  1.
<mgrwt>
<rscale>  0 0.13924566E+04</rscale>
<asrwt>0</asrwt>
<pdfrwt beam="1">  1        2 0.14306228E+00 0.13924566E+04</pdfrwt>
<pdfrwt beam="2">  1       -2 0.69148395E-01 0.13924566E+04</pdfrwt>
<totfact> 0.52192449E+01</totfact>
</mgrwt>
</event>
<event>
 8    2  0.4480234E-052  0.1232604E+04  0.7818608E-02  0.9084787E-01
          2   -1    0    0  501    0  0.00000000000E+00  0.00000000000E+00  0.22566245758E+04  0.22566245758E+04  0.25500000000E-02 0.  1.
         -2   -1    0    0    0  501 -0.00000000000E+00 -0.00000000000E+00 -0.16831700402E+03  0.16831700404E+03  0.25500000000E-02 0. -1.
    -200001    2    1    2    0    0 -0.18867975431E+02  0.43265166380E+02  0.97660346900E+03  0.11545546753E+04  0.61401489188E+03 0.  0.
   -5000001    2    3    3    0    0 -0.26348563204E+03  0.16586290083E+03  0.56435114011E+03  0.64955865046E+03  0.80616691056E+02 0.  0.
     200001    1    1    2    0    0  0.18867975431E+02 -0.43265166380E+02  0.11117041028E+04  0.12703869046E+04  0.61300000000E+03 0. -1.
         13    1    4    4    0    0 -0.60563082509E+02  0.42111086292E+02  0.77706138612E+02  0.10714236181E+03  0.10566000000E+00 0.  1.
    -200003    1    4    4    0    0 -0.20292254954E+03  0.12375181454E+03  0.48664500149E+03  0.54241628865E+03  0.30000000000E+02 0.  1.
    -200000    1    3    3    0    0  0.24461765661E+03 -0.12259773446E+03  0.41225232889E+03  0.50499602483E+03  0.10100000000E+03 0.  1.
<mgrwt>
<rscale>  0 0.12326042E+04</rscale>
<asrwt>0</asrwt>
<pdfrwt beam="1">  1        2 0.32237491E+00 0.12326042E+04</pdfrwt>
<pdfrwt beam="2">  1       -2 0.24045288E-01 0.12326042E+04</pdfrwt>
<totfact> 0.89788212E+01</totfact>
</mgrwt>
</event>
<event>
 8    2  0.4480234E-052  0.1319534E+04  0.7818608E-02  0.9014216E-01
         -2   -1    0    0    0  501 -0.00000000000E+00  0.00000000000E+00  0.49601668477E+03  0.49601668478E+03  0.25500000000E-02 0. -1.
          2   -1    0    0  501    0  0.00000000000E+00 -0.00000000000E+00 -0.87757672390E+03  0.87757672391E+03  0.25500000000E-02 0.  1.
    -200001    2    1    2    0    0 -0.11080596722E+03  0.21538851321E+03 -0.19211225894E+03  0.68778757944E+03  0.61438950220E+03 0.  0.
   -5000001    2    3    3    0    0  0.10894325653E+03 -0.16692035768E+03 -0.70737071259E+02  0.21940447739E+03  0.58339973381E+02 0.  0.
     200001    1    1    2    0    0  0.11080596722E+03 -0.21538851321E+03 -0.18944778020E+03  0.68580582924E+03  0.61300000000E+03 0.  1.
         13    1    4    4    0    0  0.20091410658E+02 -0.54899005987E+01 -0.44978531591E+01  0.21308346672E+02  0.10566000000E+00 0.  1.
    -200003    1    4    4    0    0  0.88851845875E+02 -0.16143045709E+03 -0.66239218100E+02  0.19809613072E+03  0.30000000000E+02 0.  1.
    -200000    1    3    3    0    0 -0.21974922375E+03  0.38230887090E+03 -0.12137518768E+03  0.46838310206E+03  0.10100000000E+03 0. -1.
<mgrwt>
<rscale>  0 0.13195343E+04</rscale>
<asrwt>0</asrwt>
<pdfrwt beam="1">  1        2 0.12536810E+00 0.13195343E+04</pdfrwt>
<pdfrwt beam="2">  1       -2 0.70859527E-01 0.13195343E+04</pdfrwt>
<totfact> 0.59691388E+01</totfact>
</mgrwt>
</event>
<event>
 8    2  0.4480234E-052  0.1481723E+04  0.7818608E-02  0.8896699E-01
          2   -1    0    0  501    0  0.00000000000E+00  0.00000000000E+00  0.48034155768E+03  0.48034155769E+03  0.25500000000E-02 0.  1.
         -2   -1    0    0    0  501 -0.00000000000E+00 -0.00000000000E+00 -0.11426776155E+04  0.11426776155E+04  0.25500000000E-02 0. -1.
    -200001    2    1    2    0    0 -0.81922441902E+02  0.26814256226E+03 -0.66839331252E+03  0.94891427738E+03  0.61243527447E+03 0.  0.
   -5000001    2    3    3    0    0 -0.10366662526E+03 -0.17837372883E+03 -0.24561169511E+03  0.32538007324E+03  0.54618046083E+02 0.  0.
     200001    1    1    2    0    0  0.81922441902E+02 -0.26814256226E+03  0.60572547309E+01  0.67410489578E+03  0.61300000000E+03 0.  1.
         13    1    4    4    0    0 -0.35480782937E+02 -0.40135311079E+02 -0.87092535218E+02  0.10224896091E+03  0.10566000000E+00 0.  1.
    -200003    1    4    4    0    0 -0.68185842322E+02 -0.13823841775E+03 -0.15851915989E+03  0.22313111232E+03  0.30000000000E+02 0.  1.
    -200000    1    3    3    0    0  0.21744183357E+02  0.44651629109E+03 -0.42278161741E+03  0.62353420414E+03  0.10100000000E+03 0. -1.
<mgrwt>
<rscale>  0 0.14817227E+04</rscale>
<asrwt>0</asrwt>
<pdfrwt beam="1">  1        2 0.68620223E-01 0.14817227E+04</pdfrwt>
<pdfrwt beam="2">  1       -2 0.16323966E+00 0.14817227E+04</pdfrwt>
<totfact> 0.16234785E+01</totfact>
</mgrwt>
</event>
<event>
 8    2  0.4480234E-052  0.1870570E+04  0.7818608E-02  0.8669646E-01
          2   -1    0    0  501    0  0.00000000000E+00  0.00000000000E+00  0.17299345765E+04  0.17299345765E+04  0.25500000000E-02 0.  1.
         -2   -1    0    0    0  501 -0.00000000000E+00 -0.00000000000E+00 -0.50565942249E+03  0.50565942249E+03  0.25500000000E-02 0. -1.
    -200001    2    1    2    0    0  0.26756912557E+03 -0.44417033224E+03  0.11855320126E+04  0.14317590955E+04  0.61283556829E+03 0.  0.
   -5000001    2    3    3    0    0  0.32063949103E+03 -0.30958483624E+02  0.75174025559E+03  0.82189289384E+03  0.81402740431E+02 0.  0.
     200001    1    1    2    0    0 -0.26756912557E+03  0.44417033224E+03  0.38743141416E+02  0.80383490345E+03  0.61300000000E+03 0. -1.
         13    1    4    4    0    0  0.26566062658E+03 -0.36789000739E+02  0.58033910144E+03  0.63931407220E+03  0.10566000000E+00 0.  1.
    -200003    1    4    4    0    0  0.54978864448E+02  0.58305171158E+01  0.17140115415E+03  0.18257882164E+03  0.30000000000E+02 0. -1.
    -200000    1    3    3    0    0 -0.53070365456E+02 -0.41321184862E+03  0.43379175698E+03  0.60986620168E+03  0.10100000000E+03 0.  1.
<mgrwt>
<rscale>  0 0.18705697E+04</rscale>
<asrwt>0</asrwt>
<pdfrwt beam="1">  1        2 0.24713351E+00 0.18705697E+04</pdfrwt>
<pdfrwt beam="2">  1       -2 0.72237060E-01 0.18705697E+04</pdfrwt>
<totfact> 0.18082062E+01</totfact>
</mgrwt>
</event>
<event>
 8    2  0.4480234E-052  0.1669398E+04  0.7818608E-02  0.8779013E-01
          2   -1    0    0  501    0  0.00000000000E+00  0.00000000000E+00  0.22405756830E+04  0.22405756830E+04  0.25500000000E-02 0.  1.
         -2   -1    0    0    0  501 -0.00000000000E+00 -0.00000000000E+00 -0.31095679256E+03  0.31095679257E+03  0.25500000000E-02 0. -1.
    -200001    2    1    2    0    0  0.50488023732E+03 -0.23633448320E+03  0.11185852512E+04  0.13920918320E+04  0.61313021662E+03 0.  0.
   -5000001    2    3    3    0    0  0.38292713993E+03  0.24132688071E+02  0.75267064241E+03  0.91584588063E+03  0.35361702446E+03 0.  0.
     200001    1    1    2    0    0 -0.50488023732E+03  0.23633448320E+03  0.81103363921E+03  0.11594406435E+04  0.61300000000E+03 0. -1.
         13    1    4    4    0    0  0.35042467502E+03 -0.50850048934E+02  0.74926525028E+03  0.82872287695E+03  0.10566000000E+00 0.  1.
    -200003    1    4    4    0    0  0.32502464901E+02  0.74982737005E+02  0.34053921291E+01  0.87123003673E+02  0.30000000000E+02 0.  1.
    -200000    1    3    3    0    0  0.12195309739E+03 -0.26046717128E+03  0.36591460880E+03  0.47624595139E+03  0.10100000000E+03 0.  1.
<mgrwt>
<rscale>  0 0.16693978E+04</rscale>
<asrwt>0</asrwt>
<pdfrwt beam="1">  1        2 0.32008222E+00 0.16693978E+04</pdfrwt>
<pdfrwt beam="2">  1       -2 0.44422401E-01 0.16693978E+04</pdfrwt>
<totfact> 0.27686754E+01</totfact>
</mgrwt>
</event>
<event>
 8    2  0.4480234E-052  0.1566202E+04  0.7818608E-02  0.8841585E-01
          2   -1    0    0  501    0  0.00000000000E+00  0.00000000000E+00  0.32720674752E+04  0.32720674752E+04  0.25500000000E-02 0.  1.
         -2   -1    0    0    0  501 -0.00000000000E+00 -0.00000000000E+00 -0.18741886581E+03  0.18741886583E+03  0.25500000000E-02 0. -1.
    -200001    2    1    2    0    0 -0.34359691638E+03  0.25956774032E+03  0.10376476824E+04  0.12797120298E+04  0.61279353269E+03 0.  0.
   -5000001    2    3    3    0    0  0.40511247052E+02  0.25234925638E+03  0.72702911163E+03  0.77545407576E+03  0.86234483364E+02 0.  0.
     200001    1    1    2    0    0  0.34359691638E+03 -0.25956774032E+03  0.20470009269E+04  0.21797743112E+04  0.61300000000E+03 0.  1.
         13    1    4    4    0    0  0.20895040282E+02  0.20617674304E+03  0.50516976038E+03  0.54602376326E+03  0.10566000000E+00 0.  1.
    -200003    1    4    4    0    0  0.19616206771E+02  0.46172513342E+02  0.22185935125E+03  0.22943031250E+03  0.30000000000E+02 0. -1.
    -200000    1    3    3    0    0 -0.38410816343E+03  0.72184839393E+01  0.31061857079E+03  0.50425795407E+03  0.10100000000E+03 0.  1.
<mgrwt>
<rscale>  0 0.15662020E+04</rscale>
<asrwt>0</asrwt>
<pdfrwt beam="1">  1        2 0.46743819E+00 0.15662020E+04</pdfrwt>
<pdfrwt beam="2">  1       -2 0.26774125E-01 0.15662020E+04</pdfrwt>
<totfact> 0.20208000E+01</totfact>
</mgrwt>
</event>
<event>
 8    2  0.4480234E-052  0.1316298E+04  0.7818608E-02  0.9016739E-01
         -2   -1    0    0    0  501 -0.00000000000E+00  0.00000000000E+00  0.50491706342E+03  0.50491706343E+03  0.25500000000E-02 0. -1.
          2   -1    0    0  501    0  0.00000000000E+00 -0.00000000000E+00 -0.85788415048E+03  0.85788415048E+03  0.25500000000E-02 0.  1.
    -200001    2    1    2    0    0  0.16649464428E+03  0.10807442568E+03 -0.24207925671E+02  0.63943952413E+03  0.60736836705E+03 0.  0.
   -5000001    2    3    3    0    0 -0.12367599422E+03  0.12326642918E+02 -0.22196097578E+03  0.26171752823E+03  0.61495464418E+02 0.  0.
     200001    1    1    2    0    0 -0.16649464428E+03 -0.10807442568E+03 -0.32875916138E+03  0.72336168979E+03  0.61300000000E+03 0.  1.
         13    1    4    4    0    0 -0.83043961838E+02 -0.66389558043E+01 -0.11604222831E+03  0.14285021963E+03  0.10566000000E+00 0.  1.
    -200003    1    4    4    0    0 -0.40632032385E+02  0.18965598722E+02 -0.10591874747E+03  0.11886730861E+03  0.30000000000E+02 0. -1.
    -200000    1    3    3    0    0  0.29017063850E+03  0.95747782766E+02  0.19775305011E+03  0.37772199589E+03  0.10100000000E+03 0. -1.
<mgrwt>
<rscale>  0 0.13162984E+04</rscale>
<asrwt>0</asrwt>
<pdfrwt beam="1">  1        2 0.12255488E+00 0.13162984E+04</pdfrwt>
<pdfrwt beam="2">  1       -2 0.72131009E-01 0.13162984E+04</pdfrwt>
<totfact> 0.59187892E+01</totfact>
</mgrwt>
</event>
<event>
 8    2  0.4480234E-052  0.1321502E+04  0.7818608E-02  0.9012686E-01
         -2   -1    0    0    0  501 -0.00000000000E+00  0.00000000000E+00  0.61591630526E+03  0.61591630527E+03  0.25500000000E-02 0. -1.
          2   -1    0    0  501    0  0.00000000000E+00 -0.00000000000E+00 -0.70884935603E+03  0.70884935604E+03  0.25500000000E-02 0.  1.
    -200001    2    1    2    0    0  0.23971884056E+03 -0.26781579606E+02  0.21974914154E+01  0.65918231146E+03  0.61346076912E+03 0.  0.
   -5000001    2    3    3    0    0 -0.14248985092E+03  0.33076046014E+02 -0.14470515798E+03  0.23321540244E+03  0.10978369075E+03 0.  0.
     200001    1    1    2    0    0 -0.23971884056E+03  0.26781579606E+02 -0.95130542183E+02  0.66558334984E+03  0.61300000000E+03 0.  1.
         13    1    4    4    0    0  0.47549596784E+00 -0.55226677569E+01  0.13413220358E+02  0.14513841668E+02  0.10566000000E+00 0.  1.
    -200003    1    4    4    0    0 -0.14296534688E+03  0.38598713771E+02 -0.15811837834E+03  0.21870156077E+03  0.30000000000E+02 0.  1.
    -200000    1    3    3    0    0  0.38220869148E+03 -0.59857625620E+02  0.14690264939E+03  0.42596690903E+03  0.10100000000E+03 0.  1.
<mgrwt>
<rscale>  0 0.13215020E+04</rscale>
<asrwt>0</asrwt>
<pdfrwt beam="1">  1        2 0.10126419E+00 0.13215020E+04</pdfrwt>
<pdfrwt beam="2">  1       -2 0.87988044E-01 0.13215020E+04</pdfrwt>
<totfact> 0.48365004E+01</totfact>
</mgrwt>
</event>
<event>
 8    2  0.4480234E-052  0.1811844E+04  0.7818608E-02  0.8700026E-01
          2   -1    0    0  501    0  0.00000000000E+00  0.00000000000E+00  0.38224782262E+03  0.38224782263E+03  0.25500000000E-02 0.  1.
         -2   -1    0    0    0  501 -0.00000000000E+00 -0.00000000000E+00 -0.21470222637E+04  0.21470222637E+04  0.25500000000E-02 0. -1.
    -200001    2    1    2    0    0  0.23095667472E+03 -0.60160040219E+03 -0.11203048952E+04  0.14309194933E+04  0.61415267545E+03 0.  0.
   -5000001    2    3    3    0    0  0.21781615662E+03 -0.38394970891E+03 -0.10958320879E+04  0.11893736058E+04  0.13747855165E+03 0.  0.
     200001    1    1    2    0    0 -0.23095667472E+03  0.60160040219E+03 -0.64446954587E+03  0.10983505930E+04  0.61300000000E+03 0.  1.
         13    1    4    4    0    0  0.16654182377E+03 -0.22359352184E+03 -0.53844783487E+03  0.60634670290E+03  0.10566000000E+00 0.  1.
    -200003    1    4    4    0    0  0.51274332843E+02 -0.16035618707E+03 -0.55738425306E+03  0.58302690289E+03  0.30000000000E+02 0.  1.
    -200000    1    3    3    0    0  0.13140518102E+02 -0.21765069327E+03 -0.24472807253E+02  0.24154588755E+03  0.10100000000E+03 0. -1.
<mgrwt>
<rscale>  0 0.18118439E+04</rscale>
<asrwt>0</asrwt>
<pdfrwt beam="1">  1        2 0.54606833E-01 0.18118439E+04</pdfrwt>
<pdfrwt beam="2">  1       -2 0.30671746E+00 0.18118439E+04</pdfrwt>
<totfact> 0.24927815E+00</totfact>
</mgrwt>
</event>
<event>
 8    2  0.4480234E-052  0.1375482E+04  0.7818608E-02  0.8971760E-01
          2   -1    0    0  501    0  0.00000000000E+00  0.00000000000E+00  0.14985143775E+04  0.14985143775E+04  0.25500000000E-02 0.  1.
         -2   -1    0    0    0  501 -0.00000000000E+00 -0.00000000000E+00 -0.31563775674E+03  0.31563775675E+03  0.25500000000E-02 0. -1.
    -200001    2    1    2    0    0  0.97658076305E+01 -0.23128667821E+03  0.31822547699E+03  0.72926527428E+03  0.61398003839E+03 0.  0.
   -5000001    2    3    3    0    0 -0.19731872151E+03 -0.32023925027E+03  0.28584494260E+03  0.48017480619E+03  0.85864183544E+02 0.  0.
     200001    1    1    2    0    0 -0.97658076305E+01  0.23128667821E+03  0.86465114372E+03  0.10848868599E+04  0.61300000000E+03 0.  1.
         13    1    4    4    0    0 -0.84092325453E+02 -0.75071575861E+02  0.65715258157E+02  0.13048282270E+03  0.10566000000E+00 0.  1.
    -200003    1    4    4    0    0 -0.11322639606E+03 -0.24516767441E+03  0.22012968444E+03  0.34969198348E+03  0.30000000000E+02 0.  1.
    -200000    1    3    3    0    0  0.20708452914E+03  0.88952572063E+02  0.32380534391E+02  0.24909046809E+03  0.10100000000E+03 0.  1.
<mgrwt>
<rscale>  0 0.13754820E+04</rscale>
<asrwt>0</asrwt>
<pdfrwt beam="1">  1        2 0.21407348E+00 0.13754820E+04</pdfrwt>
<pdfrwt beam="2">  1       -2 0.45091109E-01 0.13754820E+04</pdfrwt>
<totfact> 0.66635149E+01</totfact>
</mgrwt>
</event>
<event>
 8    2  0.4480234E-052  0.1526136E+04  0.7818608E-02  0.8867257E-01
          2   -1    0    0  501    0  0.00000000000E+00  0.00000000000E+00  0.23964940565E+04  0.23964940565E+04  0.25500000000E-02 0.  1.
         -2   -1    0    0    0  501 -0.00000000000E+00 -0.00000000000E+00 -0.24296851349E+03  0.24296851350E+03  0.25500000000E-02 0. -1.
    -200001    2    1    2    0    0 -0.41180477940E+03  0.17539150052E+03  0.12129128810E+04  0.14307994512E+04  0.61293071215E+03 0.  0.
   -5000001    2    3    3    0    0 -0.18577900470E+03  0.32693617079E+03  0.38518641002E+03  0.55365319848E+03  0.12946889727E+03 0.  0.
     200001    1    1    2    0    0  0.41180477940E+03 -0.17539150052E+03  0.94061266202E+03  0.12086631188E+04  0.61300000000E+03 0. -1.
         13    1    4    4    0    0 -0.87244783202E+02  0.23462466433E+03  0.18921243949E+03  0.31378614331E+03  0.10566000000E+00 0.  1.
    -200003    1    4    4    0    0 -0.98534221502E+02  0.92311506460E+02  0.19597397053E+03  0.23986705517E+03  0.30000000000E+02 0.  1.
    -200000    1    3    3    0    0 -0.22602577470E+03 -0.15154467027E+03  0.82772647102E+03  0.87714625277E+03  0.10100000000E+03 0.  1.
<mgrwt>
<rscale>  0 0.15261358E+04</rscale>
<asrwt>0</asrwt>
<pdfrwt beam="1">  1        2 0.34235627E+00 0.15261358E+04</pdfrwt>
<pdfrwt beam="2">  1       -2 0.34709790E-01 0.15261358E+04</pdfrwt>
<totfact> 0.37602123E+01</totfact>
</mgrwt>
</event>
<event>
 8    2  0.4480234E-052  0.1543107E+04  0.7818608E-02  0.8856283E-01
         -2   -1    0    0    0  501 -0.00000000000E+00  0.00000000000E+00  0.31541751807E+03  0.31541751808E+03  0.25500000000E-02 0. -1.
          2   -1    0    0  501    0  0.00000000000E+00 -0.00000000000E+00 -0.18873237392E+04  0.18873237392E+04  0.25500000000E-02 0.  1.
    -200001    2    1    2    0    0 -0.36175913826E+03  0.91314825412E+00 -0.35804416938E+03  0.79558078716E+03  0.61145944568E+03 0.  0.
   -5000001    2    3    3    0    0 -0.27391260703E+03  0.15392622077E+03 -0.46306583254E+03  0.56675648089E+03  0.89786110428E+02 0.  0.
     200001    1    1    2    0    0  0.36175913826E+03 -0.91314825412E+00 -0.12138620517E+04  0.14071604701E+04  0.61300000000E+03 0.  1.
         13    1    4    4    0    0 -0.75532817396E+02  0.36401082505E+01 -0.12058913433E+03  0.14233835525E+03  0.10566000000E+00 0.  1.
    -200003    1    4    4    0    0 -0.19837978964E+03  0.15028611252E+03 -0.34247669821E+03  0.42441812564E+03  0.30000000000E+02 0.  1.
    -200000    1    3    3    0    0 -0.87846531231E+02 -0.15301307251E+03  0.10502166316E+03  0.22882430628E+03  0.10100000000E+03 0. -1.
<mgrwt>
<rscale>  0 0.15431072E+04</rscale>
<asrwt>0</asrwt>
<pdfrwt beam="1">  1        2 0.26961767E+00 0.15431072E+04</pdfrwt>
<pdfrwt beam="2">  1       -2 0.45059646E-01 0.15431072E+04</pdfrwt>
<totfact> 0.41320739E+01</totfact>
</mgrwt>
</event>
<event>
 8    2  0.4480234E-052  0.2686857E+04  0.7818608E-02  0.8339282E-01
         -2   -1    0    0    0  501 -0.00000000000E+00  0.00000000000E+00  0.99118768373E+03  0.99118768373E+03  0.25500000000E-02 0. -1.
          2   -1    0    0  501    0  0.00000000000E+00 -0.00000000000E+00 -0.18208465124E+04  0.18208465124E+04  0.25500000000E-02 0.  1.
    -200001    2    1    2    0    0  0.95390715682E+03  0.11008515579E+03 -0.11591404985E+04  0.16261232483E+04  0.61531497472E+03 0.  0.
   -5000001    2    3    3    0    0  0.24211146696E+03 -0.22039470342E+03 -0.25509662229E+03  0.42472141232E+03  0.90123269198E+02 0.  0.
     200001    1    1    2    0    0 -0.95390715682E+03 -0.11008515579E+03  0.32948166983E+03  0.11859109478E+04  0.61300000000E+03 0. -1.
         13    1    4    4    0    0  0.14821547645E+03 -0.85465503680E+02 -0.10986073211E+03  0.20332626835E+03  0.10566000000E+00 0.  1.
    -200003    1    4    4    0    0  0.93895990510E+02 -0.13492919974E+03 -0.14523589018E+03  0.22139514397E+03  0.30000000000E+02 0.  1.
    -200000    1    3    3    0    0  0.71179568986E+03  0.33047985921E+03 -0.90404387616E+03  0.12014018360E+04  0.10100000000E+03 0. -1.
<mgrwt>
<rscale>  0 0.26868574E+04</rscale>
<asrwt>0</asrwt>
<pdfrwt beam="1">  1        2 0.26012093E+00 0.26868574E+04</pdfrwt>
<pdfrwt beam="2">  1       -2 0.14159824E+00 0.26868574E+04</pdfrwt>
<totfact> 0.30613936E+00</totfact>
</mgrwt>
</event>
<event>
 8    2  0.4480234E-052  0.1268214E+04  0.7818608E-02  0.9055159E-01
          2   -1    0    0  501    0  0.00000000000E+00  0.00000000000E+00  0.64254114151E+03  0.64254114152E+03  0.25500000000E-02 0.  1.
         -2   -1    0    0    0  501 -0.00000000000E+00 -0.00000000000E+00 -0.62578339371E+03  0.62578339371E+03  0.25500000000E-02 0. -1.
    -200001    2    1    2    0    0  0.29577830552E+02 -0.77577618571E+02 -0.13320739650E+03  0.63180927267E+03  0.61200131665E+03 0.  0.
   -5000001    2    3    3    0    0  0.95477342129E+02 -0.10828101175E+03 -0.34722548228E+03  0.38424072657E+03  0.78960116812E+02 0.  0.
     200001    1    1    2    0    0 -0.29577830552E+02  0.77577618571E+02  0.14996514431E+03  0.63651526256E+03  0.61300000000E+03 0.  1.
         13    1    4    4    0    0  0.10053751754E+02 -0.61986457457E+02 -0.12747708723E+03  0.14210495335E+03  0.10566000000E+00 0.  1.
    -200003    1    4    4    0    0  0.85423590375E+02 -0.46294554294E+02 -0.21974839505E+03  0.24213577323E+03  0.30000000000E+02 0.  1.
    -200000    1    3    3    0    0 -0.65899511577E+02  0.30703393180E+02  0.21401808577E+03  0.24756854610E+03  0.10100000000E+03 0.  1.
<mgrwt>
<rscale>  0 0.12682138E+04</rscale>
<asrwt>0</asrwt>
<pdfrwt beam="1">  1        2 0.91791592E-01 0.12682138E+04</pdfrwt>
<pdfrwt beam="2">  1       -2 0.89397628E-01 0.12682138E+04</pdfrwt>
<totfact> 0.52778494E+01</totfact>
</mgrwt>
</event>
<event>
 8    2  0.4480234E-052  0.1806617E+04  0.7818608E-02  0.8702789E-01
         -2   -1    0    0    0  501 -0.00000000000E+00  0.00000000000E+00  0.59359138818E+03  0.59359138818E+03  0.25500000000E-02 0. -1.
          2   -1    0    0  501    0  0.00000000000E+00 -0.00000000000E+00 -0.13746256927E+04  0.13746256927E+04  0.25500000000E-02 0.  1.
    -200001    2    1    2    0    0 -0.14233613455E+03  0.64791981002E+03 -0.41010895688E+03  0.99178773429E+03  0.61269396763E+03 0.  0.
   -5000001    2    3    3    0    0 -0.30619938095E+03  0.57666591211E+03 -0.25191060563E+03  0.73264298743E+03  0.21680673127E+03 0.  0.
     200001    1    1    2    0    0  0.14233613455E+03 -0.64791981002E+03 -0.37092534769E+03  0.97642934664E+03  0.61300000000E+03 0.  1.
         13    1    4    4    0    0 -0.11956581016E+03  0.16031970963E+03 -0.18136475249E+03  0.26998440115E+03  0.10566000000E+00 0.  1.
    -200003    1    4    4    0    0 -0.18663357079E+03  0.41634620248E+03 -0.70545853140E+02  0.46265858628E+03  0.30000000000E+02 0.  1.
    -200000    1    3    3    0    0  0.16386324640E+03  0.71253897914E+02 -0.15819835125E+03  0.25914474686E+03  0.10100000000E+03 0.  1.
<mgrwt>
<rscale>  0 0.18066167E+04</rscale>
<asrwt>0</asrwt>
<pdfrwt beam="1">  1        2 0.19637510E+00 0.18066167E+04</pdfrwt>
<pdfrwt beam="2">  1       -2 0.84798770E-01 0.18066167E+04</pdfrwt>
<totfact> 0.19586652E+01</totfact>
</mgrwt>
</event>
<event>
 8    2  0.4480234E-052  0.1266036E+04  0.7818608E-02  0.9056941E-01
          2   -1    0    0  501    0  0.00000000000E+00  0.00000000000E+00  0.13704318133E+04  0.13704318133E+04  0.25500000000E-02 0.  1.
         -2   -1    0    0    0  501 -0.00000000000E+00 -0.00000000000E+00 -0.29239821138E+03  0.29239821139E+03  0.25500000000E-02 0. -1.
    -200001    2    1    2    0    0  0.10994109578E+03 -0.66261637471E+02  0.41694503645E+03  0.75217930102E+03  0.61274210588E+03 0.  0.
   -5000001    2    3    3    0    0 -0.74738261775E+02 -0.26204504713E+03  0.36008195669E+03  0.45914002303E+03  0.83048965790E+02 0.  0.
     200001    1    1    2    0    0 -0.10994109578E+03  0.66261637471E+02  0.66108856549E+03  0.91065072369E+03  0.61300000000E+03 0.  1.
         13    1    4    4    0    0 -0.91141826691E+01 -0.12085659125E+02  0.29093463807E+00  0.15140253935E+02  0.10566000000E+00 0.  1.
    -200003    1    4    4    0    0 -0.65624079106E+02 -0.24995938800E+03  0.35979102205E+03  0.44399976909E+03  0.30000000000E+02 0.  1.
    -200000    1    3    3    0    0  0.18467935755E+03  0.19578340966E+03  0.56863079766E+02  0.29303927799E+03  0.10100000000E+03 0.  1.
<mgrwt>
<rscale>  0 0.12660360E+04</rscale>
<asrwt>0</asrwt>
<pdfrwt beam="1">  1        2 0.19577598E+00 0.12660360E+04</pdfrwt>
<pdfrwt beam="2">  1       -2 0.41771172E-01 0.12660360E+04</pdfrwt>
<totfact> 0.91587455E+01</totfact>
</mgrwt>
</event>
<event>
 8    2  0.4480234E-052  0.1305759E+04  0.7818608E-02  0.9025011E-01
         -2   -1    0    0    0  501 -0.00000000000E+00  0.00000000000E+00  0.23196728001E+04  0.23196728001E+04  0.25500000000E-02 0. -1.
          2   -1    0    0  501    0  0.00000000000E+00 -0.00000000000E+00 -0.18375501917E+03  0.18375501919E+03  0.25500000000E-02 0.  1.
    -200001    2    1    2    0    0 -0.15890798934E+02  0.15988433445E+02  0.14878041704E+04  0.16110554757E+04  0.61760047665E+03 0.  0.
   -5000001    2    3    3    0    0  0.90718451591E+02 -0.91255442971E+02  0.13997171549E+04  0.14089982965E+04  0.97522780593E+02 0.  0.
     200001    1    1    2    0    0  0.15890798934E+02 -0.15988433445E+02  0.64811361052E+03  0.89237234361E+03  0.61300000000E+03 0.  1.
         13    1    4    4    0    0  0.32606097462E+02  0.82423556945E+01  0.15541153281E+03  0.15900896112E+03  0.10566000000E+00 0.  1.
    -200003    1    4    4    0    0  0.58112354129E+02 -0.99497798666E+02  0.12443056220E+04  0.12499893354E+04  0.30000000000E+02 0.  1.
    -200000    1    3    3    0    0 -0.10660925052E+03  0.10724387642E+03  0.88087015517E+02  0.20205717911E+03  0.10100000000E+03 0. -1.
<mgrwt>
<rscale>  0 0.13057588E+04</rscale>
<asrwt>0</asrwt>
<pdfrwt beam="1">  1        2 0.26250719E-01 0.13057588E+04</pdfrwt>
<pdfrwt beam="2">  1       -2 0.33138180E+00 0.13057588E+04</pdfrwt>
<totfact> 0.41813296E+00</totfact>
</mgrwt>
</event>
<event>
 8    2  0.4480234E-052  0.3318935E+04  0.7818608E-02  0.8158094E-01
         -2   -1    0    0    0  501 -0.00000000000E+00  0.00000000000E+00  0.62784959394E+03  0.62784959395E+03  0.25500000000E-02 0. -1.
          2   -1    0    0  501    0  0.00000000000E+00 -0.00000000000E+00 -0.43861326380E+04  0.43861326380E+04  0.25500000000E-02 0.  1.
    -200001    2    1    2    0    0  0.89850409420E+03  0.22728669630E+03 -0.37417958644E+04  0.39026723397E+04  0.60897146918E+03 0.  0.
   -5000001    2    3    3    0    0  0.46458175177E+03  0.36680015912E+03 -0.25312339494E+04  0.26052079835E+04  0.17200223735E+03 0.  0.
     200001    1    1    2    0    0 -0.89850409420E+03 -0.22728669630E+03 -0.16487179654E+02  0.11113098923E+04  0.61300000000E+03 0. -1.
         13    1    4    4    0    0  0.35950557017E+03  0.31866783002E+03 -0.22302289847E+04  0.22813843990E+04  0.10566000000E+00 0.  1.
    -200003    1    4    4    0    0  0.10507618160E+03  0.48132329101E+02 -0.30100496478E+03  0.32382358448E+03  0.30000000000E+02 0.  1.
    -200000    1    3    3    0    0  0.43392234243E+03 -0.13951346282E+03 -0.12105619150E+04  0.12974643562E+04  0.10100000000E+03 0. -1.
<mgrwt>
<rscale>  0 0.33189345E+04</rscale>
<asrwt>0</asrwt>
<pdfrwt beam="1">  1        2 0.62659036E+00 0.33189345E+04</pdfrwt>
<pdfrwt beam="2">  1       -2 0.89692802E-01 0.33189345E+04</pdfrwt>
<totfact> 0.26606672E-01</totfact>
</mgrwt>
</event>
<event>
 8    2  0.4480234E-052  0.1568911E+04  0.7818608E-02  0.8839878E-01
          2   -1    0    0  501    0  0.00000000000E+00  0.00000000000E+00  0.13268295061E+04  0.13268295061E+04  0.25500000000E-02 0.  1.
         -2   -1    0    0    0  501 -0.00000000000E+00 -0.00000000000E+00 -0.46379033783E+03  0.46379033783E+03  0.25500000000E-02 0. -1.
    -200001    2    1    2    0    0 -0.22387255890E+02  0.16970829033E+03 -0.91843491529E+02  0.64306941497E+03  0.61302606185E+03 0.  0.
   -5000001    2    3    3    0    0  0.99087268531E+02 -0.46904870082E+02 -0.13803976683E+03  0.37101718249E+03  0.32646656621E+03 0.  0.
     200001    1    1    2    0    0  0.22387255890E+02 -0.16970829033E+03  0.95488265981E+03  0.11475504290E+04  0.61300000000E+03 0.  1.
         13    1    4    4    0    0  0.13716844920E+03 -0.99563394197E+02 -0.20976773524E+03  0.26968605235E+03  0.10566000000E+00 0.  1.
    -200003    1    4    4    0    0 -0.38081180670E+02  0.52658524115E+02  0.71727968409E+02  0.10133113014E+03  0.30000000000E+02 0.  1.
    -200000    1    3    3    0    0 -0.12147452442E+03  0.21661316041E+03  0.46196275302E+02  0.27205223248E+03  0.10100000000E+03 0.  1.
<mgrwt>
<rscale>  0 0.15689113E+04</rscale>
<asrwt>0</asrwt>
<pdfrwt beam="1">  1        2 0.18954707E+00 0.15689113E+04</pdfrwt>
<pdfrwt beam="2">  1       -2 0.66255763E-01 0.15689113E+04</pdfrwt>
<totfact> 0.36604288E+01</totfact>
</mgrwt>
</event>
<event>
 8    2  0.4480234E-052  0.1514253E+04  0.7818608E-02  0.8875030E-01
         -2   -1    0    0    0  501 -0.00000000000E+00  0.00000000000E+00  0.44783429182E+03  0.44783429182E+03  0.25500000000E-02 0. -1.
          2   -1    0    0  501    0  0.00000000000E+00 -0.00000000000E+00 -0.12800276932E+04  0.12800276932E+04  0.25500000000E-02 0.  1.
    -200001    2    1    2    0    0  0.46452410854E+02 -0.44173496852E+03 -0.42943741385E+03  0.87038370871E+03  0.61307723745E+03 0.  0.
   -5000001    2    3    3    0    0  0.11389168750E+03 -0.23545641222E+03  0.98881376183E+02  0.29036591352E+03  0.78254703638E+02 0.  0.
     200001    1    1    2    0    0 -0.46452410854E+02  0.44173496852E+03 -0.40275598755E+03  0.85747827634E+03  0.61300000000E+03 0. -1.
         13    1    4    4    0    0  0.18203883733E+02 -0.49625197953E+01 -0.30649188809E+01  0.19115775618E+02  0.10566000000E+00 0.  1.
    -200003    1    4    4    0    0  0.95687803770E+02 -0.23049389243E+03  0.10194629506E+03  0.27125013791E+03  0.30000000000E+02 0.  1.
    -200000    1    3    3    0    0 -0.67439276649E+02 -0.20627855630E+03 -0.52831879004E+03  0.58001779518E+03  0.10100000000E+03 0.  1.
<mgrwt>
<rscale>  0 0.15142527E+04</rscale>
<asrwt>0</asrwt>
<pdfrwt beam="1">  1        2 0.18286110E+00 0.15142527E+04</pdfrwt>
<pdfrwt beam="2">  1       -2 0.63976328E-01 0.15142527E+04</pdfrwt>
<totfact> 0.42063583E+01</totfact>
</mgrwt>
</event>
<event>
 8    2  0.4480234E-052  0.1594404E+04  0.7818608E-02  0.8823993E-01
         -2   -1    0    0    0  501 -0.00000000000E+00  0.00000000000E+00  0.81390983037E+03  0.81390983037E+03  0.25500000000E-02 0. -1.
          2   -1    0    0  501    0  0.00000000000E+00 -0.00000000000E+00 -0.78083724925E+03  0.78083724926E+03  0.25500000000E-02 0.  1.
    -200001    2    1    2    0    0  0.35781389344E+03  0.35463026134E+03 -0.60943577556E+02  0.79574680260E+03  0.61294816224E+03 0.  0.
   -5000001    2    3    3    0    0  0.14699903570E+03  0.33752958060E+03  0.21278471350E+03  0.43538099560E+03  0.93511190548E+02 0.  0.
     200001    1    1    2    0    0 -0.35781389344E+03 -0.35463026134E+03  0.94016158669E+02  0.79900027703E+03  0.61300000000E+03 0.  1.
         13    1    4    4    0    0  0.11315226013E+03  0.21657146976E+03  0.10033926354E+03  0.26414884905E+03  0.10566000000E+00 0.  1.
    -200003    1    4    4    0    0  0.33846775566E+02  0.12095811084E+03  0.11244544996E+03  0.17123214655E+03  0.30000000000E+02 0.  1.
    -200000    1    3    3    0    0  0.21081485775E+03  0.17100680749E+02 -0.27372829106E+03  0.36036580700E+03  0.10100000000E+03 0.  1.
<mgrwt>
<rscale>  0 0.15944041E+04</rscale>
<asrwt>0</asrwt>
<pdfrwt beam="1">  1        2 0.11154818E+00 0.15944041E+04</pdfrwt>
<pdfrwt beam="2">  1       -2 0.11627283E+00 0.15944041E+04</pdfrwt>
<totfact> 0.21645545E+01</totfact>
</mgrwt>
</event>
<event>
 8    2  0.4480234E-052  0.1304497E+04  0.7818608E-02  0.9026006E-01
          2   -1    0    0  501    0  0.00000000000E+00  0.00000000000E+00  0.19552512401E+04  0.19552512401E+04  0.25500000000E-02 0.  1.
         -2   -1    0    0    0  501 -0.00000000000E+00 -0.00000000000E+00 -0.21758242364E+03  0.21758242365E+03  0.25500000000E-02 0. -1.
    -200001    2    1    2    0    0 -0.13830775978E+03  0.16465511236E+03  0.76383108730E+03  0.10022059410E+04  0.61215886490E+03 0.  0.
   -5000001    2    3    3    0    0  0.14770034759E+03 -0.13703289538E+03  0.17044558470E+03  0.27068448120E+03  0.60207839373E+02 0.  0.
     200001    1    1    2    0    0  0.13830775978E+03 -0.16465511236E+03  0.97383772915E+03  0.11706277227E+04  0.61300000000E+03 0. -1.
         13    1    4    4    0    0  0.75108854382E+01 -0.48744253774E+01  0.27483364083E+02  0.28905360890E+02  0.10566000000E+00 0.  1.
    -200003    1    4    4    0    0  0.14018946216E+03 -0.13215847000E+03  0.14296222061E+03  0.24177912031E+03  0.30000000000E+02 0.  1.
    -200000    1    3    3    0    0 -0.28600810738E+03  0.30168800775E+03  0.59338550260E+03  0.73152145984E+03  0.10100000000E+03 0.  1.
<mgrwt>
<rscale>  0 0.13044973E+04</rscale>
<asrwt>0</asrwt>
<pdfrwt beam="1">  1        2 0.27932161E+00 0.13044973E+04</pdfrwt>
<pdfrwt beam="2">  1       -2 0.31083202E-01 0.13044973E+04</pdfrwt>
<totfact> 0.79591895E+01</totfact>
</mgrwt>
</event>
<event>
 8    2  0.4480234E-052  0.1913513E+04  0.7818608E-02  0.8648159E-01
         -2   -1    0    0    0  501 -0.00000000000E+00  0.00000000000E+00  0.33378955315E+03  0.33378955316E+03  0.25500000000E-02 0. -1.
          2   -1    0    0  501    0  0.00000000000E+00 -0.00000000000E+00 -0.27423960682E+04  0.27423960682E+04  0.25500000000E-02 0.  1.
    -200001    2    1    2    0    0 -0.72330907422E+03 -0.26148168450E+02 -0.99619607505E+03  0.13748532039E+04  0.61151857605E+03 0.  0.
   -5000001    2    3    3    0    0 -0.43815836188E+03  0.22745010122E+03 -0.38043124851E+03  0.64342287046E+03  0.15983978464E+03 0.  0.
     200001    1    1    2    0    0  0.72330907422E+03  0.26148168450E+02 -0.14124104400E+04  0.17013324175E+04  0.61300000000E+03 0. -1.
         13    1    4    4    0    0 -0.26476882767E+03  0.56640736717E+02 -0.23352465244E+03  0.35755346401E+03  0.10566000000E+00 0.  1.
    -200003    1    4    4    0    0 -0.17338953421E+03  0.17080936450E+03 -0.14690659607E+03  0.28586940645E+03  0.30000000000E+02 0.  1.
    -200000    1    3    3    0    0 -0.28515071234E+03 -0.25359826967E+03 -0.61576482653E+03  0.73143033347E+03  0.10100000000E+03 0.  1.
<mgrwt>
<rscale>  0 0.19135132E+04</rscale>
<asrwt>0</asrwt>
<pdfrwt beam="1">  1        2 0.39177085E+00 0.19135132E+04</pdfrwt>
<pdfrwt beam="2">  1       -2 0.47684224E-01 0.19135132E+04</pdfrwt>
<totfact> 0.12801760E+01</totfact>
</mgrwt>
</event>
<event>
 8    2  0.4480234E-052  0.1582121E+04  0.7818608E-02  0.8831608E-01
         -2   -1    0    0    0  501 -0.00000000000E+00  0.00000000000E+00  0.47287781568E+03  0.47287781569E+03  0.25500000000E-02 0. -1.
          2   -1    0    0  501    0  0.00000000000E+00 -0.00000000000E+00 -0.13233364783E+04  0.13233364783E+04  0.25500000000E-02 0.  1.
    -200001    2    1    2    0    0  0.16782056909E+03 -0.29236814465E+02  0.10961398146E+03  0.64446474802E+03  0.61180148069E+03 0.  0.
   -5000001    2    3    3    0    0 -0.18458976547E+03  0.77852366948E+02 -0.66287672219E+02  0.22398463143E+03  0.75104507672E+02 0.  0.
     200001    1    1    2    0    0 -0.16782056909E+03  0.29236814465E+02 -0.96007264409E+03  0.11517495460E+04  0.61300000000E+03 0.  1.
         13    1    4    4    0    0 -0.27507580830E+02  0.14803297101E+02 -0.38940641675E+02  0.49921832361E+02  0.10566000000E+00 0.  1.
    -200003    1    4    4    0    0 -0.15708218464E+03  0.63049069847E+02 -0.27347030544E+02  0.17406279907E+03  0.30000000000E+02 0.  1.
    -200000    1    3    3    0    0  0.35241033456E+03 -0.10708918141E+03  0.17590165368E+03  0.42048011659E+03  0.10100000000E+03 0. -1.
<mgrwt>
<rscale>  0 0.15821207E+04</rscale>
<asrwt>0</asrwt>
<pdfrwt beam="1">  1        2 0.18904807E+00 0.15821207E+04</pdfrwt>
<pdfrwt beam="2">  1       -2 0.67553974E-01 0.15821207E+04</pdfrwt>
<totfact> 0.35221584E+01</totfact>
</mgrwt>
</event>
<event>
 8    2  0.4480234E-052  0.1403390E+04  0.7818608E-02  0.8951368E-01
          2   -1    0    0  501    0  0.00000000000E+00  0.00000000000E+00  0.36862741828E+04  0.36862741828E+04  0.25500000000E-02 0.  1.
         -2   -1    0    0    0  501 -0.00000000000E+00 -0.00000000000E+00 -0.13357010330E+03  0.13357010332E+03  0.25500000000E-02 0. -1.
    -200001    2    1    2    0    0  0.53463211303E+02 -0.15894604863E+03  0.25833233788E+04  0.26607109442E+04  0.61457374501E+03 0.  0.
   -5000001    2    3    3    0    0  0.28421291410E+03 -0.63634288591E+02  0.19397145526E+04  0.19630268624E+04  0.78457718551E+02 0.  0.
     200001    1    1    2    0    0 -0.53463211303E+02  0.15894604863E+03  0.96938070069E+03  0.11591333419E+04  0.61300000000E+03 0. -1.
         13    1    4    4    0    0  0.79892773556E+02 -0.28903933479E+02  0.38434809283E+03  0.39362642221E+03  0.10566000000E+00 0.  1.
    -200003    1    4    4    0    0  0.20432014054E+03 -0.34730355112E+02  0.15553664598E+04  0.15694004402E+04  0.30000000000E+02 0.  1.
    -200000    1    3    3    0    0 -0.23074970279E+03 -0.95311760035E+02  0.64360882616E+03  0.69768408184E+03  0.10100000000E+03 0. -1.
<mgrwt>
<rscale>  0 0.14033902E+04</rscale>
<asrwt>0</asrwt>
<pdfrwt beam="1">  1        2 0.52661059E+00 0.14033902E+04</pdfrwt>
<pdfrwt beam="2">  1       -2 0.19081443E-01 0.14033902E+04</pdfrwt>
<totfact> 0.21123722E+01</totfact>
</mgrwt>
</event>
<event>
 8    2  0.4480234E-052  0.2236950E+04  0.7818608E-02  0.8503204E-01
         -2   -1    0    0    0  501 -0.00000000000E+00  0.00000000000E+00  0.94571990653E+03  0.94571990654E+03  0.25500000000E-02 0. -1.
          2   -1    0    0  501    0  0.00000000000E+00 -0.00000000000E+00 -0.13227873791E+04  0.13227873791E+04  0.25500000000E-02 0.  1.
    -200001    2    1    2    0    0 -0.35661189339E+03 -0.79733996074E+03 -0.52871290595E+03  0.11906907925E+04  0.61260441627E+03 0.  0.
   -5000001    2    3    3    0    0 -0.52615480206E+02 -0.37659725541E+03 -0.32328519777E+03  0.62338154117E+03  0.37349343398E+03 0.  0.
     200001    1    1    2    0    0  0.35661189339E+03  0.79733996074E+03  0.15164543339E+03  0.10778164932E+04  0.61300000000E+03 0.  1.
         13    1    4    4    0    0  0.24137990788E+02 -0.51860134211E+02 -0.27974542074E+03  0.28553393443E+03  0.10566000000E+00 0.  1.
    -200003    1    4    4    0    0 -0.76753470994E+02 -0.32473712120E+03 -0.43539777030E+02  0.33784760674E+03  0.30000000000E+02 0.  1.
    -200000    1    3    3    0    0 -0.30399641319E+03 -0.42074270532E+03 -0.20542770817E+03  0.56730925129E+03  0.10100000000E+03 0. -1.
<mgrwt>
<rscale>  0 0.22369500E+04</rscale>
<asrwt>0</asrwt>
<pdfrwt beam="1">  1        2 0.18896963E+00 0.22369500E+04</pdfrwt>
<pdfrwt beam="2">  1       -2 0.13510284E+00 0.22369500E+04</pdfrwt>
<totfact> 0.65767198E+00</totfact>
</mgrwt>
</event>
<event>
 8    2  0.4480234E-052  0.1533159E+04  0.7818608E-02  0.8862697E-01
         -2   -1    0    0    0  501 -0.00000000000E+00  0.00000000000E+00  0.20936413777E+03  0.20936413779E+03  0.25500000000E-02 0. -1.
          2   -1    0    0  501    0  0.00000000000E+00 -0.00000000000E+00 -0.28068029778E+04  0.28068029778E+04  0.25500000000E-02 0.  1.
    -200001    2    1    2    0    0  0.17286557286E+03 -0.24710113939E+03 -0.19831603884E+04  0.20974459961E+04  0.61270963818E+03 0.  0.
   -5000001    2    3    3    0    0  0.23268926374E+03 -0.18965403208E+03 -0.19323247555E+04  0.19572165209E+04  0.81881643841E+02 0.  0.
     200001    1    1    2    0    0 -0.17286557286E+03  0.24710113939E+03 -0.61427845154E+03  0.91872111949E+03  0.61300000000E+03 0. -1.
         13    1    4    4    0    0  0.42326794802E+02 -0.77159988292E+02 -0.55166941890E+03  0.55864512910E+03  0.10566000000E+00 0.  1.
    -200003    1    4    4    0    0  0.19036246894E+03 -0.11249404379E+03 -0.13806553366E+04  0.13985713918E+04  0.30000000000E+02 0.  1.
    -200000    1    3    3    0    0 -0.59823690888E+02 -0.57447107309E+02 -0.50835632954E+02  0.14022947517E+03  0.10100000000E+03 0. -1.
<mgrwt>
<rscale>  0 0.15331587E+04</rscale>
<asrwt>0</asrwt>
<pdfrwt beam="1">  1        2 0.40097183E+00 0.15331587E+04</pdfrwt>
<pdfrwt beam="2">  1       -2 0.29909164E-01 0.15331587E+04</pdfrwt>
<totfact> 0.30128208E+01</totfact>
</mgrwt>
</event>
<event>
 8    2  0.4480234E-052  0.1692680E+04  0.7818608E-02  0.8765550E-01
         -2   -1    0    0    0  501 -0.00000000000E+00  0.00000000000E+00  0.14758278422E+04  0.14758278422E+04  0.25500000000E-02 0. -1.
          2   -1    0    0  501    0  0.00000000000E+00 -0.00000000000E+00 -0.48534871599E+03  0.48534871599E+03  0.25500000000E-02 0.  1.
    -200001    2    1    2    0    0 -0.40182299147E+03 -0.28677952110E+03  0.85616764593E+03  0.11627325815E+04  0.61255188185E+03 0.  0.
   -5000001    2    3    3    0    0 -0.40644911270E+03 -0.89704854022E+01  0.73314628919E+03  0.84252246997E+03  0.84019522933E+02 0.  0.
     200001    1    1    2    0    0  0.40182299147E+03  0.28677952110E+03  0.13431148030E+03  0.79844397670E+03  0.61300000000E+03 0. -1.
         13    1    4    4    0    0 -0.12620008686E+03  0.25766099149E+02  0.18878281658E+03  0.22853734222E+03  0.10566000000E+00 0.  1.
    -200003    1    4    4    0    0 -0.28024902583E+03 -0.34736584552E+02  0.54436347260E+03  0.61398512774E+03  0.30000000000E+02 0.  1.
    -200000    1    3    3    0    0  0.46261212297E+01 -0.27780903570E+03  0.12302135674E+03  0.32021011153E+03  0.10100000000E+03 0.  1.
<mgrwt>
<rscale>  0 0.16926797E+04</rscale>
<asrwt>0</asrwt>
<pdfrwt beam="1">  1        2 0.69335530E-01 0.16926797E+04</pdfrwt>
<pdfrwt beam="2">  1       -2 0.21083255E+00 0.16926797E+04</pdfrwt>
<totfact> 0.74942304E+00</totfact>
</mgrwt>
</event>
<event>
 8    2  0.4480234E-052  0.1821103E+04  0.7818608E-02  0.8695157E-01
          2   -1    0    0  501    0  0.00000000000E+00  0.00000000000E+00  0.31619721765E+04  0.31619721765E+04  0.25500000000E-02 0.  1.
         -2   -1    0    0    0  501 -0.00000000000E+00 -0.00000000000E+00 -0.26221103686E+03  0.26221103687E+03  0.25500000000E-02 0. -1.
    -200001    2    1    2    0    0  0.21472159474E+02 -0.34423499150E+03  0.37513071500E+03  0.80340345078E+03  0.62110809718E+03 0.  0.
   -5000001    2    3    3    0    0  0.11407379246E+03 -0.93793951923E+02 -0.12876032857E+03  0.22426360538E+03  0.10910915151E+03 0.  0.
     200001    1    1    2    0    0 -0.21472159474E+02  0.34423499150E+03  0.25246304247E+04  0.26207797626E+04  0.61300000000E+03 0.  1.
         13    1    4    4    0    0  0.77404148055E+02 -0.10274022438E+03 -0.64425461642E+02  0.14386662960E+03  0.10566000000E+00 0.  1.
    -200003    1    4    4    0    0  0.36669644402E+02  0.89462724580E+01 -0.64334866931E+02  0.80396975779E+02  0.30000000000E+02 0.  1.
    -200000    1    3    3    0    0 -0.92601632983E+02 -0.25044103958E+03  0.50389104357E+03  0.57913984540E+03  0.10100000000E+03 0.  1.
<mgrwt>
<rscale>  0 0.18211030E+04</rscale>
<asrwt>0</asrwt>
<pdfrwt beam="1">  1        2 0.45171027E+00 0.18211030E+04</pdfrwt>
<pdfrwt beam="2">  1       -2 0.37458723E-01 0.18211030E+04</pdfrwt>
<totfact> 0.12156484E+01</totfact>
</mgrwt>
</event>
<event>
 8    2  0.4480234E-052  0.2401725E+04  0.7818608E-02  0.8438858E-01
          2   -1    0    0  501    0  0.00000000000E+00  0.00000000000E+00  0.26627442085E+04  0.26627442085E+04  0.25500000000E-02 0.  1.
         -2   -1    0    0    0  501 -0.00000000000E+00 -0.00000000000E+00 -0.54157325767E+03  0.54157325767E+03  0.25500000000E-02 0. -1.
    -200001    2    1    2    0    0 -0.10084480971E+04 -0.15281819381E+03  0.12754084895E+04  0.17443845547E+04  0.61309843817E+03 0.  0.
   -5000001    2    3    3    0    0 -0.91827029087E+03 -0.20673706570E+03  0.78535859589E+03  0.12331222153E+04  0.13357294784E+03 0.  0.
     200001    1    1    2    0    0  0.10084480971E+04  0.15281819381E+03  0.84576246137E+03  0.14599329115E+04  0.61300000000E+03 0.  1.
         13    1    4    4    0    0 -0.74464045390E+02 -0.55586008069E+02  0.76660070072E+02  0.12046358726E+03  0.10566000000E+00 0.  1.
    -200003    1    4    4    0    0 -0.84380624548E+03 -0.15115105763E+03  0.70869852582E+03  0.11126586281E+04  0.30000000000E+02 0.  1.
    -200000    1    3    3    0    0 -0.90177806226E+02  0.53918871892E+02  0.49004989360E+03  0.51126233941E+03  0.10100000000E+03 0.  1.
<mgrwt>
<rscale>  0 0.24017253E+04</rscale>
<asrwt>0</asrwt>
<pdfrwt beam="1">  1        2 0.38039204E+00 0.24017253E+04</pdfrwt>
<pdfrwt beam="2">  1       -2 0.77367606E-01 0.24017253E+04</pdfrwt>
<totfact> 0.48611547E+00</totfact>
</mgrwt>
</event>
<event>
 8    2  0.4480234E-052  0.1519712E+04  0.7818608E-02  0.8871450E-01
          2   -1    0    0  501    0  0.00000000000E+00  0.00000000000E+00  0.18288222383E+04  0.18288222383E+04  0.25500000000E-02 0.  1.
         -2   -1    0    0    0  501 -0.00000000000E+00 -0.00000000000E+00 -0.31571188692E+03  0.31571188693E+03  0.25500000000E-02 0. -1.
    -200001    2    1    2    0    0 -0.29106777483E+03 -0.16864240641E+03  0.11782164789E+04  0.13692383000E+04  0.61111270666E+03 0.  0.
   -5000001    2    3    3    0    0 -0.14851102333E+02 -0.13995972762E+02  0.71627977800E+03  0.80020606431E+03  0.35616931717E+03 0.  0.
     200001    1    1    2    0    0  0.29106777483E+03  0.16864240641E+03  0.33489387248E+03  0.77529582522E+03  0.61300000000E+03 0. -1.
         13    1    4    4    0    0  0.11667038492E+03  0.11438983193E+03  0.41512065062E+03  0.44611901786E+03  0.10566000000E+00 0.  1.
    -200003    1    4    4    0    0 -0.13152148725E+03 -0.12838580470E+03  0.30115912738E+03  0.35408704645E+03  0.30000000000E+02 0.  1.
    -200000    1    3    3    0    0 -0.27621667250E+03 -0.15464643365E+03  0.46193670088E+03  0.56903223566E+03  0.10100000000E+03 0.  1.
<mgrwt>
<rscale>  0 0.15197117E+04</rscale>
<asrwt>0</asrwt>
<pdfrwt beam="1">  1        2 0.26126032E+00 0.15197117E+04</pdfrwt>
<pdfrwt beam="2">  1       -2 0.45101699E-01 0.15197117E+04</pdfrwt>
<totfact> 0.44288392E+01</totfact>
</mgrwt>
</event>
<event>
 8    2  0.4480234E-052  0.1310615E+04  0.7818608E-02  0.9021189E-01
          2   -1    0    0  501    0  0.00000000000E+00  0.00000000000E+00  0.12084562513E+04  0.12084562513E+04  0.25500000000E-02 0.  1.
         -2   -1    0    0    0  501 -0.00000000000E+00 -0.00000000000E+00 -0.35535246811E+03  0.35535246812E+03  0.25500000000E-02 0. -1.
    -200001    2    1    2    0    0  0.33050244554E+01 -0.60592329217E+01  0.15099774439E+03  0.63173065017E+03  0.61338051653E+03 0.  0.
   -5000001    2    3    3    0    0 -0.19045055247E+03  0.12806515926E+03 -0.10341168658E+03  0.27054408517E+03  0.99136406769E+02 0.  0.
     200001    1    1    2    0    0 -0.33050244554E+01  0.60592329217E+01  0.70210603884E+03  0.93207806930E+03  0.61300000000E+03 0.  1.
         13    1    4    4    0    0  0.46138570730E+01  0.53572839416E+01  0.97644142339E+01  0.12055833347E+02  0.10566000000E+00 0.  1.
    -200003    1    4    4    0    0 -0.19506440954E+03  0.12270787532E+03 -0.11317610081E+03  0.25848825182E+03  0.30000000000E+02 0.  1.
    -200000    1    3    3    0    0  0.19375557693E+03 -0.13412439218E+03  0.25440943097E+03  0.36118656500E+03  0.10100000000E+03 0.  1.
<mgrwt>
<rscale>  0 0.13106150E+04</rscale>
<asrwt>0</asrwt>
<pdfrwt beam="1">  1        2 0.17263661E+00 0.13106150E+04</pdfrwt>
<pdfrwt beam="2">  1       -2 0.50764639E-01 0.13106150E+04</pdfrwt>
<totfact> 0.75976813E+01</totfact>
</mgrwt>
</event>
<event>
 8    2  0.4480234E-052  0.1375278E+04  0.7818608E-02  0.8971911E-01
          2   -1    0    0  501    0  0.00000000000E+00  0.00000000000E+00  0.24304698121E+04  0.24304698121E+04  0.25500000000E-02 0.  1.
         -2   -1    0    0    0  501 -0.00000000000E+00 -0.00000000000E+00 -0.19454974198E+03  0.19454974200E+03  0.25500000000E-02 0. -1.
    -200001    2    1    2    0    0 -0.54037655109E+02 -0.20528823663E+03  0.68185786469E+03  0.94099411883E+03  0.61276133671E+03 0.  0.
   -5000001    2    3    3    0    0  0.15164857329E+03  0.13713893989E+03  0.25967693516E+03  0.35107807986E+03  0.11840324696E+03 0.  0.
     200001    1    1    2    0    0  0.54037655109E+02  0.20528823663E+03  0.15540622054E+04  0.16840254353E+04  0.61300000000E+03 0.  1.
         13    1    4    4    0    0  0.15881814442E+03  0.99185984124E+02  0.20132487876E+03  0.27494141270E+03  0.10566000000E+00 0.  1.
    -200003    1    4    4    0    0 -0.71695711263E+01  0.37952955764E+02  0.58352056398E+02  0.76136667167E+02  0.30000000000E+02 0.  1.
    -200000    1    3    3    0    0 -0.20568622840E+03 -0.34242717652E+03  0.42218092953E+03  0.58991603897E+03  0.10100000000E+03 0. -1.
<mgrwt>
<rscale>  0 0.13752778E+04</rscale>
<asrwt>0</asrwt>
<pdfrwt beam="1">  1        2 0.34720994E+00 0.13752778E+04</pdfrwt>
<pdfrwt beam="2">  1       -2 0.27792823E-01 0.13752778E+04</pdfrwt>
<totfact> 0.55423095E+01</totfact>
</mgrwt>
</event>
<event>
 8    2  0.4480234E-052  0.1300277E+04  0.7818608E-02  0.9029346E-01
         -2   -1    0    0    0  501 -0.00000000000E+00  0.00000000000E+00  0.10348586699E+04  0.10348586699E+04  0.25500000000E-02 0. -1.
          2   -1    0    0  501    0  0.00000000000E+00 -0.00000000000E+00 -0.40844213141E+03  0.40844213142E+03  0.25500000000E-02 0.  1.
    -200001    2    1    2    0    0  0.19704294223E+02  0.20419226839E+03  0.39534495629E+03  0.75682733658E+03  0.61188825879E+03 0.  0.
   -5000001    2    3    3    0    0 -0.86334486050E+02  0.58510175509E+02  0.48864948255E+03  0.53016849662E+03  0.17726599755E+03 0.  0.
     200001    1    1    2    0    0 -0.19704294223E+02 -0.20419226839E+03  0.23107158219E+03  0.68647346473E+03  0.61300000000E+03 0.  1.
         13    1    4    4    0    0 -0.61074894612E+02  0.60677556031E+01  0.32705334670E+02  0.69545743866E+02  0.10566000000E+00 0.  1.
    -200003    1    4    4    0    0 -0.25259591438E+02  0.52442419905E+02  0.45594414789E+03  0.46062275276E+03  0.30000000000E+02 0.  1.
    -200000    1    3    3    0    0  0.10603878027E+03  0.14568209288E+03 -0.93304526265E+02  0.22665883996E+03  0.10100000000E+03 0.  1.
<mgrwt>
<rscale>  0 0.13002767E+04</rscale>
<asrwt>0</asrwt>
<pdfrwt beam="1">  1        2 0.58348876E-01 0.13002767E+04</pdfrwt>
<pdfrwt beam="2">  1       -2 0.14783695E+00 0.13002767E+04</pdfrwt>
<totfact> 0.25792959E+01</totfact>
</mgrwt>
</event>
<event>
 8    2  0.4480234E-052  0.1610888E+04  0.7818608E-02  0.8813887E-01
         -2   -1    0    0    0  501 -0.00000000000E+00  0.00000000000E+00  0.47935015461E+03  0.47935015462E+03  0.25500000000E-02 0. -1.
          2   -1    0    0  501    0  0.00000000000E+00 -0.00000000000E+00 -0.13533738695E+04  0.13533738695E+04  0.25500000000E-02 0.  1.
    -200001    2    1    2    0    0  0.78900492093E+01 -0.27713290043E+03 -0.94079580586E+03  0.11566379279E+04  0.61306578002E+03 0.  0.
   -5000001    2    3    3    0    0 -0.27657871273E+03 -0.43199362202E+02 -0.39186111796E+03  0.48792448527E+03  0.78442324816E+02 0.  0.
     200001    1    1    2    0    0 -0.78900492093E+01  0.27713290043E+03  0.66772090933E+02  0.67608609622E+03  0.61300000000E+03 0.  1.
         13    1    4    4    0    0 -0.21029253951E+03 -0.53369278368E+02 -0.30201147660E+03  0.37186311354E+03  0.10566000000E+00 0.  1.
    -200003    1    4    4    0    0 -0.66286173215E+02  0.10169916166E+02 -0.89849641358E+02  0.11606137172E+03  0.30000000000E+02 0.  1.
    -200000    1    3    3    0    0  0.28446876194E+03 -0.23393353823E+03 -0.54893468790E+03  0.66871344267E+03  0.10100000000E+03 0. -1.
<mgrwt>
<rscale>  0 0.16108879E+04</rscale>
<asrwt>0</asrwt>
<pdfrwt beam="1">  1        2 0.19333912E+00 0.16108879E+04</pdfrwt>
<pdfrwt beam="2">  1       -2 0.68478594E-01 0.16108879E+04</pdfrwt>
<totfact> 0.32851872E+01</totfact>
</mgrwt>
</event>
<event>
 8    2  0.4480234E-052  0.1398194E+04  0.7818608E-02  0.8955127E-01
          2   -1    0    0  501    0  0.00000000000E+00  0.00000000000E+00  0.32129892687E+04  0.32129892687E+04  0.25500000000E-02 0.  1.
         -2   -1    0    0    0  501 -0.00000000000E+00 -0.00000000000E+00 -0.15211273364E+03  0.15211273366E+03  0.25500000000E-02 0. -1.
    -200001    2    1    2    0    0 -0.10403358342E+03 -0.42548265371E+02  0.76617794214E+03  0.98727863346E+03  0.61241907197E+03 0.  0.
   -5000001    2    3    3    0    0  0.12157120700E+03  0.21499964615E+03  0.38565207405E+03  0.46552257507E+03  0.83542441071E+02 0.  0.
     200001    1    1    2    0    0  0.10403358342E+03  0.42548265371E+02  0.22946985930E+04  0.23778233689E+04  0.61300000000E+03 0.  1.
         13    1    4    4    0    0 -0.11010259198E+00 -0.63197818818E+01  0.77290904131E+01  0.99850772788E+01  0.10566000000E+00 0.  1.
    -200003    1    4    4    0    0  0.12168130959E+03  0.22131942803E+03  0.37792298364E+03  0.45553749779E+03  0.30000000000E+02 0.  1.
    -200000    1    3    3    0    0 -0.22560479042E+03 -0.25754791152E+03  0.38052586808E+03  0.52175605839E+03  0.10100000000E+03 0. -1.
<mgrwt>
<rscale>  0 0.13981940E+04</rscale>
<asrwt>0</asrwt>
<pdfrwt beam="1">  1        2 0.45899851E+00 0.13981940E+04</pdfrwt>
<pdfrwt beam="2">  1       -2 0.21730388E-01 0.13981940E+04</pdfrwt>
<totfact> 0.32357790E+01</totfact>
</mgrwt>
</event>
<event>
 8    2  0.4480234E-052  0.1291104E+04  0.7818608E-02  0.9036650E-01
          2   -1    0    0  501    0  0.00000000000E+00  0.00000000000E+00  0.12752877373E+04  0.12752877373E+04  0.25500000000E-02 0.  1.
         -2   -1    0    0    0  501 -0.00000000000E+00 -0.00000000000E+00 -0.32677910110E+03  0.32677910111E+03  0.25500000000E-02 0. -1.
    -200001    2    1    2    0    0 -0.96698063055E+02  0.22412283830E+02  0.25322680962E+03  0.66984441633E+03  0.61213960753E+03 0.  0.
   -5000001    2    3    3    0    0 -0.31461915655E+03  0.66511493859E+02  0.26614975138E+03  0.42529923494E+03  0.81454015261E+02 0.  0.
     200001    1    1    2    0    0  0.96698063055E+02 -0.22412283830E+02  0.69528182655E+03  0.93222242206E+03  0.61300000000E+03 0.  1.
         13    1    4    4    0    0 -0.13190687878E+03  0.17323818257E+00  0.13595117517E+03  0.18942594299E+03  0.10566000000E+00 0.  1.
    -200003    1    4    4    0    0 -0.18271227776E+03  0.66338255676E+02  0.13019857621E+03  0.23587329196E+03  0.30000000000E+02 0.  1.
    -200000    1    3    3    0    0  0.21792109349E+03 -0.44099210029E+02 -0.12922941759E+02  0.24454518138E+03  0.10100000000E+03 0. -1.
<mgrwt>
<rscale>  0 0.12911040E+04</rscale>
<asrwt>0</asrwt>
<pdfrwt beam="1">  1        2 0.18218396E+00 0.12911040E+04</pdfrwt>
<pdfrwt beam="2">  1       -2 0.46682729E-01 0.12911040E+04</pdfrwt>
<totfact> 0.82685927E+01</totfact>
</mgrwt>
</event>
<event>
 8    2  0.4480234E-052  0.1700310E+04  0.7818608E-02  0.8761187E-01
         -2   -1    0    0    0  501 -0.00000000000E+00  0.00000000000E+00  0.27875021397E+03  0.27875021398E+03  0.25500000000E-02 0. -1.
          2   -1    0    0  501    0  0.00000000000E+00 -0.00000000000E+00 -0.25928724248E+04  0.25928724248E+04  0.25500000000E-02 0.  1.
    -200001    2    1    2    0    0  0.32553062946E+03 -0.36736636955E+03 -0.60785168120E+03  0.99331053466E+03  0.61339539591E+03 0.  0.
   -5000001    2    3    3    0    0  0.44787444464E+03 -0.18224775288E+03 -0.56390908139E+03  0.74558313724E+03  0.63992193787E+02 0.  0.
     200001    1    1    2    0    0 -0.32553062946E+03  0.36736636955E+03 -0.17062705296E+04  0.18783121041E+04  0.61300000000E+03 0.  1.
         13    1    4    4    0    0  0.12587781804E+03 -0.77079610061E+02 -0.17715862922E+03  0.23058985761E+03  0.10566000000E+00 0.  1.
    -200003    1    4    4    0    0  0.32199662661E+03 -0.10516814282E+03 -0.38675045218E+03  0.51499327964E+03  0.30000000000E+02 0.  1.
    -200000    1    3    3    0    0 -0.12234381518E+03 -0.18511861668E+03 -0.43942599806E+02  0.24772739742E+03  0.10100000000E+03 0. -1.
<mgrwt>
<rscale>  0 0.17003103E+04</rscale>
<asrwt>0</asrwt>
<pdfrwt beam="1">  1        2 0.37041033E+00 0.17003103E+04</pdfrwt>
<pdfrwt beam="2">  1       -2 0.39821461E-01 0.17003103E+04</pdfrwt>
<totfact> 0.22416104E+01</totfact>
</mgrwt>
</event>
<event>
 8    2  0.4480234E-052  0.1425207E+04  0.7818608E-02  0.8935772E-01
          2   -1    0    0  501    0  0.00000000000E+00  0.00000000000E+00  0.53290386877E+03  0.53290386878E+03  0.25500000000E-02 0.  1.
         -2   -1    0    0    0  501 -0.00000000000E+00 -0.00000000000E+00 -0.95289940590E+03  0.95289940590E+03  0.25500000000E-02 0. -1.
    -200001    2    1    2    0    0  0.34215846758E+03 -0.26283437680E+02 -0.89001331065E+02  0.70921496645E+03  0.61424864320E+03 0.  0.
   -5000001    2    3    3    0    0  0.36803669186E+03  0.28175535846E+01 -0.26687666799E+03  0.50099108293E+03  0.21049932088E+03 0.  0.
     200001    1    1    2    0    0 -0.34215846758E+03  0.26283437680E+02 -0.33099420607E+03  0.77658830823E+03  0.61300000000E+03 0. -1.
         13    1    4    4    0    0  0.36678982669E+03  0.60444033333E+00 -0.17907384430E+03  0.40816981171E+03  0.10566000000E+00 0.  1.
    -200003    1    4    4    0    0  0.12468651690E+01  0.22131132513E+01 -0.87802823686E+02  0.92821271216E+02  0.30000000000E+02 0.  1.
    -200000    1    3    3    0    0 -0.25878224287E+02 -0.29100991265E+02  0.17787533692E+03  0.20822388353E+03  0.10100000000E+03 0.  1.
<mgrwt>
<rscale>  0 0.14252070E+04</rscale>
<asrwt>0</asrwt>
<pdfrwt beam="1">  1        2 0.76129124E-01 0.14252070E+04</pdfrwt>
<pdfrwt beam="2">  1       -2 0.13612849E+00 0.14252070E+04</pdfrwt>
<totfact> 0.23432092E+01</totfact>
</mgrwt>
</event>
<event>
 8    2  0.4480234E-052  0.2143365E+04  0.7818608E-02  0.8542378E-01
          2   -1    0    0  501    0  0.00000000000E+00  0.00000000000E+00  0.39328991946E+04  0.39328991946E+04  0.25500000000E-02 0.  1.
         -2   -1    0    0    0  501 -0.00000000000E+00 -0.00000000000E+00 -0.29202448885E+03  0.29202448886E+03  0.25500000000E-02 0. -1.
    -200001    2    1    2    0    0 -0.24327003799E+03 -0.77386601080E+03  0.11817037688E+04  0.15638450278E+04  0.62541071300E+03 0.  0.
   -5000001    2    3    3    0    0 -0.34354280390E+02 -0.66212152042E+03  0.11019315466E+04  0.12942207850E+04  0.14549633182E+03 0.  0.
     200001    1    1    2    0    0  0.24327003799E+03  0.77386601080E+03  0.24591709370E+04  0.26610786556E+04  0.61300000000E+03 0. -1.
         13    1    4    4    0    0 -0.82224508152E+02 -0.26268079939E+03  0.43481932700E+03  0.51461629434E+03  0.10566000000E+00 0.  1.
    -200003    1    4    4    0    0  0.47870227762E+02 -0.39944072103E+03  0.66711221956E+03  0.77960449063E+03  0.30000000000E+02 0.  1.
    -200000    1    3    3    0    0 -0.20891575760E+03 -0.11174449038E+03  0.79772222199E+02  0.26962424286E+03  0.10100000000E+03 0. -1.
<mgrwt>
<rscale>  0 0.21433645E+04</rscale>
<asrwt>0</asrwt>
<pdfrwt beam="1">  1        2 0.56184271E+00 0.21433645E+04</pdfrwt>
<pdfrwt beam="2">  1       -2 0.41717786E-01 0.21433645E+04</pdfrwt>
<totfact> 0.31913662E+00</totfact>
</mgrwt>
</event>
<event>
 8    2  0.4480234E-052  0.1493326E+04  0.7818608E-02  0.8888903E-01
         -2   -1    0    0    0  501 -0.00000000000E+00  0.00000000000E+00  0.71673437942E+03  0.71673437943E+03  0.25500000000E-02 0. -1.
          2   -1    0    0  501    0  0.00000000000E+00 -0.00000000000E+00 -0.77784102799E+03  0.77784102799E+03  0.25500000000E-02 0.  1.
    -200001    2    1    2    0    0 -0.16065287304E+03  0.38278230454E+03 -0.12567120527E+03  0.75142722551E+03  0.61361061361E+03 0.  0.
   -5000001    2    3    3    0    0 -0.10436854538E+03  0.20539645945E+03  0.23477817829E+03  0.33338605327E+03  0.54267565796E+02 0.  0.
     200001    1    1    2    0    0  0.16065287304E+03 -0.38278230454E+03  0.64564556711E+02  0.74314818190E+03  0.61300000000E+03 0.  1.
         13    1    4    4    0    0 -0.13447486375E+02  0.30644720581E+02  0.14843013147E+02  0.36609561492E+02  0.10566000000E+00 0.  1.
    -200003    1    4    4    0    0 -0.90921059010E+02  0.17475173887E+03  0.21993516514E+03  0.29677649178E+03  0.30000000000E+02 0.  1.
    -200000    1    3    3    0    0 -0.56284327651E+02  0.17738584509E+03 -0.36044938356E+03  0.41804117224E+03  0.10100000000E+03 0.  1.
<mgrwt>
<rscale>  0 0.14933257E+04</rscale>
<asrwt>0</asrwt>
<pdfrwt beam="1">  1        2 0.11112015E+00 0.14933257E+04</pdfrwt>
<pdfrwt beam="2">  1       -2 0.10239063E+00 0.14933257E+04</pdfrwt>
<totfact> 0.29809898E+01</totfact>
</mgrwt>
</event>
<event>
 8    2  0.4480234E-052  0.1538186E+04  0.7818608E-02  0.8859449E-01
         -2   -1    0    0    0  501 -0.00000000000E+00  0.00000000000E+00  0.43432845638E+03  0.43432845638E+03  0.25500000000E-02 0. -1.
          2   -1    0    0  501    0  0.00000000000E+00 -0.00000000000E+00 -0.13618819933E+04  0.13618819933E+04  0.25500000000E-02 0.  1.
    -200001    2    1    2    0    0 -0.16467470695E+03  0.23015618594E+03 -0.89269953145E+03  0.11201383894E+04  0.61457947325E+03 0.  0.
   -5000001    2    3    3    0    0 -0.32466011778E+03  0.32077489024E+03 -0.56119595074E+03  0.72783403656E+03  0.80627336273E+02 0.  0.
     200001    1    1    2    0    0  0.16467470695E+03 -0.23015618594E+03 -0.34854005507E+02  0.67607206031E+03  0.61300000000E+03 0. -1.
         13    1    4    4    0    0 -0.13457607943E+03  0.88937807892E+02 -0.21712305417E+03  0.27048675872E+03  0.10566000000E+00 0.  1.
    -200003    1    4    4    0    0 -0.19008403834E+03  0.23183708234E+03 -0.34407289657E+03  0.45734727783E+03  0.30000000000E+02 0.  1.
    -200000    1    3    3    0    0  0.15998541083E+03 -0.90618704299E+02 -0.33150358071E+03  0.39230435285E+03  0.10100000000E+03 0. -1.
<mgrwt>
<rscale>  0 0.15381861E+04</rscale>
<asrwt>0</asrwt>
<pdfrwt beam="1">  1        2 0.19455457E+00 0.15381861E+04</pdfrwt>
<pdfrwt beam="2">  1       -2 0.62046923E-01 0.15381861E+04</pdfrwt>
<totfact> 0.40398583E+01</totfact>
</mgrwt>
</event>
<event>
 8    2  0.4480234E-052  0.1864942E+04  0.7818608E-02  0.8672507E-01
          2   -1    0    0  501    0  0.00000000000E+00  0.00000000000E+00  0.11303716923E+04  0.11303716923E+04  0.25500000000E-02 0.  1.
         -2   -1    0    0    0  501 -0.00000000000E+00 -0.00000000000E+00 -0.76921785487E+03  0.76921785487E+03  0.25500000000E-02 0. -1.
    -200001    2    1    2    0    0  0.26528452498E+03  0.62048047274E+03 -0.18732498872E+02  0.91193853355E+03  0.61311425217E+03 0.  0.
   -5000001    2    3    3    0    0 -0.63680463026E+02  0.19532347602E+03  0.21598891754E+03  0.31673136078E+03  0.10705643721E+03 0.  0.
     200001    1    1    2    0    0 -0.26528452498E+03 -0.62048047274E+03  0.37988633635E+03  0.98765101366E+03  0.61300000000E+03 0.  1.
         13    1    4    4    0    0 -0.31902546431E+02  0.66685743482E+02  0.17110531337E+02  0.75878470591E+02  0.10566000000E+00 0.  1.
    -200003    1    4    4    0    0 -0.31777916595E+02  0.12863773254E+03  0.19887838620E+03  0.24085289019E+03  0.30000000000E+02 0.  1.
    -200000    1    3    3    0    0  0.32896498801E+03  0.42515699672E+03 -0.23472141641E+03  0.59520717277E+03  0.10100000000E+03 0. -1.
<mgrwt>
<rscale>  0 0.18649419E+04</rscale>
<asrwt>0</asrwt>
<pdfrwt beam="1">  1        2 0.16148167E+00 0.18649419E+04</pdfrwt>
<pdfrwt beam="2">  1       -2 0.10988826E+00 0.18649419E+04</pdfrwt>
<totfact> 0.14555570E+01</totfact>
</mgrwt>
</event>
<event>
 8    2  0.4480234E-052  0.1400485E+04  0.7818608E-02  0.8953467E-01
          2   -1    0    0  501    0  0.00000000000E+00  0.00000000000E+00  0.17888231886E+03  0.17888231888E+03  0.25500000000E-02 0.  1.
         -2   -1    0    0    0  501 -0.00000000000E+00 -0.00000000000E+00 -0.27411301879E+04  0.27411301879E+04  0.25500000000E-02 0. -1.
    -200001    2    1    2    0    0 -0.53444362036E+02  0.24161728707E+03 -0.17615992192E+04  0.18817242646E+04  0.61353010188E+03 0.  0.
   -5000001    2    3    3    0    0  0.21038759029E+03  0.29875356826E+03 -0.96273193459E+03  0.10324529346E+04  0.74763972205E+02 0.  0.
     200001    1    1    2    0    0  0.53444362036E+02 -0.24161728707E+03 -0.80064864989E+03  0.10382882422E+04  0.61300000000E+03 0.  1.
         13    1    4    4    0    0  0.96633474146E+02  0.10842012189E+03 -0.45462534006E+03  0.47726005714E+03  0.10566000000E+00 0.  1.
    -200003    1    4    4    0    0  0.11375411615E+03  0.19033344637E+03 -0.50810659454E+03  0.55519287744E+03  0.30000000000E+02 0.  1.
    -200000    1    3    3    0    0 -0.26383195233E+03 -0.57136281183E+02 -0.79886728458E+03  0.84927133006E+03  0.10100000000E+03 0. -1.
<mgrwt>
<rscale>  0 0.14004852E+04</rscale>
<asrwt>0</asrwt>
<pdfrwt beam="1">  1        2 0.25554619E-01 0.14004852E+04</pdfrwt>
<pdfrwt beam="2">  1       -2 0.39159000E+00 0.14004852E+04</pdfrwt>
<totfact> 0.17771913E+00</totfact>
</mgrwt>
</event>
<event>
 8    2  0.4480234E-052  0.1619538E+04  0.7818608E-02  0.8808634E-01
         -2   -1    0    0    0  501 -0.00000000000E+00  0.00000000000E+00  0.92858019645E+03  0.92858019645E+03  0.25500000000E-02 0. -1.
          2   -1    0    0  501    0  0.00000000000E+00 -0.00000000000E+00 -0.70615979465E+03  0.70615979466E+03  0.25500000000E-02 0.  1.
    -200001    2    1    2    0    0  0.41916252714E+03  0.21232186157E+03  0.35759660506E+03  0.85063578695E+03  0.61231373742E+03 0.  0.
   -5000001    2    3    3    0    0  0.14731588487E+03  0.17254901511E+03 -0.11671271995E+03  0.29327341648E+03  0.14461087533E+03 0.  0.
     200001    1    1    2    0    0 -0.41916252714E+03 -0.21232186157E+03 -0.13517620326E+03  0.78410420416E+03  0.61300000000E+03 0.  1.
         13    1    4    4    0    0  0.53291262364E+02 -0.99680904209E+01  0.19417829100E+01  0.54250374707E+02  0.10566000000E+00 0.  1.
    -200003    1    4    4    0    0  0.94024622502E+02  0.18251710553E+03 -0.11865450286E+03  0.23902304177E+03  0.30000000000E+02 0.  1.
    -200000    1    3    3    0    0  0.27184664227E+03  0.39772846454E+02  0.47430932500E+03  0.55736237047E+03  0.10100000000E+03 0. -1.
<mgrwt>
<rscale>  0 0.16195382E+04</rscale>
<asrwt>0</asrwt>
<pdfrwt beam="1">  1        2 0.10087997E+00 0.16195382E+04</pdfrwt>
<pdfrwt beam="2">  1       -2 0.13265431E+00 0.16195382E+04</pdfrwt>
<totfact> 0.17625495E+01</totfact>
</mgrwt>
</event>
<event>
 8    2  0.4480234E-052  0.1469183E+04  0.7818608E-02  0.8905208E-01
         -2   -1    0    0    0  501 -0.00000000000E+00  0.00000000000E+00  0.15885406969E+03  0.15885406971E+03  0.25500000000E-02 0.  1.
          2   -1    0    0  501    0  0.00000000000E+00 -0.00000000000E+00 -0.33969850030E+04  0.33969850030E+04  0.25500000000E-02 0. -1.
    -200001    2    1    2    0    0  0.15227808945E+03 -0.35791582079E+03 -0.18779868384E+04  0.20140695341E+04  0.61510094430E+03 0.  0.
   -5000001    2    3    3    0    0  0.27472190373E+02 -0.47512245944E+03 -0.16047842011E+04  0.16762018238E+04  0.88454223059E+02 0.  0.
     200001    1    1    2    0    0 -0.15227808945E+03  0.35791582079E+03 -0.13601440949E+04  0.15417695386E+04  0.61300000000E+03 0.  1.
         13    1    4    4    0    0 -0.15618592307E+02 -0.26536948611E+03 -0.80832462279E+03  0.85091339839E+03  0.10566000000E+00 0.  1.
    -200003    1    4    4    0    0  0.43090782679E+02 -0.20975297333E+03 -0.79645957827E+03  0.82528842546E+03  0.30000000000E+02 0.  1.
    -200000    1    3    3    0    0  0.12480589908E+03  0.11720663864E+03 -0.27320263738E+03  0.33786771029E+03  0.10100000000E+03 0.  1.
<mgrwt>
<rscale>  0 0.14691833E+04</rscale>
<asrwt>0</asrwt>
<pdfrwt beam="1">  1        2 0.48528353E+00 0.14691833E+04</pdfrwt>
<pdfrwt beam="2">  1       -2 0.22693441E-01 0.14691833E+04</pdfrwt>
<totfact> 0.23222458E+01</totfact>
</mgrwt>
</event>
<event>
 8    2  0.4480234E-052  0.1892075E+04  0.7818608E-02  0.8658811E-01
         -2   -1    0    0    0  501 -0.00000000000E+00  0.00000000000E+00  0.42491485793E+03  0.42491485793E+03  0.25500000000E-02 0. -1.
          2   -1    0    0  501    0  0.00000000000E+00 -0.00000000000E+00 -0.21062734662E+04  0.21062734662E+04  0.25500000000E-02 0.  1.
    -200001    2    1    2    0    0 -0.25815285848E+03  0.67241186667E+03 -0.79777872786E+03  0.12368688034E+04  0.61205630567E+03 0.  0.
   -5000001    2    3    3    0    0 -0.34243727154E+03  0.58731421608E+03 -0.36402446828E+03  0.77568637728E+03  0.83512089242E+02 0.  0.
     200001    1    1    2    0    0  0.25815285848E+03 -0.67241186667E+03 -0.88357988041E+03  0.12943195208E+04  0.61300000000E+03 0.  1.
         13    1    4    4    0    0 -0.24330355389E+03  0.35517393587E+03 -0.21875094318E+03  0.48290488749E+03  0.10566000000E+00 0.  1.
    -200003    1    4    4    0    0 -0.99133717650E+02  0.23214028020E+03 -0.14527352510E+03  0.29278148979E+03  0.30000000000E+02 0.  1.
    -200000    1    3    3    0    0  0.84284413052E+02  0.85097650598E+02 -0.43375425958E+03  0.46118242608E+03  0.10100000000E+03 0.  1.
<mgrwt>
<rscale>  0 0.18920749E+04</rscale>
<asrwt>0</asrwt>
<pdfrwt beam="1">  1        2 0.30089620E+00 0.18920749E+04</pdfrwt>
<pdfrwt beam="2">  1       -2 0.60702124E-01 0.18920749E+04</pdfrwt>
<totfact> 0.16798341E+01</totfact>
</mgrwt>
</event>
<event>
 8    2  0.4480234E-052  0.1614258E+04  0.7818608E-02  0.8811836E-01
          2   -1    0    0  501    0  0.00000000000E+00  0.00000000000E+00  0.33423829267E+04  0.33423829267E+04  0.25500000000E-02 0.  1.
         -2   -1    0    0    0  501 -0.00000000000E+00 -0.00000000000E+00 -0.19490799161E+03  0.19490799162E+03  0.25500000000E-02 0. -1.
    -200001    2    1    2    0    0 -0.30155068161E+01  0.35707087296E+03  0.72942955595E+03  0.10173264033E+04  0.61268004053E+03 0.  0.
   -5000001    2    3    3    0    0 -0.27455207600E+03  0.29923067953E+03  0.42098681115E+03  0.59022510005E+03  0.78853862026E+02 0.  0.
     200001    1    1    2    0    0  0.30155068161E+01 -0.35707087296E+03  0.24180453791E+04  0.25199645150E+04  0.61300000000E+03 0.  1.
         13    1    4    4    0    0 -0.40377589494E+02  0.41104554027E+02  0.10026546561E+03  0.11564215863E+03  0.10566000000E+00 0.  1.
    -200003    1    4    4    0    0 -0.23417448651E+03  0.25812612550E+03  0.32072134554E+03  0.47458294142E+03  0.30000000000E+02 0.  1.
    -200000    1    3    3    0    0  0.27153656918E+03  0.57840193429E+02  0.30844274480E+03  0.42710130321E+03  0.10100000000E+03 0. -1.
<mgrwt>
<rscale>  0 0.16142579E+04</rscale>
<asrwt>0</asrwt>
<pdfrwt beam="1">  1        2 0.47748324E+00 0.16142579E+04</pdfrwt>
<pdfrwt beam="2">  1       -2 0.27844001E-01 0.16142579E+04</pdfrwt>
<totfact> 0.17027753E+01</totfact>
</mgrwt>
</event>
<event>
 8    2  0.4480234E-052  0.1384559E+04  0.7818608E-02  0.8965072E-01
         -2   -1    0    0    0  501 -0.00000000000E+00  0.00000000000E+00  0.37099799200E+03  0.37099799201E+03  0.25500000000E-02 0. -1.
          2   -1    0    0  501    0  0.00000000000E+00 -0.00000000000E+00 -0.12917876772E+04  0.12917876772E+04  0.25500000000E-02 0.  1.
    -200001    2    1    2    0    0  0.81049144077E+02  0.26989671811E+03 -0.64770953015E+03  0.93494298479E+03  0.61251738519E+03 0.  0.
   -5000001    2    3    3    0    0  0.14872330873E+03  0.28491732588E+03 -0.72067926048E+03  0.79235619450E+03  0.71786052454E+02 0.  0.
     200001    1    1    2    0    0 -0.81049144077E+02 -0.26989671811E+03 -0.27308015509E+03  0.72784268445E+03  0.61300000000E+03 0. -1.
         13    1    4    4    0    0  0.76839047948E+02  0.96833107108E+02 -0.31700741198E+03  0.34025666832E+03  0.10566000000E+00 0.  1.
    -200003    1    4    4    0    0  0.71884260784E+02  0.18808421877E+03 -0.40367184850E+03  0.45209952618E+03  0.30000000000E+02 0.  1.
    -200000    1    3    3    0    0 -0.67674164654E+02 -0.15020607769E+02  0.72969730337E+02  0.14258679029E+03  0.10100000000E+03 0. -1.
<mgrwt>
<rscale>  0 0.13845586E+04</rscale>
<asrwt>0</asrwt>
<pdfrwt beam="1">  1        2 0.18454109E+00 0.13845586E+04</pdfrwt>
<pdfrwt beam="2">  1       -2 0.52999714E-01 0.13845586E+04</pdfrwt>
<totfact> 0.62114468E+01</totfact>
</mgrwt>
</event>
<event>
 8    2  0.4480234E-052  0.2116795E+04  0.7818608E-02  0.8553881E-01
         -2   -1    0    0    0  501 -0.00000000000E+00  0.00000000000E+00  0.58342789136E+03  0.58342789136E+03  0.25500000000E-02 0. -1.
          2   -1    0    0  501    0  0.00000000000E+00 -0.00000000000E+00 -0.19200414055E+04  0.19200414055E+04  0.25500000000E-02 0.  1.
    -200001    2    1    2    0    0  0.41062319465E+03 -0.72427834937E+03 -0.93840150877E+03  0.13955287134E+04  0.61132026210E+03 0.  0.
   -5000001    2    3    3    0    0  0.23357586508E+02 -0.19981396266E+03  0.39048757279E+02  0.21627150362E+03  0.69118458543E+02 0.  0.
     200001    1    1    2    0    0 -0.41062319465E+03  0.72427834937E+03 -0.39821200540E+03  0.11079405835E+04  0.61300000000E+03 0.  1.
         13    1    4    4    0    0  0.21895768355E+02 -0.26769643818E+02  0.19107709488E+02  0.39511444265E+02  0.10566000000E+00 0.  1.
    -200003    1    4    4    0    0  0.14618181530E+01 -0.17304431884E+03  0.19941047791E+02  0.17676005935E+03  0.30000000000E+02 0.  1.
    -200000    1    3    3    0    0  0.38726560814E+03 -0.52446438672E+03 -0.97745026605E+03  0.11792572098E+04  0.10100000000E+03 0.  1.
<mgrwt>
<rscale>  0 0.21167954E+04</rscale>
<asrwt>0</asrwt>
<pdfrwt beam="1">  1        2 0.27429163E+00 0.21167954E+04</pdfrwt>
<pdfrwt beam="2">  1       -2 0.83346843E-01 0.21167954E+04</pdfrwt>
<totfact> 0.10273970E+01</totfact>
</mgrwt>
</event>
<event>
 8    2  0.4480234E-052  0.1481739E+04  0.7818608E-02  0.8896688E-01
         -2   -1    0    0    0  501 -0.00000000000E+00  0.00000000000E+00  0.20517894441E+04  0.20517894441E+04  0.25500000000E-02 0. -1.
          2   -1    0    0  501    0  0.00000000000E+00 -0.00000000000E+00 -0.26751668617E+03  0.26751668619E+03  0.25500000000E-02 0.  1.
    -200001    2    1    2    0    0  0.25645708707E+03 -0.12247229318E+03  0.13680817805E+04  0.15257359508E+04  0.61274197941E+03 0.  0.
   -5000001    2    3    3    0    0  0.10565200623E+03 -0.26334815558E+03  0.12097425552E+04  0.12467010224E+04  0.10134984862E+03 0.  0.
     200001    1    1    2    0    0 -0.25645708707E+03  0.12247229318E+03  0.41619097748E+03  0.79357017953E+03  0.61300000000E+03 0.  1.
         13    1    4    4    0    0  0.10057095957E+03 -0.13328041445E+03  0.71572607095E+03  0.73494353972E+03  0.10566000000E+00 0.  1.
    -200003    1    4    4    0    0  0.50810466671E+01 -0.13006774113E+03  0.49401648427E+03  0.51175748265E+03  0.30000000000E+02 0.  1.
    -200000    1    3    3    0    0  0.15080508084E+03  0.14087586240E+03  0.15833922524E+03  0.27903492839E+03  0.10100000000E+03 0. -1.
<mgrwt>
<rscale>  0 0.14817394E+04</rscale>
<asrwt>0</asrwt>
<pdfrwt beam="1">  1        2 0.38216669E-01 0.14817394E+04</pdfrwt>
<pdfrwt beam="2">  1       -2 0.29311278E+00 0.14817394E+04</pdfrwt>
<totfact> 0.46179285E+00</totfact>
</mgrwt>
</event>
<event>
 8    2  0.4480234E-052  0.1888155E+04  0.7818608E-02  0.8660775E-01
         -2   -1    0    0    0  501 -0.00000000000E+00  0.00000000000E+00  0.29109664671E+03  0.29109664672E+03  0.25500000000E-02 0. -1.
          2   -1    0    0  501    0  0.00000000000E+00 -0.00000000000E+00 -0.30618078276E+04  0.30618078276E+04  0.25500000000E-02 0.  1.
    -200001    2    1    2    0    0 -0.22006343219E+02  0.33073414962E+03 -0.25555827446E+03  0.74299403532E+03  0.61388985007E+03 0.  0.
   -5000001    2    3    3    0    0 -0.25721579514E+02  0.51728697558E+02 -0.40132507859E+03  0.41237823648E+03  0.75209928963E+02 0.  0.
     200001    1    1    2    0    0  0.22006343219E+02 -0.33073414962E+03 -0.25151529064E+04  0.26099104390E+04  0.61300000000E+03 0.  1.
         13    1    4    4    0    0 -0.20521718659E+02  0.21789302201E+02 -0.31133903137E+03  0.31277454859E+03  0.10566000000E+00 0.  1.
    -200003    1    4    4    0    0 -0.51998608557E+01  0.29939395357E+02 -0.89986047214E+02  0.99603687886E+02  0.30000000000E+02 0.  1.
    -200000    1    3    3    0    0  0.37152362953E+01  0.27900545206E+03  0.14576680413E+03  0.33061579884E+03  0.10100000000E+03 0. -1.
<mgrwt>
<rscale>  0 0.18881546E+04</rscale>
<asrwt>0</asrwt>
<pdfrwt beam="1">  1        2 0.43740110E+00 0.18881546E+04</pdfrwt>
<pdfrwt beam="2">  1       -2 0.41585237E-01 0.18881546E+04</pdfrwt>
<totfact> 0.11236246E+01</totfact>
</mgrwt>
</event>
<event>
 8    2  0.4480234E-052  0.1914728E+04  0.7818608E-02  0.8647560E-01
         -2   -1    0    0    0  501 -0.00000000000E+00  0.00000000000E+00  0.31327419292E+03  0.31327419293E+03  0.25500000000E-02 0. -1.
          2   -1    0    0  501    0  0.00000000000E+00 -0.00000000000E+00 -0.29256976834E+04  0.29256976834E+04  0.25500000000E-02 0.  1.
    -200001    2    1    2    0    0  0.14578483666E+02  0.36804557782E+03 -0.22897010376E+03  0.75054081919E+03  0.61254724987E+03 0.  0.
   -5000001    2    3    3    0    0 -0.24960863754E+03  0.29934303235E+03 -0.34752581034E+02  0.40063180116E+03  0.85949841539E+02 0.  0.
     200001    1    1    2    0    0 -0.14578483666E+02 -0.36804557782E+03 -0.23834533868E+04  0.24884310572E+04  0.61300000000E+03 0.  1.
         13    1    4    4    0    0 -0.17285564412E+03  0.17907612920E+03  0.69631412818E+01  0.24898961877E+03  0.10566000000E+00 0.  1.
    -200003    1    4    4    0    0 -0.76752993421E+02  0.12026690315E+03 -0.41715722316E+02  0.15164218239E+03  0.30000000000E+02 0.  1.
    -200000    1    3    3    0    0  0.26418712121E+03  0.68702545469E+02 -0.19421752273E+03  0.34990901803E+03  0.10100000000E+03 0.  1.
<mgrwt>
<rscale>  0 0.19147277E+04</rscale>
<asrwt>0</asrwt>
<pdfrwt beam="1">  1        2 0.41795680E+00 0.19147277E+04</pdfrwt>
<pdfrwt beam="2">  1       -2 0.44753458E-01 0.19147277E+04</pdfrwt>
<totfact> 0.11545143E+01</totfact>
</mgrwt>
</event>
<event>
 8    2  0.4480234E-052  0.1498078E+04  0.7818608E-02  0.8885732E-01
          2   -1    0    0  501    0  0.00000000000E+00  0.00000000000E+00  0.29529931060E+04  0.29529931060E+04  0.25500000000E-02 0.  1.
         -2   -1    0    0    0  501 -0.00000000000E+00 -0.00000000000E+00 -0.18999689110E+03  0.18999689112E+03  0.25500000000E-02 0. -1.
    -200001    2    1    2    0    0 -0.13224712706E+03  0.27507772588E+03  0.20177932169E+04  0.21309358651E+04  0.61338498280E+03 0.  0.
   -5000001    2    3    3    0    0  0.26132210418E+02 -0.15454283595E+03  0.95041953360E+03  0.96511194122E+03  0.59811275476E+02 0.  0.
     200001    1    1    2    0    0  0.13224712706E+03 -0.27507772588E+03  0.74520299799E+03  0.10120541320E+04  0.61300000000E+03 0. -1.
         13    1    4    4    0    0  0.31987065167E+02 -0.10053435419E+03  0.62101979389E+03  0.62991739481E+03  0.10566000000E+00 0.  1.
    -200003    1    4    4    0    0 -0.58548547491E+01 -0.54008481760E+02  0.32939973971E+03  0.33519454641E+03  0.30000000000E+02 0.  1.
    -200000    1    3    3    0    0 -0.15837933748E+03  0.42962056184E+03  0.10673736833E+04  0.11658239239E+04  0.10100000000E+03 0. -1.
<mgrwt>
<rscale>  0 0.14980781E+04</rscale>
<asrwt>0</asrwt>
<pdfrwt beam="1">  1        2 0.42185617E+00 0.14980781E+04</pdfrwt>
<pdfrwt beam="2">  1       -2 0.27142412E-01 0.14980781E+04</pdfrwt>
<totfact> 0.30073478E+01</totfact>
</mgrwt>
</event>
<event>
 8    2  0.4480234E-052  0.1287010E+04  0.7818608E-02  0.9039930E-01
          2   -1    0    0  501    0  0.00000000000E+00  0.00000000000E+00  0.19046444631E+04  0.19046444631E+04  0.25500000000E-02 0.  1.
         -2   -1    0    0    0  501 -0.00000000000E+00 -0.00000000000E+00 -0.21741512209E+03  0.21741512211E+03  0.25500000000E-02 0. -1.
    -200001    2    1    2    0    0  0.77571003392E+02  0.17786535852E+03  0.80769724226E+03  0.10325647210E+04  0.61332024396E+03 0.  0.
   -5000001    2    3    3    0    0  0.32740375647E+02 -0.21724926875E+03  0.31448964544E+03  0.39101964279E+03  0.75653466445E+02 0.  0.
     200001    1    1    2    0    0 -0.77571003392E+02 -0.17786535852E+03  0.87953209877E+03  0.10894948642E+04  0.61300000000E+03 0. -1.
         13    1    4    4    0    0  0.14498382061E+02 -0.92474793834E+01  0.80332119139E+01  0.18980585213E+02  0.10566000000E+00 0.  1.
    -200003    1    4    4    0    0  0.18241993586E+02 -0.20800178937E+03  0.30645643353E+03  0.37203905758E+03  0.30000000000E+02 0.  1.
    -200000    1    3    3    0    0  0.44830627744E+02  0.39511462728E+03  0.49320759681E+03  0.64154507825E+03  0.10100000000E+03 0.  1.
<mgrwt>
<rscale>  0 0.12870097E+04</rscale>
<asrwt>0</asrwt>
<pdfrwt beam="1">  1        2 0.27209207E+00 0.12870097E+04</pdfrwt>
<pdfrwt beam="2">  1       -2 0.31059303E-01 0.12870097E+04</pdfrwt>
<totfact> 0.84728507E+01</totfact>
</mgrwt>
</event>
<event>
 8    2  0.4480234E-052  0.1956520E+04  0.7818608E-02  0.8627223E-01
         -2   -1    0    0    0  501 -0.00000000000E+00  0.00000000000E+00  0.64939978038E+03  0.64939978038E+03  0.25500000000E-02 0. -1.
          2   -1    0    0  501    0  0.00000000000E+00 -0.00000000000E+00 -0.14736569422E+04  0.14736569422E+04  0.25500000000E-02 0.  1.
    -200001    2    1    2    0    0 -0.49440328009E+03 -0.18740779482E+03 -0.10082420465E+04  0.12928906412E+04  0.61274619623E+03 0.  0.
   -5000001    2    3    3    0    0 -0.27981732860E+03  0.14128945582E+03 -0.73625896951E+03  0.80476687895E+03  0.85510300879E+02 0.  0.
     200001    1    1    2    0    0  0.49440328009E+03  0.18740779482E+03  0.18398488461E+03  0.83016608139E+03  0.61300000000E+03 0. -1.
         13    1    4    4    0    0 -0.78742261725E+02  0.61381615843E+02 -0.31183849006E+03  0.32743136928E+03  0.10566000000E+00 0.  1.
    -200003    1    4    4    0    0 -0.20107506687E+03  0.79907839974E+02 -0.42442047946E+03  0.47733550967E+03  0.30000000000E+02 0.  1.
    -200000    1    3    3    0    0 -0.21458595150E+03 -0.32869725064E+03 -0.27198307695E+03  0.48812376228E+03  0.10100000000E+03 0. -1.
<mgrwt>
<rscale>  0 0.19565199E+04</rscale>
<asrwt>0</asrwt>
<pdfrwt beam="1">  1        2 0.21052242E+00 0.19565199E+04</pdfrwt>
<pdfrwt beam="2">  1       -2 0.92771398E-01 0.19565199E+04</pdfrwt>
<totfact> 0.13922395E+01</totfact>
</mgrwt>
</event>
<event>
 8    2  0.4480234E-052  0.1766453E+04  0.7818608E-02  0.8724346E-01
         -2   -1    0    0    0  501 -0.00000000000E+00  0.00000000000E+00  0.62496015875E+03  0.62496015875E+03  0.25500000000E-02 0. -1.
          2   -1    0    0  501    0  0.00000000000E+00 -0.00000000000E+00 -0.12482215243E+04  0.12482215243E+04  0.25500000000E-02 0.  1.
    -200001    2    1    2    0    0 -0.46748079011E+03  0.14586936731E+02  0.13638330406E+03  0.79078614913E+03  0.62288944459E+03 0.  0.
   -5000001    2    3    3    0    0 -0.36997684331E+03 -0.25785151639E+03  0.15466381427E+03  0.48376024235E+03  0.82053686938E+02 0.  0.
     200001    1    1    2    0    0  0.46748079011E+03 -0.14586936731E+02 -0.75964466965E+03  0.10823955340E+04  0.61300000000E+03 0.  1.
         13    1    4    4    0    0 -0.81694094089E+02 -0.64122974082E+02  0.69256032672E+02  0.12482824216E+03  0.10566000000E+00 0.  1.
    -200003    1    4    4    0    0 -0.28828274922E+03 -0.19372854231E+03  0.85407781595E+02  0.35893200019E+03  0.30000000000E+02 0.  1.
    -200000    1    3    3    0    0 -0.97503946794E+02  0.27243845312E+03 -0.18280510211E+02  0.30702590678E+03  0.10100000000E+03 0. -1.
<mgrwt>
<rscale>  0 0.17664526E+04</rscale>
<asrwt>0</asrwt>
<pdfrwt beam="1">  1        2 0.17831736E+00 0.17664526E+04</pdfrwt>
<pdfrwt beam="2">  1       -2 0.89280024E-01 0.17664526E+04</pdfrwt>
<totfact> 0.20513734E+01</totfact>
</mgrwt>
</event>
<event>
 8    2  0.4480234E-052  0.2037467E+04  0.7818608E-02  0.8589301E-01
         -2   -1    0    0    0  501 -0.00000000000E+00  0.00000000000E+00  0.35235190760E+03  0.35235190761E+03  0.25500000000E-02 0. -1.
          2   -1    0    0  501    0  0.00000000000E+00 -0.00000000000E+00 -0.29454012648E+04  0.29454012648E+04  0.25500000000E-02 0.  1.
    -200001    2    1    2    0    0 -0.78395755507E+03 -0.13806475911E+03 -0.10219483076E+04  0.14328727919E+04  0.61244980880E+03 0.  0.
   -5000001    2    3    3    0    0 -0.79174385548E+03 -0.17165783107E+03 -0.63368161269E+03  0.10302052524E+04  0.58700358442E+02 0.  0.
     200001    1    1    2    0    0  0.78395755507E+03  0.13806475911E+03 -0.15711010495E+04  0.18648803805E+04  0.61300000000E+03 0.  1.
         13    1    4    4    0    0 -0.64894792965E+02 -0.40252692747E+01 -0.39512196123E+02  0.76083912578E+02  0.10566000000E+00 0.  1.
    -200003    1    4    4    0    0 -0.72684906251E+03 -0.16763256180E+03 -0.59416941657E+03  0.95412133979E+03  0.30000000000E+02 0.  1.
    -200000    1    3    3    0    0  0.77863004055E+01  0.33593071960E+02 -0.38826669494E+03  0.40266753949E+03  0.10100000000E+03 0.  1.
<mgrwt>
<rscale>  0 0.20374668E+04</rscale>
<asrwt>0</asrwt>
<pdfrwt beam="1">  1        2 0.42077160E+00 0.20374668E+04</pdfrwt>
<pdfrwt beam="2">  1       -2 0.50335988E-01 0.20374668E+04</pdfrwt>
<totfact> 0.87879197E+00</totfact>
</mgrwt>
</event>
<event>
 8    2  0.4480234E-052  0.1601544E+04  0.7818608E-02  0.8819600E-01
         -2   -1    0    0    0  501 -0.00000000000E+00  0.00000000000E+00  0.33725449272E+03  0.33725449273E+03  0.25500000000E-02 0. -1.
          2   -1    0    0  501    0  0.00000000000E+00 -0.00000000000E+00 -0.19013411416E+04  0.19013411416E+04  0.25500000000E-02 0.  1.
    -200001    2    1    2    0    0 -0.18987720792E+03 -0.47205211428E+03 -0.65012927924E+03  0.10261709455E+04  0.60948517363E+03 0.  0.
   -5000001    2    3    3    0    0 -0.36030199944E+02 -0.49487169866E+03 -0.59358681211E+03  0.83229550636E+03  0.30687836833E+03 0.  0.
     200001    1    1    2    0    0  0.18987720792E+03  0.47205211428E+03 -0.91395736959E+03  0.12124246888E+04  0.61300000000E+03 0.  1.
         13    1    4    4    0    0 -0.77277851664E+02 -0.51882860932E+03 -0.51094228036E+03  0.73226840518E+03  0.10566000000E+00 0.  1.
    -200003    1    4    4    0    0  0.41247651720E+02  0.23956910660E+02 -0.82644531750E+02  0.10002710117E+03  0.30000000000E+02 0.  1.
    -200000    1    3    3    0    0 -0.15384700798E+03  0.22819584386E+02 -0.56542467140E+02  0.19387543910E+03  0.10100000000E+03 0. -1.
<mgrwt>
<rscale>  0 0.16015441E+04</rscale>
<asrwt>0</asrwt>
<pdfrwt beam="1">  1        2 0.27162016E+00 0.16015441E+04</pdfrwt>
<pdfrwt beam="2">  1       -2 0.48179214E-01 0.16015441E+04</pdfrwt>
<totfact> 0.35361665E+01</totfact>
</mgrwt>
</event>
<event>
 8    2  0.4480234E-052  0.1810005E+04  0.7818608E-02  0.8700997E-01
         -2   -1    0    0    0  501 -0.00000000000E+00  0.00000000000E+00  0.24769908652E+03  0.24769908654E+03  0.25500000000E-02 0. -1.
          2   -1    0    0  501    0  0.00000000000E+00 -0.00000000000E+00 -0.33065498573E+04  0.33065498573E+04  0.25500000000E-02 0.  1.
    -200001    2    1    2    0    0 -0.15741641383E+03  0.26144400964E+03 -0.26925873922E+04  0.27776855143E+04  0.61022705153E+03 0.  0.
   -5000001    2    3    3    0    0 -0.35315510726E+03  0.17738117123E+03 -0.19001724282E+04  0.19509433102E+04  0.19834801006E+03 0.  0.
     200001    1    1    2    0    0  0.15741641383E+03 -0.26144400964E+03 -0.36626337854E+03  0.77656342946E+03  0.61300000000E+03 0. -1.
         13    1    4    4    0    0 -0.61714151012E+02 -0.37399951607E+01 -0.68830025750E+03  0.69107154451E+03  0.10566000000E+00 0.  1.
    -200003    1    4    4    0    0 -0.29144095625E+03  0.18112116639E+03 -0.12118721707E+04  0.12598717657E+04  0.30000000000E+02 0.  1.
    -200000    1    3    3    0    0  0.19573869343E+03  0.84062838407E+02 -0.79241496405E+03  0.82674220417E+03  0.10100000000E+03 0.  1.
<mgrwt>
<rscale>  0 0.18100048E+04</rscale>
<asrwt>0</asrwt>
<pdfrwt beam="1">  1        2 0.47236424E+00 0.18100048E+04</pdfrwt>
<pdfrwt beam="2">  1       -2 0.35385586E-01 0.18100048E+04</pdfrwt>
<totfact> 0.11194187E+01</totfact>
</mgrwt>
</event>
<event>
 8    2  0.4480234E-052  0.1832682E+04  0.7818608E-02  0.8689110E-01
          2   -1    0    0  501    0  0.00000000000E+00  0.00000000000E+00  0.23768570800E+04  0.23768570800E+04  0.25500000000E-02 0.  1.
         -2   -1    0    0    0  501 -0.00000000000E+00 -0.00000000000E+00 -0.35327371927E+03  0.35327371928E+03  0.25500000000E-02 0. -1.
    -200001    2    1    2    0    0 -0.91788905604E+01 -0.43455359666E+03  0.23251706217E+03  0.78781039156E+03  0.61454043679E+03 0.  0.
   -5000001    2    3    3    0    0  0.23299292942E+02 -0.30821229844E+03  0.41212126902E+03  0.54393413778E+03  0.17459303510E+03 0.  0.
     200001    1    1    2    0    0  0.91788905604E+01  0.43455359666E+03  0.17910662985E+04  0.19423204077E+04  0.61300000000E+03 0.  1.
         13    1    4    4    0    0  0.22493090063E+02 -0.27804306104E+03  0.24431050784E+03  0.37081197162E+03  0.10566000000E+00 0.  1.
    -200003    1    4    4    0    0  0.80620287968E+00 -0.30169237398E+02  0.16781076118E+03  0.17312216616E+03  0.30000000000E+02 0.  1.
    -200000    1    3    3    0    0 -0.32478183503E+02 -0.12634129822E+03 -0.17960420685E+03  0.24387625378E+03  0.10100000000E+03 0. -1.
<mgrwt>
<rscale>  0 0.18326823E+04</rscale>
<asrwt>0</asrwt>
<pdfrwt beam="1">  1        2 0.33955102E+00 0.18326823E+04</pdfrwt>
<pdfrwt beam="2">  1       -2 0.50467673E-01 0.18326823E+04</pdfrwt>
<totfact> 0.17943791E+01</totfact>
</mgrwt>
</event>
<event>
 8    2  0.4480234E-052  0.2116683E+04  0.7818608E-02  0.8553930E-01
          2   -1    0    0  501    0  0.00000000000E+00  0.00000000000E+00  0.11374088180E+04  0.11374088180E+04  0.25500000000E-02 0.  1.
         -2   -1    0    0    0  501 -0.00000000000E+00 -0.00000000000E+00 -0.98477078780E+03  0.98477078780E+03  0.25500000000E-02 0. -1.
    -200001    2    1    2    0    0 -0.44137706532E+03  0.71508358136E+03  0.27340745491E+03  0.10750346798E+04  0.61220068960E+03 0.  0.
   -5000001    2    3    3    0    0  0.96404577561E+02 -0.92507276154E+01  0.98857661699E+02  0.15062247910E+03  0.59454818114E+02 0.  0.
     200001    1    1    2    0    0  0.44137706532E+03 -0.71508358136E+03 -0.12076942467E+03  0.10471449260E+04  0.61300000000E+03 0. -1.
         13    1    4    4    0    0  0.25944256150E+02  0.11359081215E+02  0.50030371118E+02  0.57490715350E+02  0.10566000000E+00 0.  1.
    -200003    1    4    4    0    0  0.70460321411E+02 -0.20609808830E+02  0.48827290581E+02  0.93131763748E+02  0.30000000000E+02 0.  1.
    -200000    1    3    3    0    0 -0.53778164288E+03  0.72433430898E+03  0.17454979321E+03  0.92441220074E+03  0.10100000000E+03 0.  1.
<mgrwt>
<rscale>  0 0.21166832E+04</rscale>
<asrwt>0</asrwt>
<pdfrwt beam="1">  1        2 0.16248697E+00 0.21166832E+04</pdfrwt>
<pdfrwt beam="2">  1       -2 0.14068154E+00 0.21166832E+04</pdfrwt>
<totfact> 0.76140272E+00</totfact>
</mgrwt>
</event>
<event>
 8    2  0.4480234E-052  0.1452095E+04  0.7818608E-02  0.8916949E-01
         -2   -1    0    0    0  501 -0.00000000000E+00  0.00000000000E+00  0.23936195658E+03  0.23936195659E+03  0.25500000000E-02 0. -1.
          2   -1    0    0  501    0  0.00000000000E+00 -0.00000000000E+00 -0.22022921473E+04  0.22022921473E+04  0.25500000000E-02 0.  1.
    -200001    2    1    2    0    0  0.31424214845E+02  0.38673156388E+03 -0.10229855913E+04  0.12542983721E+04  0.61336457553E+03 0.  0.
   -5000001    2    3    3    0    0 -0.93705114727E+02  0.46502921655E+03 -0.46897368948E+03  0.67213167874E+03  0.82412689318E+02 0.  0.
     200001    1    1    2    0    0 -0.31424214845E+02 -0.38673156388E+03 -0.93994459943E+03  0.11873557318E+04  0.61300000000E+03 0. -1.
         13    1    4    4    0    0 -0.23595787781E+02  0.24700336243E+03 -0.20947083746E+03  0.32472367509E+03  0.10566000000E+00 0.  1.
    -200003    1    4    4    0    0 -0.70109326946E+02  0.21802585412E+03 -0.25950285202E+03  0.34740800365E+03  0.30000000000E+02 0.  1.
    -200000    1    3    3    0    0  0.12512932957E+03 -0.78297652676E+02 -0.55401190180E+03  0.58216669337E+03  0.10100000000E+03 0. -1.
<mgrwt>
<rscale>  0 0.14520950E+04</rscale>
<asrwt>0</asrwt>
<pdfrwt beam="1">  1        2 0.31461315E+00 0.14520950E+04</pdfrwt>
<pdfrwt beam="2">  1       -2 0.34194566E-01 0.14520950E+04</pdfrwt>
<totfact> 0.49069283E+01</totfact>
</mgrwt>
</event>
<event>
 8    2  0.4480234E-052  0.2111131E+04  0.7818608E-02  0.8556356E-01
         -2   -1    0    0    0  501 -0.00000000000E+00  0.00000000000E+00  0.12731543973E+04  0.12731543973E+04  0.25500000000E-02 0. -1.
          2   -1    0    0  501    0  0.00000000000E+00 -0.00000000000E+00 -0.87516369427E+03  0.87516369428E+03  0.25500000000E-02 0.  1.
    -200001    2    1    2    0    0 -0.55748528386E+03 -0.53319643520E+03  0.58436008269E+03  0.11455265749E+04  0.61291610141E+03 0.  0.
   -5000001    2    3    3    0    0 -0.28177968369E+03  0.17478227308E+02  0.31185332447E+01  0.29270836410E+03  0.77221645905E+02 0.  0.
     200001    1    1    2    0    0  0.55748528386E+03  0.53319643520E+03 -0.18636937966E+03  0.10027915167E+04  0.61300000000E+03 0.  1.
         13    1    4    4    0    0 -0.22850509646E+03 -0.14357352522E+01 -0.18417817715E+01  0.22851705356E+03  0.10566000000E+00 0.  1.
    -200003    1    4    4    0    0 -0.53274587235E+02  0.18913962560E+02  0.49603150162E+01  0.64191310548E+02  0.30000000000E+02 0. -1.
    -200000    1    3    3    0    0 -0.27570560017E+03 -0.55067466251E+03  0.58124154944E+03  0.85281821081E+03  0.10100000000E+03 0. -1.
<mgrwt>
<rscale>  0 0.21111310E+04</rscale>
<asrwt>0</asrwt>
<pdfrwt beam="1">  1        2 0.12502338E+00 0.21111310E+04</pdfrwt>
<pdfrwt beam="2">  1       -2 0.18187920E+00 0.21111310E+04</pdfrwt>
<totfact> 0.54926272E+00</totfact>
</mgrwt>
</event>
<event>
 8    2  0.4480234E-052  0.1641973E+04  0.7818608E-02  0.8795169E-01
         -2   -1    0    0    0  501 -0.00000000000E+00  0.00000000000E+00  0.12981695244E+04  0.12981695245E+04  0.25500000000E-02 0. -1.
          2   -1    0    0  501    0  0.00000000000E+00 -0.00000000000E+00 -0.51920729251E+03  0.51920729251E+03  0.25500000000E-02 0.  1.
    -200001    2    1    2    0    0 -0.66006899760E+01  0.46188625585E+03  0.71085350897E+03  0.10467989295E+04  0.61407882655E+03 0.  0.
   -5000001    2    3    3    0    0 -0.52931096073E+02 -0.82695060972E+02  0.14356727513E+02  0.15571863925E+03  0.12000835364E+03 0.  0.
     200001    1    1    2    0    0  0.66006899760E+01 -0.46188625585E+03  0.68108722975E+02  0.77057788743E+03  0.61300000000E+03 0.  1.
         13    1    4    4    0    0  0.12236840370E+02  0.10039381869E+02  0.33377213190E+02  0.36940208106E+02  0.10566000000E+00 0.  1.
    -200003    1    4    4    0    0 -0.65167936443E+02 -0.92734442840E+02 -0.19020485677E+02  0.11877843114E+03  0.30000000000E+02 0.  1.
    -200000    1    3    3    0    0  0.46330406097E+02  0.54458131682E+03  0.69649678146E+03  0.89108029029E+03  0.10100000000E+03 0. -1.
<mgrwt>
<rscale>  0 0.16419733E+04</rscale>
<asrwt>0</asrwt>
<pdfrwt beam="1">  1        2 0.74172470E-01 0.16419733E+04</pdfrwt>
<pdfrwt beam="2">  1       -2 0.18545279E+00 0.16419733E+04</pdfrwt>
<totfact> 0.10237973E+01</totfact>
</mgrwt>
</event>
<event>
 8    2  0.4480234E-052  0.1367121E+04  0.7818608E-02  0.8977968E-01
          2   -1    0    0  501    0  0.00000000000E+00  0.00000000000E+00  0.13356286293E+04  0.13356286294E+04  0.25500000000E-02 0.  1.
         -2   -1    0    0    0  501 -0.00000000000E+00 -0.00000000000E+00 -0.34983920475E+03  0.34983920476E+03  0.25500000000E-02 0. -1.
    -200001    2    1    2    0    0  0.21144121605E+03  0.21509637675E+03  0.52543710345E+03  0.86165529554E+03  0.61269230410E+03 0.  0.
   -5000001    2    3    3    0    0 -0.41185501950E+00  0.38273423398E+03  0.26048850278E+03  0.47001395975E+03  0.81075266233E+02 0.  0.
     200001    1    1    2    0    0 -0.21144121605E+03 -0.21509637675E+03  0.46035232114E+03  0.82381253858E+03  0.61300000000E+03 0. -1.
         13    1    4    4    0    0  0.12827657246E+01  0.23825010160E+03  0.12216996393E+03  0.26775038310E+03  0.10566000000E+00 0.  1.
    -200003    1    4    4    0    0 -0.16946207441E+01  0.14448413238E+03  0.13831853885E+03  0.20226357664E+03  0.30000000000E+02 0.  1.
    -200000    1    3    3    0    0  0.21185307107E+03 -0.16763785723E+03  0.26494860068E+03  0.39164133579E+03  0.10100000000E+03 0.  1.
<mgrwt>
<rscale>  0 0.13671214E+04</rscale>
<asrwt>0</asrwt>
<pdfrwt beam="1">  1        2 0.19080409E+00 0.13671214E+04</pdfrwt>
<pdfrwt beam="2">  1       -2 0.49977029E-01 0.13671214E+04</pdfrwt>
<totfact> 0.66341673E+01</totfact>
</mgrwt>
</event>
<event>
 8    2  0.4480234E-052  0.1816287E+04  0.7818608E-02  0.8697686E-01
         -2   -1    0    0    0  501 -0.00000000000E+00  0.00000000000E+00  0.69619503659E+03  0.69619503660E+03  0.25500000000E-02 0. -1.
          2   -1    0    0  501    0  0.00000000000E+00 -0.00000000000E+00 -0.11846171617E+04  0.11846171617E+04  0.25500000000E-02 0.  1.
    -200001    2    1    2    0    0 -0.31279873682E+03 -0.59162267581E+03 -0.27877155877E+03  0.94937094935E+03  0.61296914864E+03 0.  0.
   -5000001    2    3    3    0    0  0.13920962842E+03 -0.12852008367E+03  0.55480418797E+02  0.21404723995E+03  0.82712825527E+02 0.  0.
     200001    1    1    2    0    0  0.31279873682E+03  0.59162267581E+03 -0.20965056635E+03  0.93144124896E+03  0.61300000000E+03 0. -1.
         13    1    4    4    0    0  0.10177567543E+03 -0.48520859738E+02  0.39116514817E+02  0.11934267818E+03  0.10566000000E+00 0.  1.
    -200003    1    4    4    0    0  0.37433952994E+02 -0.79999223937E+02  0.16363903980E+02  0.94704561773E+02  0.30000000000E+02 0.  1.
    -200000    1    3    3    0    0 -0.45200836524E+03 -0.46310259214E+03 -0.33425197756E+03  0.73532370940E+03  0.10100000000E+03 0.  1.
<mgrwt>
<rscale>  0 0.18162870E+04</rscale>
<asrwt>0</asrwt>
<pdfrwt beam="1">  1        2 0.16923102E+00 0.18162870E+04</pdfrwt>
<pdfrwt beam="2">  1       -2 0.99456434E-01 0.18162870E+04</pdfrwt>
<totfact> 0.17263807E+01</totfact>
</mgrwt>
</event>
<event>
 8    2  0.4480234E-052  0.1408632E+04  0.7818608E-02  0.8947594E-01
          2   -1    0    0  501    0  0.00000000000E+00  0.00000000000E+00  0.40492033183E+03  0.40492033184E+03  0.25500000000E-02 0.  1.
         -2   -1    0    0    0  501 -0.00000000000E+00 -0.00000000000E+00 -0.12250833822E+04  0.12250833822E+04  0.25500000000E-02 0. -1.
    -200001    2    1    2    0    0 -0.16588636598E+03 -0.16702226961E+03 -0.11786209842E+03  0.66854110318E+03  0.61452502588E+03 0.  0.
   -5000001    2    3    3    0    0  0.59367376375E+02 -0.30244204817E+03  0.77319353293E+02  0.32594138928E+03  0.72552249931E+02 0.  0.
     200001    1    1    2    0    0  0.16588636598E+03  0.16702226961E+03 -0.70230095191E+03  0.96146261083E+03  0.61300000000E+03 0. -1.
         13    1    4    4    0    0  0.56797891658E+02 -0.22895411591E+03  0.70640424060E+02  0.24624392047E+03  0.10566000000E+00 0.  1.
    -200003    1    4    4    0    0  0.25694847170E+01 -0.73487932258E+02  0.66789292326E+01  0.79697468812E+02  0.30000000000E+02 0. -1.
    -200000    1    3    3    0    0 -0.22525374236E+03  0.13541977856E+03 -0.19518145172E+03  0.34259971390E+03  0.10100000000E+03 0. -1.
<mgrwt>
<rscale>  0 0.14086322E+04</rscale>
<asrwt>0</asrwt>
<pdfrwt beam="1">  1        2 0.57845762E-01 0.14086322E+04</pdfrwt>
<pdfrwt beam="2">  1       -2 0.17501191E+00 0.14086322E+04</pdfrwt>
<totfact> 0.16308820E+01</totfact>
</mgrwt>
</event>
<event>
 8    2  0.4480234E-052  0.1552087E+04  0.7818608E-02  0.8850536E-01
         -2   -1    0    0    0  501 -0.00000000000E+00  0.00000000000E+00  0.20270325310E+04  0.20270325311E+04  0.25500000000E-02 0. -1.
          2   -1    0    0  501    0  0.00000000000E+00 -0.00000000000E+00 -0.29710610227E+03  0.29710610228E+03  0.25500000000E-02 0.  1.
    -200001    2    1    2    0    0  0.32953456789E+02  0.43139870206E+03  0.11606540931E+04  0.13823155275E+04  0.61358579134E+03 0.  0.
   -5000001    2    3    3    0    0  0.16047891687E+03 -0.62069297377E+02  0.53532910239E+03  0.56929292424E+03  0.88944394360E+02 0.  0.
     200001    1    1    2    0    0 -0.32953456789E+02 -0.43139870206E+03  0.56927233566E+03  0.94182310579E+03  0.61300000000E+03 0.  1.
         13    1    4    4    0    0  0.13193501191E+03 -0.70057334337E+02  0.37904683338E+03  0.40742041004E+03  0.10566000000E+00 0.  1.
    -200003    1    4    4    0    0  0.28543904959E+02  0.79880369600E+01  0.15628226901E+03  0.16187251420E+03  0.30000000000E+02 0. -1.
    -200000    1    3    3    0    0 -0.12752546008E+03  0.49346799944E+03  0.62532499073E+03  0.81302260330E+03  0.10100000000E+03 0. -1.
<mgrwt>
<rscale>  0 0.15520873E+04</rscale>
<asrwt>0</asrwt>
<pdfrwt beam="1">  1        2 0.42443727E-01 0.15520873E+04</pdfrwt>
<pdfrwt beam="2">  1       -2 0.28957609E+00 0.15520873E+04</pdfrwt>
<totfact> 0.42912802E+00</totfact>
</mgrwt>
</event>
<event>
 8    2  0.4480234E-052  0.1999461E+04  0.7818608E-02  0.8606873E-01
          2   -1    0    0  501    0  0.00000000000E+00  0.00000000000E+00  0.33108242142E+04  0.33108242142E+04  0.25500000000E-02 0.  1.
         -2   -1    0    0    0  501 -0.00000000000E+00 -0.00000000000E+00 -0.30187675671E+03  0.30187675672E+03  0.25500000000E-02 0. -1.
    -200001    2    1    2    0    0 -0.58886016692E+03 -0.35173471046E+03  0.22113936709E+04  0.23951893097E+04  0.61334839930E+03 0.  0.
   -5000001    2    3    3    0    0 -0.47341033240E+03 -0.50616229614E+03  0.15821697552E+04  0.17293813197E+04  0.84740791194E+02 0.  0.
     200001    1    1    2    0    0  0.58886016692E+03  0.35173471046E+03  0.79755378662E+03  0.12175116612E+04  0.61300000000E+03 0. -1.
         13    1    4    4    0    0 -0.23536446156E+03 -0.22370039447E+03  0.81772192539E+03  0.87983376537E+03  0.10566000000E+00 0.  1.
    -200003    1    4    4    0    0 -0.23804587084E+03 -0.28246190167E+03  0.76444782980E+03  0.84954755430E+03  0.30000000000E+02 0. -1.
    -200000    1    3    3    0    0 -0.11544983451E+03  0.15442758569E+03  0.62922391568E+03  0.66580799002E+03  0.10100000000E+03 0. -1.
<mgrwt>
<rscale>  0 0.19994608E+04</rscale>
<asrwt>0</asrwt>
<pdfrwt beam="1">  1        2 0.47297489E+00 0.19994608E+04</pdfrwt>
<pdfrwt beam="2">  1       -2 0.43125251E-01 0.19994608E+04</pdfrwt>
<totfact> 0.74440457E+00</totfact>
</mgrwt>
</event>
<event>
 8    2  0.4480234E-052  0.1349618E+04  0.7818608E-02  0.8991117E-01
         -2   -1    0    0    0  501 -0.00000000000E+00  0.00000000000E+00  0.24372642375E+04  0.24372642375E+04  0.25500000000E-02 0. -1.
          2   -1    0    0  501    0  0.00000000000E+00 -0.00000000000E+00 -0.18683548736E+03  0.18683548738E+03  0.25500000000E-02 0.  1.
    -200001    2    1    2    0    0 -0.25091423608E+03 -0.83508427753E+02  0.13131707803E+04  0.14733812044E+04  0.61359845490E+03 0.  0.
   -5000001    2    3    3    0    0  0.76637186481E+02  0.80224200926E+02  0.90998003319E+03  0.91942986476E+03  0.70558023315E+02 0.  0.
     200001    1    1    2    0    0  0.25091423608E+03  0.83508427753E+02  0.93725796988E+03  0.11507185205E+04  0.61300000000E+03 0.  1.
         13    1    4    4    0    0  0.46120984614E+02  0.71999137490E+01  0.34574059699E+03  0.34887756528E+03  0.10566000000E+00 0.  1.
    -200003    1    4    4    0    0  0.30516201867E+02  0.73024287177E+02  0.56423943619E+03  0.57055229949E+03  0.30000000000E+02 0.  1.
    -200000    1    3    3    0    0 -0.32755142257E+03 -0.16373262868E+03  0.40319074709E+03  0.55395133961E+03  0.10100000000E+03 0. -1.
<mgrwt>
<rscale>  0 0.13496184E+04</rscale>
<asrwt>0</asrwt>
<pdfrwt beam="1">  1        2 0.26690784E-01 0.13496184E+04</pdfrwt>
<pdfrwt beam="2">  1       -2 0.34818060E+00 0.13496184E+04</pdfrwt>
<totfact> 0.32123189E+00</totfact>
</mgrwt>
</event>
<event>
 8    2  0.4480234E-052  0.1662663E+04  0.7818608E-02  0.8782950E-01
          2   -1    0    0  501    0  0.00000000000E+00  0.00000000000E+00  0.19396914217E+04  0.19396914217E+04  0.25500000000E-02 0.  1.
         -2   -1    0    0    0  501 -0.00000000000E+00 -0.00000000000E+00 -0.35630016652E+03  0.35630016653E+03  0.25500000000E-02 0. -1.
    -200001    2    1    2    0    0  0.55530357298E+03  0.28205314577E+02  0.68218232902E+03  0.10724295234E+04  0.61284154124E+03 0.  0.
   -5000001    2    3    3    0    0  0.43881672971E+03 -0.24537827197E+01  0.96193538447E+02  0.46572281700E+03  0.12279414525E+03 0.  0.
     200001    1    1    2    0    0 -0.55530357298E+03 -0.28205314577E+02  0.90120892616E+03  0.12235620648E+04  0.61300000000E+03 0.  1.
         13    1    4    4    0    0  0.20849230861E+03  0.39494528587E+02  0.37376404460E+01  0.21223298909E+03  0.10566000000E+00 0.  1.
    -200003    1    4    4    0    0  0.23032442110E+03 -0.41948311307E+02  0.92455898001E+02  0.25348982791E+03  0.30000000000E+02 0.  1.
    -200000    1    3    3    0    0  0.11648684326E+03  0.30659097297E+02  0.58598879057E+03  0.60670670639E+03  0.10100000000E+03 0.  1.
<mgrwt>
<rscale>  0 0.16626634E+04</rscale>
<asrwt>0</asrwt>
<pdfrwt beam="1">  1        2 0.27709877E+00 0.16626634E+04</pdfrwt>
<pdfrwt beam="2">  1       -2 0.50900025E-01 0.16626634E+04</pdfrwt>
<totfact> 0.30073078E+01</totfact>
</mgrwt>
</event>
<event>
 8    2  0.4480234E-052  0.1429719E+04  0.7818608E-02  0.8932583E-01
          2   -1    0    0  501    0  0.00000000000E+00  0.00000000000E+00  0.13989006548E+04  0.13989006548E+04  0.25500000000E-02 0.  1.
         -2   -1    0    0    0  501 -0.00000000000E+00 -0.00000000000E+00 -0.36530432389E+03  0.36530432390E+03  0.25500000000E-02 0. -1.
    -200001    2    1    2    0    0 -0.98416696405E+02  0.10956216063E+03  0.93847040629E+03  0.11266254505E+04  0.60569669729E+03 0.  0.
   -5000001    2    3    3    0    0 -0.10737247953E+02 -0.23440987363E+03  0.36409923753E+03  0.44390465435E+03  0.97055705814E+02 0.  0.
     200001    1    1    2    0    0  0.98416696405E+02 -0.10956216063E+03  0.95125924578E+02  0.63757952814E+03  0.61300000000E+03 0. -1.
         13    1    4    4    0    0 -0.25252107029E+01 -0.33899502925E+02  0.94011186484E+01  0.35269607079E+02  0.10566000000E+00 0.  1.
    -200003    1    4    4    0    0 -0.82120372502E+01 -0.20051037070E+03  0.35469811889E+03  0.40863504727E+03  0.30000000000E+02 0.  1.
    -200000    1    3    3    0    0 -0.87679448452E+02  0.34397203426E+03  0.57437116875E+03  0.68272079618E+03  0.10100000000E+03 0.  1.
<mgrwt>
<rscale>  0 0.14297195E+04</rscale>
<asrwt>0</asrwt>
<pdfrwt beam="1">  1        2 0.19984295E+00 0.14297195E+04</pdfrwt>
<pdfrwt beam="2">  1       -2 0.52186331E-01 0.14297195E+04</pdfrwt>
<totfact> 0.55830459E+01</totfact>
</mgrwt>
</event>
<event>
 8    2  0.4480234E-052  0.1301870E+04  0.7818608E-02  0.9028084E-01
         -2   -1    0    0    0  501 -0.00000000000E+00  0.00000000000E+00  0.35394033268E+03  0.35394033269E+03  0.25500000000E-02 0. -1.
          2   -1    0    0  501    0  0.00000000000E+00 -0.00000000000E+00 -0.11971407365E+04  0.11971407365E+04  0.25500000000E-02 0.  1.
    -200001    2    1    2    0    0  0.38146329803E+02 -0.55151696170E+02 -0.67046325080E+03  0.91068745894E+03  0.61264494214E+03 0.  0.
   -5000001    2    3    3    0    0  0.14767955964E+03 -0.88804706964E+02  0.16198019804E+02  0.20724253990E+03  0.11398055178E+03 0.  0.
     200001    1    1    2    0    0 -0.38146329803E+02  0.55151696170E+02 -0.17273715306E+03  0.64039361030E+03  0.61300000000E+03 0. -1.
         13    1    4    4    0    0  0.97136046475E+02 -0.32890155171E+02  0.56036682782E+02  0.11686442920E+03  0.10566000000E+00 0.  1.
    -200003    1    4    4    0    0  0.50543513166E+02 -0.55914551793E+02 -0.39838662978E+02  0.90378110698E+02  0.30000000000E+02 0.  1.
    -200000    1    3    3    0    0 -0.10953322984E+03  0.33653010794E+02 -0.68666127060E+03  0.70344491904E+03  0.10100000000E+03 0.  1.
<mgrwt>
<rscale>  0 0.13018700E+04</rscale>
<asrwt>0</asrwt>
<pdfrwt beam="1">  1        2 0.17102010E+00 0.13018700E+04</pdfrwt>
<pdfrwt beam="2">  1       -2 0.50562905E-01 0.13018700E+04</pdfrwt>
<totfact> 0.77790135E+01</totfact>
</mgrwt>
</event>
<event>
 8    2  0.4480234E-052  0.1321264E+04  0.7818608E-02  0.9012870E-01
          2   -1    0    0  501    0  0.00000000000E+00  0.00000000000E+00  0.58618818473E+03  0.58618818473E+03  0.25500000000E-02 0.  1.
         -2   -1    0    0    0  501 -0.00000000000E+00 -0.00000000000E+00 -0.74453039227E+03  0.74453039228E+03  0.25500000000E-02 0. -1.
    -200001    2    1    2    0    0  0.87933549834E+01 -0.24528559725E+03 -0.56533157687E+02  0.66260449249E+03  0.61286733331E+03 0.  0.
   -5000001    2    3    3    0    0  0.31297901353E+02 -0.43362064616E+03 -0.68764995500E+02  0.44736703498E+03  0.80013848662E+02 0.  0.
     200001    1    1    2    0    0 -0.87933549834E+01  0.24528559725E+03 -0.10180904986E+03  0.66811408453E+03  0.61300000000E+03 0. -1.
         13    1    4    4    0    0  0.32155757326E+02 -0.26508604491E+03 -0.70474345397E+02  0.27617249765E+03  0.10566000000E+00 0.  1.
    -200003    1    4    4    0    0 -0.85785597247E+00 -0.16853460125E+03  0.17093498973E+01  0.17119453733E+03  0.30000000000E+02 0.  1.
    -200000    1    3    3    0    0 -0.22504546370E+02  0.18833504891E+03  0.12231837812E+02  0.21523745750E+03  0.10100000000E+03 0.  1.
<mgrwt>
<rscale>  0 0.13212644E+04</rscale>
<asrwt>0</asrwt>
<pdfrwt beam="1">  1        2 0.83741170E-01 0.13212644E+04</pdfrwt>
<pdfrwt beam="2">  1       -2 0.10636148E+00 0.13212644E+04</pdfrwt>
<totfact> 0.38966959E+01</totfact>
</mgrwt>
</event>
<event>
 8    2  0.4480234E-052  0.2111083E+04  0.7818608E-02  0.8556377E-01
          2   -1    0    0  501    0  0.00000000000E+00  0.00000000000E+00  0.52021890827E+03  0.52021890828E+03  0.25500000000E-02 0.  1.
         -2   -1    0    0    0  501 -0.00000000000E+00 -0.00000000000E+00 -0.21417298743E+04  0.21417298743E+04  0.25500000000E-02 0. -1.
    -200001    2    1    2    0    0  0.14837716354E+03  0.63603819679E+03 -0.10734018740E+03  0.90267549021E+03  0.61379211005E+03 0.  0.
   -5000001    2    3    3    0    0  0.42263061792E+02  0.44345065171E+03 -0.34142508116E+03  0.56600517284E+03  0.73185536442E+02 0.  0.
     200001    1    1    2    0    0 -0.14837716354E+03 -0.63603819679E+03 -0.15141707787E+04  0.17592732924E+04  0.61300000000E+03 0. -1.
         13    1    4    4    0    0  0.16561684169E+02  0.32025936285E+03 -0.22285369093E+03  0.39051776861E+03  0.10566000000E+00 0.  1.
    -200003    1    4    4    0    0  0.25701377623E+02  0.12319128886E+03 -0.11857139023E+03  0.17548740423E+03  0.30000000000E+02 0. -1.
    -200000    1    3    3    0    0  0.10611410175E+03  0.19258754507E+03  0.23408489376E+03  0.33667031736E+03  0.10100000000E+03 0.  1.
<mgrwt>
<rscale>  0 0.21110835E+04</rscale>
<asrwt>0</asrwt>
<pdfrwt beam="1">  1        2 0.74316988E-01 0.21110835E+04</pdfrwt>
<pdfrwt beam="2">  1       -2 0.30596141E+00 0.21110835E+04</pdfrwt>
<totfact> 0.17332569E+00</totfact>
</mgrwt>
</event>
<event>
 8    2  0.4480234E-052  0.1607401E+04  0.7818608E-02  0.8816014E-01
         -2   -1    0    0    0  501 -0.00000000000E+00  0.00000000000E+00  0.79740017635E+03  0.79740017635E+03  0.25500000000E-02 0. -1.
          2   -1    0    0  501    0  0.00000000000E+00 -0.00000000000E+00 -0.81005096237E+03  0.81005096237E+03  0.25500000000E-02 0.  1.
    -200001    2    1    2    0    0 -0.49597411340E+03 -0.30977418069E+02  0.14599352792E+03  0.80253689488E+03  0.61302645608E+03 0.  0.
   -5000001    2    3    3    0    0 -0.57921260353E+03  0.63733331177E+01  0.24305626119E+03  0.63536662526E+03  0.95323359821E+02 0.  0.
     200001    1    1    2    0    0  0.49597411340E+03  0.30977418069E+02 -0.15864431394E+03  0.80491424384E+03  0.61300000000E+03 0.  1.
         13    1    4    4    0    0 -0.23872877460E+03 -0.29679220404E+02  0.69916509106E+02  0.25052068449E+03  0.10566000000E+00 0.  1.
    -200003    1    4    4    0    0 -0.34048382893E+03  0.36052553522E+02  0.17313975208E+03  0.38484594077E+03  0.30000000000E+02 0.  1.
    -200000    1    3    3    0    0  0.83238490127E+02 -0.37350751187E+02 -0.97062733274E+02  0.16717026962E+03  0.10100000000E+03 0.  1.
<mgrwt>
<rscale>  0 0.16074014E+04</rscale>
<asrwt>0</asrwt>
<pdfrwt beam="1">  1        2 0.11572157E+00 0.16074014E+04</pdfrwt>
<pdfrwt beam="2">  1       -2 0.11391431E+00 0.16074014E+04</pdfrwt>
<totfact> 0.21683133E+01</totfact>
</mgrwt>
</event>
<event>
 8    2  0.4480234E-052  0.1278421E+04  0.7818608E-02  0.9046855E-01
         -2   -1    0    0    0  501 -0.00000000000E+00  0.00000000000E+00  0.16310968078E+03  0.16310968080E+03  0.25500000000E-02 0. -1.
          2   -1    0    0  501    0  0.00000000000E+00 -0.00000000000E+00 -0.25050006281E+04  0.25050006281E+04  0.25500000000E-02 0.  1.
    -200001    2    1    2    0    0  0.22370074796E+02 -0.17273085089E+03 -0.10696019436E+04  0.12451469657E+04  0.61319351053E+03 0.  0.
   -5000001    2    3    3    0    0  0.33653117914E+02 -0.23859133785E+03 -0.10930629478E+04  0.11217924784E+04  0.74655194155E+02 0.  0.
     200001    1    1    2    0    0 -0.22370074796E+02  0.17273085089E+03 -0.12722890038E+04  0.14229633433E+04  0.61300000000E+03 0. -1.
         13    1    4    4    0    0  0.35992010426E+02 -0.14011415361E+03 -0.52983763125E+03  0.54923157912E+03  0.10566000000E+00 0.  1.
    -200003    1    4    4    0    0 -0.23388925117E+01 -0.98477184244E+02 -0.56322531652E+03  0.57256089930E+03  0.30000000000E+02 0.  1.
    -200000    1    3    3    0    0 -0.11283043118E+02  0.65860486966E+02  0.23461004210E+02  0.12335448725E+03  0.10100000000E+03 0. -1.
<mgrwt>
<rscale>  0 0.12784207E+04</rscale>
<asrwt>0</asrwt>
<pdfrwt beam="1">  1        2 0.35785721E+00 0.12784207E+04</pdfrwt>
<pdfrwt beam="2">  1       -2 0.23301384E-01 0.12784207E+04</pdfrwt>
<totfact> 0.70338861E+01</totfact>
</mgrwt>
</event>
<event>
 8    2  0.4480234E-052  0.1259469E+04  0.7818608E-02  0.9062339E-01
         -2   -1    0    0    0  501 -0.00000000000E+00  0.00000000000E+00  0.38277571221E+03  0.38277571222E+03  0.25500000000E-02 0. -1.
          2   -1    0    0  501    0  0.00000000000E+00 -0.00000000000E+00 -0.10360254437E+04  0.10360254437E+04  0.25500000000E-02 0.  1.
    -200001    2    1    2    0    0  0.39818122501E+02 -0.12433905316E+03 -0.39513136457E+03  0.74098128724E+03  0.61308954465E+03 0.  0.
   -5000001    2    3    3    0    0 -0.50112487476E+01  0.19589258693E+03  0.15749071238E+01  0.21931583713E+03  0.98478108514E+02 0.  0.
     200001    1    1    2    0    0 -0.39818122501E+02  0.12433905316E+03 -0.25811836689E+03  0.67781986866E+03  0.61300000000E+03 0. -1.
         13    1    4    4    0    0 -0.14346688708E+02 -0.78669184758E+00 -0.13311777694E+02  0.19587265004E+02  0.10566000000E+00 0.  1.
    -200003    1    4    4    0    0  0.93354399599E+01  0.19667927877E+03  0.14886684818E+02  0.19972857213E+03  0.30000000000E+02 0.  1.
    -200000    1    3    3    0    0  0.44829371249E+02 -0.32023164009E+03 -0.39670627169E+03  0.52166545011E+03  0.10100000000E+03 0.  1.
<mgrwt>
<rscale>  0 0.12594687E+04</rscale>
<asrwt>0</asrwt>
<pdfrwt beam="1">  1        2 0.14800363E+00 0.12594687E+04</pdfrwt>
<pdfrwt beam="2">  1       -2 0.54682245E-01 0.12594687E+04</pdfrwt>
<totfact> 0.82593236E+01</totfact>
</mgrwt>
</event>
<event>
 8    2  0.4480234E-052  0.2093914E+04  0.7818608E-02  0.8563929E-01
          2   -1    0    0  501    0  0.00000000000E+00  0.00000000000E+00  0.13194884605E+04  0.13194884605E+04  0.25500000000E-02 0.  1.
         -2   -1    0    0    0  501 -0.00000000000E+00 -0.00000000000E+00 -0.83071469210E+03  0.83071469210E+03  0.25500000000E-02 0. -1.
    -200001    2    1    2    0    0 -0.37347418377E+03 -0.73511427453E+02  0.10234195119E+04  0.12521486070E+04  0.61286355795E+03 0.  0.
   -5000001    2    3    3    0    0 -0.60092022793E+01 -0.26954890272E+03  0.32887570435E+03  0.43602771828E+03  0.96271598767E+02 0.  0.
     200001    1    1    2    0    0  0.37347418377E+03  0.73511427453E+02 -0.53464574350E+03  0.89805454564E+03  0.61300000000E+03 0. -1.
         13    1    4    4    0    0 -0.29733482217E+01  0.30062000882E+01 -0.32450229989E+01  0.53309827346E+01  0.10566000000E+00 0.  1.
    -200003    1    4    4    0    0 -0.30358540576E+01 -0.27255510281E+03  0.33212072735E+03  0.43069673555E+03  0.30000000000E+02 0.  1.
    -200000    1    3    3    0    0 -0.36746498149E+03  0.19603747526E+03  0.69454380755E+03  0.81612088868E+03  0.10100000000E+03 0.  1.
<mgrwt>
<rscale>  0 0.20939135E+04</rscale>
<asrwt>0</asrwt>
<pdfrwt beam="1">  1        2 0.18849835E+00 0.20939135E+04</pdfrwt>
<pdfrwt beam="2">  1       -2 0.11867353E+00 0.20939135E+04</pdfrwt>
<totfact> 0.92587451E+00</totfact>
</mgrwt>
</event>
<event>
 8    2  0.4480234E-052  0.1319249E+04  0.7818608E-02  0.9014439E-01
          2   -1    0    0  501    0  0.00000000000E+00  0.00000000000E+00  0.28801404044E+04  0.28801404045E+04  0.25500000000E-02 0.  1.
         -2   -1    0    0    0  501 -0.00000000000E+00 -0.00000000000E+00 -0.15107047301E+03  0.15107047303E+03  0.25500000000E-02 0. -1.
    -200001    2    1    2    0    0 -0.16470008757E+03  0.57619594322E+02  0.17548748424E+04  0.18670497168E+04  0.61306018961E+03 0.  0.
   -5000001    2    3    3    0    0 -0.11650796052E+03 -0.14128115875E+03  0.15436777765E+04  0.15561008604E+04  0.70528996356E+02 0.  0.
     200001    1    1    2    0    0  0.16470008757E+03 -0.57619594322E+02  0.97419508902E+03  0.11641611607E+04  0.61300000000E+03 0. -1.
         13    1    4    4    0    0 -0.99123912934E+02 -0.92620485172E+02  0.11348739528E+04  0.11429536317E+04  0.10566000000E+00 0.  1.
    -200003    1    4    4    0    0 -0.17384047590E+02 -0.48660673578E+02  0.40880382367E+03  0.41314722862E+03  0.30000000000E+02 0.  1.
    -200000    1    3    3    0    0 -0.48192127046E+02  0.19890075307E+03  0.21119706593E+03  0.31094885647E+03  0.10100000000E+03 0. -1.
<mgrwt>
<rscale>  0 0.13192485E+04</rscale>
<asrwt>0</asrwt>
<pdfrwt beam="1">  1        2 0.41144865E+00 0.13192485E+04</pdfrwt>
<pdfrwt beam="2">  1       -2 0.21581495E-01 0.13192485E+04</pdfrwt>
<totfact> 0.50666393E+01</totfact>
</mgrwt>
</event>
<event>
 8    2  0.4480234E-052  0.1898829E+04  0.7818608E-02  0.8655440E-01
          2   -1    0    0  501    0  0.00000000000E+00  0.00000000000E+00  0.25923611845E+04  0.25923611845E+04  0.25500000000E-02 0.  1.
         -2   -1    0    0    0  501 -0.00000000000E+00 -0.00000000000E+00 -0.34770905835E+03  0.34770905836E+03  0.25500000000E-02 0. -1.
    -200001    2    1    2    0    0  0.22086877267E+03 -0.68806245295E+03  0.12153019893E+04  0.15409477829E+04  0.61265666599E+03 0.  0.
   -5000001    2    3    3    0    0 -0.84533465471E+02 -0.52637319287E+03  0.48598496344E+03  0.72761004974E+03  0.94975548647E+02 0.  0.
     200001    1    1    2    0    0 -0.22086877267E+03  0.68806245295E+03  0.10293501369E+04  0.13991224600E+04  0.61300000000E+03 0. -1.
         13    1    4    4    0    0  0.11231332054E+02 -0.70708386676E+02  0.39273663504E+02  0.81659356935E+02  0.10566000000E+00 0.  1.
    -200003    1    4    4    0    0 -0.95764797525E+02 -0.45566480620E+03  0.44671129993E+03  0.64595069281E+03  0.30000000000E+02 0.  1.
    -200000    1    3    3    0    0  0.30540223814E+03 -0.16168926007E+03  0.72931702587E+03  0.81333773312E+03  0.10100000000E+03 0.  1.
<mgrwt>
<rscale>  0 0.18988286E+04</rscale>
<asrwt>0</asrwt>
<pdfrwt beam="1">  1        2 0.37033733E+00 0.18988286E+04</pdfrwt>
<pdfrwt beam="2">  1       -2 0.49672720E-01 0.18988286E+04</pdfrwt>
<totfact> 0.14196641E+01</totfact>
</mgrwt>
</event>
<event>
 8    2  0.4480234E-052  0.2064093E+04  0.7818608E-02  0.8577228E-01
         -2   -1    0    0    0  501 -0.00000000000E+00  0.00000000000E+00  0.97043676779E+03  0.97043676779E+03  0.25500000000E-02 0. -1.
          2   -1    0    0  501    0  0.00000000000E+00 -0.00000000000E+00 -0.10975679649E+04  0.10975679649E+04  0.25500000000E-02 0.  1.
    -200001    2    1    2    0    0 -0.56404340813E+03  0.55015170716E+03  0.19849325089E+03  0.10179513301E+04  0.61319937429E+03 0.  0.
   -5000001    2    3    3    0    0 -0.14714444357E+03 -0.75612026590E+02  0.13727641797E+03  0.25681172544E+03  0.14049477411E+03 0.  0.
     200001    1    1    2    0    0  0.56404340813E+03 -0.55015170716E+03 -0.32562444797E+03  0.10500534026E+04  0.61300000000E+03 0.  1.
         13    1    4    4    0    0 -0.14729494341E+02  0.13264720975E+01 -0.26652095214E+02  0.30480532723E+02  0.10566000000E+00 0.  1.
    -200003    1    4    4    0    0 -0.13241494923E+03 -0.76938498688E+02  0.16392851319E+03  0.22633119272E+03  0.30000000000E+02 0.  1.
    -200000    1    3    3    0    0 -0.41689896455E+03  0.62576373375E+03  0.61216832920E+02  0.76113960464E+03  0.10100000000E+03 0.  1.
<mgrwt>
<rscale>  0 0.20640933E+04</rscale>
<asrwt>0</asrwt>
<pdfrwt beam="1">  1        2 0.15679542E+00 0.20640933E+04</pdfrwt>
<pdfrwt beam="2">  1       -2 0.13863382E+00 0.20640933E+04</pdfrwt>
<totfact> 0.83822054E+00</totfact>
</mgrwt>
</event>
<event>
 8    2  0.4480234E-052  0.2816372E+04  0.7818608E-02  0.8298203E-01
          2   -1    0    0  501    0  0.00000000000E+00  0.00000000000E+00  0.42146673710E+04  0.42146673710E+04  0.25500000000E-02 0.  1.
         -2   -1    0    0    0  501 -0.00000000000E+00 -0.00000000000E+00 -0.47049685339E+03  0.47049685340E+03  0.25500000000E-02 0. -1.
    -200001    2    1    2    0    0 -0.67192713470E+03 -0.89253249508E+03  0.28689509271E+04  0.31392409854E+04  0.61306950137E+03 0.  0.
   -5000001    2    3    3    0    0 -0.63942983946E+03 -0.53263711393E+03  0.14943649400E+04  0.17143661153E+04  0.11554994051E+03 0.  0.
     200001    1    1    2    0    0  0.67192713470E+03  0.89253249508E+03  0.87521959054E+03  0.15459232390E+04  0.61300000000E+03 0. -1.
         13    1    4    4    0    0 -0.52853138465E+03 -0.47856392910E+03  0.12541628954E+04  0.14426688595E+04  0.10566000000E+00 0.  1.
    -200003    1    4    4    0    0 -0.11089845481E+03 -0.54073184832E+02  0.24020204453E+03  0.27169725577E+03  0.30000000000E+02 0.  1.
    -200000    1    3    3    0    0 -0.32497295236E+02 -0.35989538115E+03  0.13745859871E+04  0.14248748702E+04  0.10100000000E+03 0. -1.
<mgrwt>
<rscale>  0 0.28163719E+04</rscale>
<asrwt>0</asrwt>
<pdfrwt beam="1">  1        2 0.60209534E+00 0.28163719E+04</pdfrwt>
<pdfrwt beam="2">  1       -2 0.67213837E-01 0.28163719E+04</pdfrwt>
<totfact> 0.71181797E-01</totfact>
</mgrwt>
</event>
<event>
 8    2  0.4480234E-052  0.2006806E+04  0.7818608E-02  0.8603445E-01
         -2   -1    0    0    0  501 -0.00000000000E+00  0.00000000000E+00  0.27280166945E+03  0.27280166947E+03  0.25500000000E-02 0. -1.
          2   -1    0    0  501    0  0.00000000000E+00 -0.00000000000E+00 -0.36906563963E+04  0.36906563963E+04  0.25500000000E-02 0.  1.
    -200001    2    1    2    0    0  0.15612136144E+03  0.52990618024E+03 -0.58299035112E+03  0.10109338122E+04  0.61395031047E+03 0.  0.
   -5000001    2    3    3    0    0 -0.49031189760E+02  0.69183236893E+02  0.10228663582E+03  0.15410317043E+03  0.78069542288E+02 0.  0.
     200001    1    1    2    0    0 -0.15612136144E+03 -0.52990618024E+03 -0.28348643757E+04  0.29525242536E+04  0.61300000000E+03 0.  1.
         13    1    4    4    0    0 -0.41970514263E+02  0.71310405696E+02  0.62316670604E+02  0.10358608317E+03  0.10566000000E+00 0.  1.
    -200003    1    4    4    0    0 -0.70606754967E+01 -0.21271688027E+01  0.39969965214E+02  0.50517087256E+02  0.30000000000E+02 0. -1.
    -200000    1    3    3    0    0  0.20515255120E+03  0.46072294334E+03 -0.68527698693E+03  0.85683064173E+03  0.10100000000E+03 0.  1.
<mgrwt>
<rscale>  0 0.20068056E+04</rscale>
<asrwt>0</asrwt>
<pdfrwt beam="1">  1        2 0.52723660E+00 0.20068056E+04</pdfrwt>
<pdfrwt beam="2">  1       -2 0.38971669E-01 0.20068056E+04</pdfrwt>
<totfact> 0.53200547E+00</totfact>
</mgrwt>
</event>
<event>
 8    2  0.4480234E-052  0.2828196E+04  0.7818608E-02  0.8294568E-01
          2   -1    0    0  501    0  0.00000000000E+00  0.00000000000E+00  0.35303677286E+04  0.35303677286E+04  0.25500000000E-02 0.  1.
         -2   -1    0    0    0  501 -0.00000000000E+00 -0.00000000000E+00 -0.56642077583E+03  0.56642077584E+03  0.25500000000E-02 0. -1.
    -200001    2    1    2    0    0  0.94807736682E+03 -0.83944584809E+03  0.16921259740E+04  0.22002607226E+04  0.61183078547E+03 0.  0.
   -5000001    2    3    3    0    0  0.93993874502E+03 -0.67026134238E+03  0.11928639240E+04  0.16634616645E+04  0.10698250641E+03 0.  0.
     200001    1    1    2    0    0 -0.94807736682E+03  0.83944584809E+03  0.12718209787E+04  0.18965277818E+04  0.61300000000E+03 0. -1.
         13    1    4    4    0    0  0.55220767950E+03 -0.44624193329E+03  0.70435132528E+03  0.10000879886E+04  0.10566000000E+00 0.  1.
    -200003    1    4    4    0    0  0.38773106552E+03 -0.22401940908E+03  0.48851259869E+03  0.66337367591E+03  0.30000000000E+02 0.  1.
    -200000    1    3    3    0    0  0.81386217982E+01 -0.16918450571E+03  0.49926205006E+03  0.53679905809E+03  0.10100000000E+03 0.  1.
<mgrwt>
<rscale>  0 0.28281963E+04</rscale>
<asrwt>0</asrwt>
<pdfrwt beam="1">  1        2 0.50433824E+00 0.28281963E+04</pdfrwt>
<pdfrwt beam="2">  1       -2 0.80917255E-01 0.28281963E+04</pdfrwt>
<totfact> 0.13544032E+00</totfact>
</mgrwt>
</event>
<event>
 8    2  0.4480234E-052  0.1244146E+04  0.7818608E-02  0.9075070E-01
          2   -1    0    0  501    0  0.00000000000E+00  0.00000000000E+00  0.14861800541E+04  0.14861800541E+04  0.25500000000E-02 0.  1.
         -2   -1    0    0    0  501 -0.00000000000E+00 -0.00000000000E+00 -0.26038201862E+03  0.26038201863E+03  0.25500000000E-02 0. -1.
    -200001    2    1    2    0    0  0.57307833578E+02  0.12172928048E+02  0.47481650717E+03  0.77539029399E+03  0.61020244556E+03 0.  0.
   -5000001    2    3    3    0    0 -0.24523208635E+03 -0.27872843672E+02  0.33721633859E+03  0.42572063077E+03  0.81286683218E+02 0.  0.
     200001    1    1    2    0    0 -0.57307833578E+02 -0.12172928048E+02  0.75098152835E+03  0.97117177878E+03  0.61300000000E+03 0. -1.
         13    1    4    4    0    0 -0.82945462565E+02 -0.41504974163E+02  0.14356269937E+03  0.17091773592E+03  0.10566000000E+00 0.  1.
    -200003    1    4    4    0    0 -0.16228662378E+03  0.13632130491E+02  0.19365363922E+03  0.25480289485E+03  0.30000000000E+02 0.  1.
    -200000    1    3    3    0    0  0.30253991993E+03  0.40045771720E+02  0.13760016858E+03  0.34966966322E+03  0.10100000000E+03 0. -1.
<mgrwt>
<rscale>  0 0.12441456E+04</rscale>
<asrwt>0</asrwt>
<pdfrwt beam="1">  1        2 0.21231143E+00 0.12441456E+04</pdfrwt>
<pdfrwt beam="2">  1       -2 0.37197432E-01 0.12441456E+04</pdfrwt>
<totfact> 0.99618308E+01</totfact>
</mgrwt>
</event>
<event>
 8    2  0.4480234E-052  0.1531042E+04  0.7818608E-02  0.8864069E-01
          2   -1    0    0  501    0  0.00000000000E+00  0.00000000000E+00  0.11376174426E+04  0.11376174426E+04  0.25500000000E-02 0.  1.
         -2   -1    0    0    0  501 -0.00000000000E+00 -0.00000000000E+00 -0.51513114665E+03  0.51513114666E+03  0.25500000000E-02 0. -1.
    -200001    2    1    2    0    0  0.14016407947E+03  0.18640995048E+03  0.73733818329E+03  0.98689981147E+03  0.61311418393E+03 0.  0.
   -5000001    2    3    3    0    0 -0.16246147610E+03  0.12974366774E+03  0.59483549570E+03  0.63292056002E+03  0.59430781774E+02 0.  0.
     200001    1    1    2    0    0 -0.14016407947E+03 -0.18640995048E+03 -0.11485188737E+03  0.66584877776E+03  0.61300000000E+03 0. -1.
         13    1    4    4    0    0 -0.94097276857E+02  0.49581744799E+02  0.27544106090E+03  0.29526333352E+03  0.10566000000E+00 0.  1.
    -200003    1    4    4    0    0 -0.68364199241E+02  0.80161922943E+02  0.31939443480E+03  0.33765722650E+03  0.30000000000E+02 0.  1.
    -200000    1    3    3    0    0  0.30262555557E+03  0.56666282736E+02  0.14250268759E+03  0.35397925145E+03  0.10100000000E+03 0.  1.
<mgrwt>
<rscale>  0 0.15310417E+04</rscale>
<asrwt>0</asrwt>
<pdfrwt beam="1">  1        2 0.16251678E+00 0.15310417E+04</pdfrwt>
<pdfrwt beam="2">  1       -2 0.73590163E-01 0.15310417E+04</pdfrwt>
<totfact> 0.37349870E+01</totfact>
</mgrwt>
</event>
<event>
 8    2  0.4480234E-052  0.1335206E+04  0.7818608E-02  0.9002103E-01
          2   -1    0    0  501    0  0.00000000000E+00  0.00000000000E+00  0.11778994435E+04  0.11778994435E+04  0.25500000000E-02 0.  1.
         -2   -1    0    0    0  501 -0.00000000000E+00 -0.00000000000E+00 -0.37838002017E+03  0.37838002018E+03  0.25500000000E-02 0. -1.
    -200001    2    1    2    0    0  0.10392970007E+03 -0.20284328126E+03  0.24727906344E+03  0.70030914038E+03  0.61427939699E+03 0.  0.
   -5000001    2    3    3    0    0 -0.50861529393E+02 -0.34999698080E+03  0.21874416850E+02  0.37377768598E+03  0.11893900405E+03 0.  0.
     200001    1    1    2    0    0 -0.10392970007E+03  0.20284328126E+03  0.55224035992E+03  0.85597032334E+03  0.61300000000E+03 0.  1.
         13    1    4    4    0    0  0.21913570994E+02 -0.11572074784E+02  0.80039684556E+01  0.26042123254E+02  0.10566000000E+00 0.  1.
    -200003    1    4    4    0    0 -0.72775100386E+02 -0.33842490601E+03  0.13870448394E+02  0.34773556273E+03  0.30000000000E+02 0.  1.
    -200000    1    3    3    0    0  0.15479122946E+03  0.14715369953E+03  0.22540464659E+03  0.32653145440E+03  0.10100000000E+03 0.  1.
<mgrwt>
<rscale>  0 0.13352058E+04</rscale>
<asrwt>0</asrwt>
<pdfrwt beam="1">  1        2 0.16827135E+00 0.13352058E+04</pdfrwt>
<pdfrwt beam="2">  1       -2 0.54054289E-01 0.13352058E+04</pdfrwt>
<totfact> 0.69395281E+01</totfact>
</mgrwt>
</event>
<event>
 8    2  0.4480234E-052  0.1309705E+04  0.7818608E-02  0.9021904E-01
         -2   -1    0    0    0  501 -0.00000000000E+00  0.00000000000E+00  0.10699583965E+03  0.10699583968E+03  0.25500000000E-02 0. -1.
          2   -1    0    0  501    0  0.00000000000E+00 -0.00000000000E+00 -0.40079281888E+04  0.40079281888E+04  0.25500000000E-02 0.  1.
    -200001    2    1    2    0    0 -0.19482528974E+03  0.37048347540E+02 -0.15845565890E+04  0.17106164076E+04  0.61323685202E+03 0.  0.
   -5000001    2    3    3    0    0 -0.23580217625E+03  0.24956110242E+03 -0.95957197348E+03  0.10415517277E+04  0.21486791083E+03 0.  0.
     200001    1    1    2    0    0  0.19482528974E+03 -0.37048347540E+02 -0.23163757602E+04  0.24043076209E+04  0.61300000000E+03 0.  1.
         13    1    4    4    0    0 -0.26723831178E+03  0.24113559933E+03 -0.83220418664E+03  0.90671192336E+03  0.10566000000E+00 0.  1.
    -200003    1    4    4    0    0  0.31436135530E+02  0.84255030905E+01 -0.12736778685E+03  0.13483980438E+03  0.30000000000E+02 0.  1.
    -200000    1    3    3    0    0  0.40976886511E+02 -0.21251275488E+03 -0.62498461549E+03  0.66906467984E+03  0.10100000000E+03 0.  1.
<mgrwt>
<rscale>  0 0.13097048E+04</rscale>
<asrwt>0</asrwt>
<pdfrwt beam="1">  1        2 0.57256107E+00 0.13097048E+04</pdfrwt>
<pdfrwt beam="2">  1       -2 0.15285123E-01 0.13097048E+04</pdfrwt>
<totfact> 0.19258610E+01</totfact>
</mgrwt>
</event>
<event>
 8    2  0.4480234E-052  0.1349847E+04  0.7818608E-02  0.8990944E-01
          2   -1    0    0  501    0  0.00000000000E+00  0.00000000000E+00  0.11287581155E+04  0.11287581155E+04  0.25500000000E-02 0.  1.
         -2   -1    0    0    0  501 -0.00000000000E+00 -0.00000000000E+00 -0.40355985733E+03  0.40355985734E+03  0.25500000000E-02 0. -1.
    -200001    2    1    2    0    0 -0.22936415774E+03 -0.16452017395E+03  0.36999734122E+03  0.76968339723E+03  0.61305766040E+03 0.  0.
   -5000001    2    3    3    0    0  0.17712293919E+03 -0.14716343118E+03  0.46340291822E+02  0.24007231152E+03  0.49575004265E+02 0.  0.
     200001    1    1    2    0    0  0.22936415774E+03  0.16452017395E+03  0.35520091693E+03  0.76263457559E+03  0.61300000000E+03 0.  1.
         13    1    4    4    0    0  0.94808393570E+02 -0.91219466951E+02  0.23628602043E+02  0.13367103142E+03  0.10566000000E+00 0.  1.
    -200003    1    4    4    0    0  0.82314545616E+02 -0.55943964230E+02  0.22711689778E+02  0.10640128010E+03  0.30000000000E+02 0. -1.
    -200000    1    3    3    0    0 -0.40648709693E+03 -0.17356742764E+02  0.32365704940E+03  0.52961108572E+03  0.10100000000E+03 0. -1.
<mgrwt>
<rscale>  0 0.13498466E+04</rscale>
<asrwt>0</asrwt>
<pdfrwt beam="1">  1        2 0.16125116E+00 0.13498466E+04</pdfrwt>
<pdfrwt beam="2">  1       -2 0.57651409E-01 0.13498466E+04</pdfrwt>
<totfact> 0.64728129E+01</totfact>
</mgrwt>
</event>
<event>
 8    2  0.4480234E-052  0.1344765E+04  0.7818608E-02  0.8994801E-01
          2   -1    0    0  501    0  0.00000000000E+00  0.00000000000E+00  0.11091560813E+04  0.11091560813E+04  0.25500000000E-02 0.  1.
         -2   -1    0    0    0  501 -0.00000000000E+00 -0.00000000000E+00 -0.40760551095E+03  0.40760551096E+03  0.25500000000E-02 0. -1.
    -200001    2    1    2    0    0 -0.18534279228E+03  0.11291145882E+03  0.54327217570E+03  0.84749184217E+03  0.61318579361E+03 0.  0.
   -5000001    2    3    3    0    0 -0.11213768828E+03  0.21966284902E+03 -0.18304847572E+02  0.26240672048E+03  0.87724518456E+02 0.  0.
     200001    1    1    2    0    0  0.18534279228E+03 -0.11291145882E+03  0.15827839467E+03  0.66926975010E+03  0.61300000000E+03 0. -1.
         13    1    4    4    0    0 -0.91160555929E+02  0.15135166979E+03  0.16490294441E+02  0.17745285537E+03  0.10566000000E+00 0.  1.
    -200003    1    4    4    0    0 -0.20977132349E+02  0.68311179227E+02 -0.34795142012E+02  0.84953865107E+02  0.30000000000E+02 0. -1.
    -200000    1    3    3    0    0 -0.73205104004E+02 -0.10675139020E+03  0.56157702327E+03  0.58508512169E+03  0.10100000000E+03 0.  1.
<mgrwt>
<rscale>  0 0.13447649E+04</rscale>
<asrwt>0</asrwt>
<pdfrwt beam="1">  1        2 0.15845087E+00 0.13447649E+04</pdfrwt>
<pdfrwt beam="2">  1       -2 0.58229359E-01 0.13447649E+04</pdfrwt>
<totfact> 0.65113237E+01</totfact>
</mgrwt>
</event>
<event>
 8    2  0.4480234E-052  0.1304948E+04  0.7818608E-02  0.9025650E-01
          2   -1    0    0  501    0  0.00000000000E+00  0.00000000000E+00  0.34651976658E+04  0.34651976658E+04  0.25500000000E-02 0.  1.
         -2   -1    0    0    0  501 -0.00000000000E+00 -0.00000000000E+00 -0.12285665123E+03  0.12285665126E+03  0.25500000000E-02 0. -1.
    -200001    2    1    2    0    0  0.11306299491E+03  0.16114103315E+03  0.19654395476E+04  0.20680621055E+04  0.61251823126E+03 0.  0.
   -5000001    2    3    3    0    0 -0.18821091755E+03  0.11979366953E+03  0.46158627686E+03  0.53044991946E+03  0.13616663807E+03 0.  0.
     200001    1    1    2    0    0 -0.11306299491E+03 -0.16114103315E+03  0.13769014670E+04  0.15199922115E+04  0.61300000000E+03 0. -1.
         13    1    4    4    0    0 -0.10159635427E+03  0.33828079317E+02  0.95802023915E+02  0.14368088634E+03  0.10566000000E+00 0.  1.
    -200003    1    4    4    0    0 -0.86614563287E+02  0.85965590211E+02  0.36578425295E+03  0.38676903312E+03  0.30000000000E+02 0.  1.
    -200000    1    3    3    0    0  0.30127391246E+03  0.41347363622E+02  0.15038532707E+04  0.15376121860E+04  0.10100000000E+03 0.  1.
<mgrwt>
<rscale>  0 0.13049484E+04</rscale>
<asrwt>0</asrwt>
<pdfrwt beam="1">  1        2 0.49502823E+00 0.13049484E+04</pdfrwt>
<pdfrwt beam="2">  1       -2 0.17550950E-01 0.13049484E+04</pdfrwt>
<totfact> 0.33752259E+01</totfact>
</mgrwt>
</event>
<event>
 8    2  0.4480234E-052  0.1243713E+04  0.7818608E-02  0.9075432E-01
          2   -1    0    0  501    0  0.00000000000E+00  0.00000000000E+00  0.13169221682E+04  0.13169221682E+04  0.25500000000E-02 0.  1.
         -2   -1    0    0    0  501 -0.00000000000E+00 -0.00000000000E+00 -0.29364358921E+03  0.29364358922E+03  0.25500000000E-02 0. -1.
    -200001    2    1    2    0    0 -0.73724183926E+02 -0.22399594970E+02  0.42722297817E+03  0.75208554424E+03  0.61414672159E+03 0.  0.
   -5000001    2    3    3    0    0 -0.19908090813E+03  0.23190285362E+03  0.23307417586E+03  0.39392524340E+03  0.86263459426E+02 0.  0.
     200001    1    1    2    0    0  0.73724183926E+02  0.22399594970E+02  0.59605560085E+03  0.85848021320E+03  0.61300000000E+03 0. -1.
         13    1    4    4    0    0 -0.46031163428E+02  0.55379124967E+02  0.16359278405E+02  0.73846818771E+02  0.10566000000E+00 0.  1.
    -200003    1    4    4    0    0 -0.15304974470E+03  0.17652372866E+03  0.21671489746E+03  0.32007842463E+03  0.30000000000E+02 0.  1.
    -200000    1    3    3    0    0  0.12535672421E+03 -0.25430244859E+03  0.19414880230E+03  0.35816030084E+03  0.10100000000E+03 0.  1.
<mgrwt>
<rscale>  0 0.12437134E+04</rscale>
<asrwt>0</asrwt>
<pdfrwt beam="1">  1        2 0.18813175E+00 0.12437134E+04</pdfrwt>
<pdfrwt beam="2">  1       -2 0.41949082E-01 0.12437134E+04</pdfrwt>
<totfact> 0.97315725E+01</totfact>
</mgrwt>
</event>
<event>
 8    2  0.4480234E-052  0.1484219E+04  0.7818608E-02  0.8895016E-01
         -2   -1    0    0    0  501 -0.00000000000E+00  0.00000000000E+00  0.53298239613E+03  0.53298239614E+03  0.25500000000E-02 0. -1.
          2   -1    0    0  501    0  0.00000000000E+00 -0.00000000000E+00 -0.10332917705E+04  0.10332917705E+04  0.25500000000E-02 0.  1.
    -200001    2    1    2    0    0 -0.96725774302E+02 -0.79620675364E+02  0.17293947168E+03  0.64718312869E+03  0.61093585083E+03 0.  0.
   -5000001    2    3    3    0    0  0.12339331989E+03 -0.30213204460E+02  0.84542928288E+02  0.38467891407E+03  0.35311699348E+03 0.  0.
     200001    1    1    2    0    0  0.96725774302E+02  0.79620675364E+02 -0.67324884610E+03  0.91909103800E+03  0.61300000000E+03 0.  1.
         13    1    4    4    0    0  0.14652984322E+03 -0.17144987312E+02 -0.11128310122E+03  0.18479417016E+03  0.10566000000E+00 0.  1.
    -200003    1    4    4    0    0 -0.23136523334E+02 -0.13068217148E+02  0.19582602951E+03  0.19988474390E+03  0.30000000000E+02 0.  1.
    -200000    1    3    3    0    0 -0.22011909419E+03 -0.49407470904E+02  0.88396543396E+02  0.26250421462E+03  0.10100000000E+03 0. -1.
<mgrwt>
<rscale>  0 0.14842187E+04</rscale>
<asrwt>0</asrwt>
<pdfrwt beam="1">  1        2 0.14761311E+00 0.14842187E+04</pdfrwt>
<pdfrwt beam="2">  1       -2 0.76140343E-01 0.14842187E+04</pdfrwt>
<totfact> 0.40098718E+01</totfact>
</mgrwt>
</event>
<event>
 8    2  0.4480234E-052  0.1704737E+04  0.7818608E-02  0.8758667E-01
         -2   -1    0    0    0  501 -0.00000000000E+00  0.00000000000E+00  0.28237868067E+03  0.28237868069E+03  0.25500000000E-02 0. -1.
          2   -1    0    0  501    0  0.00000000000E+00 -0.00000000000E+00 -0.25728993754E+04  0.25728993754E+04  0.25500000000E-02 0.  1.
    -200001    2    1    2    0    0  0.78548975400E+02  0.58709690888E+03 -0.11384080934E+04  0.14221049444E+04  0.61282686282E+03 0.  0.
   -5000001    2    3    3    0    0  0.30483912797E+03  0.37148387587E+03 -0.86265473605E+03  0.99322602530E+03  0.10675944797E+03 0.  0.
     200001    1    1    2    0    0 -0.78548975400E+02 -0.58709690888E+03 -0.11521126013E+04  0.14331731117E+04  0.61300000000E+03 0. -1.
         13    1    4    4    0    0  0.16869255572E+02 -0.47357569151E+01 -0.32114754686E+02  0.36583709622E+02  0.10566000000E+00 0.  1.
    -200003    1    4    4    0    0  0.28796987240E+03  0.37621963279E+03 -0.83053998136E+03  0.95664231568E+03  0.30000000000E+02 0. -1.
    -200000    1    3    3    0    0 -0.22629015257E+03  0.21561303301E+03 -0.27575335736E+03  0.42887891910E+03  0.10100000000E+03 0.  1.
<mgrwt>
<rscale>  0 0.17047368E+04</rscale>
<asrwt>0</asrwt>
<pdfrwt beam="1">  1        2 0.36755704E+00 0.17047368E+04</pdfrwt>
<pdfrwt beam="2">  1       -2 0.40339813E-01 0.17047368E+04</pdfrwt>
<totfact> 0.22387336E+01</totfact>
</mgrwt>
</event>
<event>
 8    2  0.4480234E-052  0.1284573E+04  0.7818608E-02  0.9041889E-01
          2   -1    0    0  501    0  0.00000000000E+00  0.00000000000E+00  0.33012252835E+03  0.33012252836E+03  0.25500000000E-02 0.  1.
         -2   -1    0    0    0  501 -0.00000000000E+00 -0.00000000000E+00 -0.12496324278E+04  0.12496324278E+04  0.25500000000E-02 0. -1.
    -200001    2    1    2    0    0  0.81245224528E+02  0.17183282708E+03 -0.43308475920E+03  0.77445642518E+03  0.61326424882E+03 0.  0.
   -5000001    2    3    3    0    0 -0.14791885496E+03  0.21582012926E+03 -0.44193338537E+03  0.52003481394E+03  0.81687053774E+02 0.  0.
     200001    1    1    2    0    0 -0.81245224528E+02 -0.17183282708E+03 -0.48642514030E+03  0.80529853104E+03  0.61300000000E+03 0.  1.
         13    1    4    4    0    0 -0.15502860050E+02  0.81669577409E+02 -0.12752614123E+03  0.15222741673E+03  0.10566000000E+00 0.  1.
    -200003    1    4    4    0    0 -0.13241599491E+03  0.13415055185E+03 -0.31440724414E+03  0.36780739720E+03  0.30000000000E+02 0.  1.
    -200000    1    3    3    0    0  0.22916407949E+03 -0.43987302175E+02  0.88486261751E+01  0.25442161124E+03  0.10100000000E+03 0.  1.
<mgrwt>
<rscale>  0 0.12845728E+04</rscale>
<asrwt>0</asrwt>
<pdfrwt beam="1">  1        2 0.47160362E-01 0.12845728E+04</pdfrwt>
<pdfrwt beam="2">  1       -2 0.17851892E+00 0.12845728E+04</pdfrwt>
<totfact> 0.19533356E+01</totfact>
</mgrwt>
</event>
<event>
 8    2  0.4480234E-052  0.1843795E+04  0.7818608E-02  0.8683350E-01
          2   -1    0    0  501    0  0.00000000000E+00  0.00000000000E+00  0.11679471493E+04  0.11679471493E+04  0.25500000000E-02 0.  1.
         -2   -1    0    0    0  501 -0.00000000000E+00 -0.00000000000E+00 -0.72768292397E+03  0.72768292397E+03  0.25500000000E-02 0. -1.
    -200001    2    1    2    0    0 -0.12352688813E+03  0.24544318546E+03 -0.43173562018E+03  0.79487852095E+03  0.60822279467E+03 0.  0.
   -5000001    2    3    3    0    0 -0.32166598065E+03  0.22371109462E+03 -0.39184601487E+03  0.56789049402E+03  0.12426043968E+03 0.  0.
     200001    1    1    2    0    0  0.12352688813E+03 -0.24544318546E+03  0.87199984548E+03  0.11007515523E+04  0.61300000000E+03 0.  1.
         13    1    4    4    0    0 -0.13829989896E+03  0.16221171695E+03 -0.23324157853E+03  0.31597649958E+03  0.10566000000E+00 0.  1.
    -200003    1    4    4    0    0 -0.18336608169E+03  0.61499377668E+02 -0.15860443634E+03  0.25191399444E+03  0.30000000000E+02 0.  1.
    -200000    1    3    3    0    0  0.19813909252E+03  0.21732090838E+02 -0.39889605312E+02  0.22698802693E+03  0.10100000000E+03 0.  1.
<mgrwt>
<rscale>  0 0.18437952E+04</rscale>
<asrwt>0</asrwt>
<pdfrwt beam="1">  1        2 0.16684959E+00 0.18437952E+04</pdfrwt>
<pdfrwt beam="2">  1       -2 0.10395470E+00 0.18437952E+04</pdfrwt>
<totfact> 0.15849146E+01</totfact>
</mgrwt>
</event>
<event>
 8    2  0.4480234E-052  0.1423983E+04  0.7818608E-02  0.8936639E-01
          2   -1    0    0  501    0  0.00000000000E+00  0.00000000000E+00  0.55734836349E+03  0.55734836349E+03  0.25500000000E-02 0.  1.
         -2   -1    0    0    0  501 -0.00000000000E+00 -0.00000000000E+00 -0.90954241493E+03  0.90954241494E+03  0.25500000000E-02 0. -1.
    -200001    2    1    2    0    0 -0.53499006338E+02  0.28713279258E+03  0.44435978436E+02  0.68051188447E+03  0.61303709878E+03 0.  0.
   -5000001    2    3    3    0    0 -0.28992061356E+03  0.17216050771E+03  0.15323526036E+03  0.37859784638E+03  0.78498927921E+02 0.  0.
     200001    1    1    2    0    0  0.53499006338E+02 -0.28713279258E+03 -0.39663002988E+03  0.78637889396E+03  0.61300000000E+03 0. -1.
         13    1    4    4    0    0 -0.14386275060E+03  0.71121503570E+02  0.38480577065E+02  0.16503189163E+03  0.10566000000E+00 0.  1.
    -200003    1    4    4    0    0 -0.14605786296E+03  0.10103900414E+03  0.11475468330E+03  0.21356595475E+03  0.30000000000E+02 0.  1.
    -200000    1    3    3    0    0  0.23642160722E+03  0.11497228487E+03 -0.10879928193E+03  0.30191403809E+03  0.10100000000E+03 0. -1.
<mgrwt>
<rscale>  0 0.14239831E+04</rscale>
<asrwt>0</asrwt>
<pdfrwt beam="1">  1        2 0.79621195E-01 0.14239831E+04</pdfrwt>
<pdfrwt beam="2">  1       -2 0.12993463E+00 0.14239831E+04</pdfrwt>
<totfact> 0.25045581E+01</totfact>
</mgrwt>
</event>
<event>
 8    2  0.4480234E-052  0.1285123E+04  0.7818608E-02  0.9041447E-01
          2   -1    0    0  501    0  0.00000000000E+00  0.00000000000E+00  0.19256246608E+04  0.19256246608E+04  0.25500000000E-02 0.  1.
         -2   -1    0    0    0  501 -0.00000000000E+00 -0.00000000000E+00 -0.21441619775E+03  0.21441619776E+03  0.25500000000E-02 0. -1.
    -200001    2    1    2    0    0  0.14763687906E+03  0.21212995352E+02  0.65325206182E+03  0.90825865942E+03  0.61314671727E+03 0.  0.
   -5000001    2    3    3    0    0  0.13242295943E+03 -0.18126915017E+03  0.47271425421E+02  0.26123160102E+03  0.12495205771E+03 0.  0.
     200001    1    1    2    0    0 -0.14763687906E+03 -0.21212995352E+02  0.10579564012E+04  0.12317821991E+04  0.61300000000E+03 0.  1.
         13    1    4    4    0    0  0.11665898183E+03 -0.10820937451E+03  0.75194799046E+02  0.17599106722E+03  0.10566000000E+00 0.  1.
    -200003    1    4    4    0    0  0.15763977603E+02 -0.73059775656E+02 -0.27923373625E+02  0.85240533805E+02  0.30000000000E+02 0.  1.
    -200000    1    3    3    0    0  0.15213919627E+02  0.20248214552E+03  0.60598063640E+03  0.64702705839E+03  0.10100000000E+03 0.  1.
<mgrwt>
<rscale>  0 0.12851227E+04</rscale>
<asrwt>0</asrwt>
<pdfrwt beam="1">  1        2 0.27508925E+00 0.12851227E+04</pdfrwt>
<pdfrwt beam="2">  1       -2 0.30630884E-01 0.12851227E+04</pdfrwt>
<totfact> 0.84840289E+01</totfact>
</mgrwt>
</event>
<event>
 8    2  0.4480234E-052  0.1739304E+04  0.7818608E-02  0.8739260E-01
          2   -1    0    0  501    0  0.00000000000E+00  0.00000000000E+00  0.11583747767E+04  0.11583747767E+04  0.25500000000E-02 0.  1.
         -2   -1    0    0    0  501 -0.00000000000E+00 -0.00000000000E+00 -0.65289317477E+03  0.65289317477E+03  0.25500000000E-02 0. -1.
    -200001    2    1    2    0    0 -0.42546804446E+03 -0.43230538489E+03  0.13481807317E+03  0.87261388623E+03  0.61267289717E+03 0.  0.
   -5000001    2    3    3    0    0 -0.19077547575E+03 -0.18735020488E+03  0.31502179959E+03  0.47542624161E+03  0.23515100592E+03 0.  0.
     200001    1    1    2    0    0  0.42546804446E+03  0.43230538489E+03  0.37066352876E+03  0.93865406525E+03  0.61300000000E+03 0. -1.
         13    1    4    4    0    0  0.44217039361E+02 -0.84732555181E+02  0.11022033245E+03  0.14588792043E+03  0.10566000000E+00 0.  1.
    -200003    1    4    4    0    0 -0.23499251511E+03 -0.10261764970E+03  0.20480146714E+03  0.32953832119E+03  0.30000000000E+02 0.  1.
    -200000    1    3    3    0    0 -0.23469256870E+03 -0.24495518001E+03 -0.18020372642E+03  0.39718764461E+03  0.10100000000E+03 0. -1.
<mgrwt>
<rscale>  0 0.17393044E+04</rscale>
<asrwt>0</asrwt>
<pdfrwt beam="1">  1        2 0.16548211E+00 0.17393044E+04</pdfrwt>
<pdfrwt beam="2">  1       -2 0.93270454E-01 0.17393044E+04</pdfrwt>
<totfact> 0.20903965E+01</totfact>
</mgrwt>
</event>
<event>
 8    2  0.4480234E-052  0.1323015E+04  0.7818608E-02  0.9011511E-01
          2   -1    0    0  501    0  0.00000000000E+00  0.00000000000E+00  0.18097739506E+04  0.18097739506E+04  0.25500000000E-02 0.  1.
         -2   -1    0    0    0  501 -0.00000000000E+00 -0.00000000000E+00 -0.24179379849E+03  0.24179379850E+03  0.25500000000E-02 0. -1.
    -200001    2    1    2    0    0 -0.72778893029E+02 -0.17027627164E+03  0.10403823916E+04  0.12218574546E+04  0.61339167145E+03 0.  0.
   -5000001    2    3    3    0    0  0.12388717365E+03 -0.27147408385E+03  0.36325061007E+03  0.50239446837E+03  0.17720887712E+03 0.  0.
     200001    1    1    2    0    0  0.72778893029E+02  0.17027627164E+03  0.52759776053E+03  0.82971029455E+03  0.61300000000E+03 0. -1.
         13    1    4    4    0    0  0.54618277281E+00 -0.18383652578E+02 -0.19169557426E+02  0.26565769209E+02  0.10566000000E+00 0.  1.
    -200003    1    4    4    0    0  0.12334099088E+03 -0.25309043127E+03  0.38242016750E+03  0.47582869916E+03  0.30000000000E+02 0.  1.
    -200000    1    3    3    0    0 -0.19666606668E+03  0.10119781221E+03  0.67713178151E+03  0.71946298620E+03  0.10100000000E+03 0.  1.
<mgrwt>
<rscale>  0 0.13230149E+04</rscale>
<asrwt>0</asrwt>
<pdfrwt beam="1">  1        2 0.25853915E+00 0.13230149E+04</pdfrwt>
<pdfrwt beam="2">  1       -2 0.34541970E-01 0.13230149E+04</pdfrwt>
<totfact> 0.77359466E+01</totfact>
</mgrwt>
</event>
<event>
 8    2  0.4480234E-052  0.1401802E+04  0.7818608E-02  0.8952516E-01
          2   -1    0    0  501    0  0.00000000000E+00  0.00000000000E+00  0.40442111477E+04  0.40442111477E+04  0.25500000000E-02 0.  1.
         -2   -1    0    0    0  501 -0.00000000000E+00 -0.00000000000E+00 -0.12147286693E+03  0.12147286696E+03  0.25500000000E-02 0. -1.
    -200001    2    1    2    0    0  0.24233215855E+03 -0.22755349912E+03  0.17879762230E+04  0.19199138765E+04  0.61538999768E+03 0.  0.
   -5000001    2    3    3    0    0  0.17740392293E+03 -0.33805236493E+03  0.16154936743E+04  0.16824756641E+04  0.27414046617E+03 0.  0.
     200001    1    1    2    0    0 -0.24233215855E+03  0.22755349912E+03  0.21347620578E+04  0.22457701382E+04  0.61300000000E+03 0. -1.
         13    1    4    4    0    0 -0.27787816238E+02 -0.22887325655E+03  0.67778071453E+03  0.71592027381E+03  0.10566000000E+00 0.  1.
    -200003    1    4    4    0    0  0.20519173917E+03 -0.10917910837E+03  0.93771295979E+03  0.96655539029E+03  0.30000000000E+02 0.  1.
    -200000    1    3    3    0    0  0.64928235619E+02  0.11049886580E+03  0.17248254867E+03  0.23743821242E+03  0.10100000000E+03 0. -1.
<mgrwt>
<rscale>  0 0.14018016E+04</rscale>
<asrwt>0</asrwt>
<pdfrwt beam="1">  1        2 0.57774437E+00 0.14018016E+04</pdfrwt>
<pdfrwt beam="2">  1       -2 0.17353269E-01 0.14018016E+04</pdfrwt>
<totfact> 0.14482123E+01</totfact>
</mgrwt>
</event>
<event>
 8    2  0.4480234E-052  0.1231564E+04  0.7818608E-02  0.9085668E-01
          2   -1    0    0  501    0  0.00000000000E+00  0.00000000000E+00  0.36805299754E+03  0.36805299755E+03  0.25500000000E-02 0.  1.
         -2   -1    0    0    0  501 -0.00000000000E+00 -0.00000000000E+00 -0.10302530587E+04  0.10302530587E+04  0.25500000000E-02 0. -1.
    -200001    2    1    2    0    0 -0.16671810530E+02  0.24359941934E+02 -0.34105711106E+03  0.70564946712E+03  0.61704931846E+03 0.  0.
   -5000001    2    3    3    0    0  0.32508130975E+02 -0.54865987547E+02  0.15711682878E+03  0.18885774032E+03  0.83153430623E+02 0.  0.
     200001    1    1    2    0    0  0.16671810530E+02 -0.24359941934E+02 -0.32114295007E+03  0.69265658909E+03  0.61300000000E+03 0.  1.
         13    1    4    4    0    0 -0.95653316663E+01  0.15045668353E+02  0.28407853772E+02  0.33539305688E+02  0.10566000000E+00 0.  1.
    -200003    1    4    4    0    0  0.42073462641E+02 -0.69911655899E+02  0.12870897501E+03  0.15531843464E+03  0.30000000000E+02 0.  1.
    -200000    1    3    3    0    0 -0.49179941505E+02  0.79225929480E+02 -0.49817393984E+03  0.51679172680E+03  0.10100000000E+03 0. -1.
<mgrwt>
<rscale>  0 0.12315644E+04</rscale>
<asrwt>0</asrwt>
<pdfrwt beam="1">  1        2 0.52579000E-01 0.12315644E+04</pdfrwt>
<pdfrwt beam="2">  1       -2 0.14717901E+00 0.12315644E+04</pdfrwt>
<totfact> 0.29459972E+01</totfact>
</mgrwt>
</event>
<event>
 8    2  0.4480234E-052  0.1632142E+04  0.7818608E-02  0.8801041E-01
         -2   -1    0    0    0  501 -0.00000000000E+00  0.00000000000E+00  0.24312144377E+03  0.24312144379E+03  0.25500000000E-02 0. -1.
          2   -1    0    0  501    0  0.00000000000E+00 -0.00000000000E+00 -0.27392576859E+04  0.27392576859E+04  0.25500000000E-02 0.  1.
    -200001    2    1    2    0    0 -0.42562527291E+03  0.26157932729E+03 -0.16171804837E+04  0.18000454870E+04  0.61262584085E+03 0.  0.
   -5000001    2    3    3    0    0 -0.48320045296E+03  0.26877196322E+03 -0.80289682127E+03  0.97747298665E+03  0.71337844560E+02 0.  0.
     200001    1    1    2    0    0  0.42562527291E+03 -0.26157932729E+03 -0.87895575834E+03  0.11823336426E+04  0.61300000000E+03 0.  1.
         13    1    4    4    0    0 -0.95907599934E+02  0.29302716841E+02 -0.12429174024E+03  0.15970399117E+03  0.10566000000E+00 0.  1.
    -200003    1    4    4    0    0 -0.38729285303E+03  0.23946924638E+03 -0.67860508103E+03  0.81776899548E+03  0.30000000000E+02 0.  1.
    -200000    1    3    3    0    0  0.57575180052E+02 -0.71926359340E+01 -0.81428366248E+03  0.82257250036E+03  0.10100000000E+03 0.  1.
<mgrwt>
<rscale>  0 0.16321425E+04</rscale>
<asrwt>0</asrwt>
<pdfrwt beam="1">  1        2 0.39132251E+00 0.16321425E+04</pdfrwt>
<pdfrwt beam="2">  1       -2 0.34731636E-01 0.16321425E+04</pdfrwt>
<totfact> 0.24516476E+01</totfact>
</mgrwt>
</event>
<event>
 8    2  0.4480234E-052  0.1720812E+04  0.7818608E-02  0.8749583E-01
         -2   -1    0    0    0  501 -0.00000000000E+00  0.00000000000E+00  0.69141023513E+03  0.69141023514E+03  0.25500000000E-02 0. -1.
          2   -1    0    0  501    0  0.00000000000E+00 -0.00000000000E+00 -0.10707074376E+04  0.10707074376E+04  0.25500000000E-02 0.  1.
    -200001    2    1    2    0    0  0.19172979428E+03  0.51505447046E+03  0.68052424991E+02  0.82513735772E+03  0.61170181053E+03 0.  0.
   -5000001    2    3    3    0    0  0.16221287406E+03  0.52725056204E+03 -0.93180154096E+02  0.63222043833E+03  0.29447235837E+03 0.  0.
     200001    1    1    2    0    0 -0.19172979428E+03 -0.51505447046E+03 -0.44734962748E+03  0.93698031504E+03  0.61300000000E+03 0.  1.
         13    1    4    4    0    0  0.23041342520E+03  0.49021271160E+03 -0.72590365353E+02  0.54650546331E+03  0.10566000000E+00 0.  1.
    -200003    1    4    4    0    0 -0.68200551145E+02  0.37037850440E+02 -0.20589788743E+02  0.85714975017E+02  0.30000000000E+02 0.  1.
    -200000    1    3    3    0    0  0.29516920225E+02 -0.12196091572E+02  0.16123257909E+03  0.19291691939E+03  0.10100000000E+03 0. -1.
<mgrwt>
<rscale>  0 0.17208115E+04</rscale>
<asrwt>0</asrwt>
<pdfrwt beam="1">  1        2 0.15295820E+00 0.17208115E+04</pdfrwt>
<pdfrwt beam="2">  1       -2 0.98772892E-01 0.17208115E+04</pdfrwt>
<totfact> 0.20610915E+01</totfact>
</mgrwt>
</event>
<event>
 8    2  0.4480234E-052  0.1524363E+04  0.7818608E-02  0.8868411E-01
         -2   -1    0    0    0  501 -0.00000000000E+00  0.00000000000E+00  0.15660262673E+03  0.15660262675E+03  0.25500000000E-02 0. -1.
          2   -1    0    0  501    0  0.00000000000E+00 -0.00000000000E+00 -0.37095214515E+04  0.37095214515E+04  0.25500000000E-02 0.  1.
    -200001    2    1    2    0    0  0.20003207976E+03  0.33742056645E+03 -0.12030044566E+04  0.14060972473E+04  0.61320818202E+03 0.  0.
   -5000001    2    3    3    0    0 -0.38372102512E+01 -0.13626268772E+03 -0.13028751822E+03  0.21158431613E+03  0.95973127386E+02 0.  0.
     200001    1    1    2    0    0 -0.20003207976E+03 -0.33742056645E+03 -0.23499143682E+04  0.24600268310E+04  0.61300000000E+03 0.  1.
         13    1    4    4    0    0 -0.26951842578E+02 -0.23600085068E+02 -0.82272893566E+00  0.35833697556E+02  0.10566000000E+00 0.  1.
    -200003    1    4    4    0    0  0.23114632327E+02 -0.11266260266E+03 -0.12946478929E+03  0.17575061858E+03  0.30000000000E+02 0.  1.
    -200000    1    3    3    0    0  0.20386929001E+03  0.47368325417E+03 -0.10727169384E+04  0.11945129311E+04  0.10100000000E+03 0.  1.
<mgrwt>
<rscale>  0 0.15243632E+04</rscale>
<asrwt>0</asrwt>
<pdfrwt beam="1">  1        2 0.52993158E+00 0.15243632E+04</pdfrwt>
<pdfrwt beam="2">  1       -2 0.22371806E-01 0.15243632E+04</pdfrwt>
<totfact> 0.15228340E+01</totfact>
</mgrwt>
</event>
<event>
 8    2  0.4480234E-052  0.1574793E+04  0.7818608E-02  0.8836185E-01
         -2   -1    0    0    0  501 -0.00000000000E+00  0.00000000000E+00  0.20696430398E+03  0.20696430399E+03  0.25500000000E-02 0. -1.
          2   -1    0    0  501    0  0.00000000000E+00 -0.00000000000E+00 -0.29956545154E+04  0.29956545154E+04  0.25500000000E-02 0.  1.
    -200001    2    1    2    0    0 -0.74316335985E+02  0.58628719781E+02 -0.23807656637E+04  0.24602363834E+04  0.61299076042E+03 0.  0.
   -5000001    2    3    3    0    0  0.20919133436E+03 -0.10021754486E+03 -0.14273378151E+04  0.14478953355E+04  0.72822341034E+02 0.  0.
     200001    1    1    2    0    0  0.74316335985E+02 -0.58628719781E+02 -0.40792454772E+03  0.74238243595E+03  0.61300000000E+03 0. -1.
         13    1    4    4    0    0  0.20754458451E+02 -0.34407670994E+02 -0.29260655485E+03  0.29535274246E+03  0.10566000000E+00 0.  1.
    -200003    1    4    4    0    0  0.18843687591E+03 -0.65809873865E+02 -0.11347312603E+04  0.11525425930E+04  0.30000000000E+02 0.  1.
    -200000    1    3    3    0    0 -0.28350767035E+03  0.15884626464E+03 -0.95342784853E+03  0.10123410479E+04  0.10100000000E+03 0. -1.
<mgrwt>
<rscale>  0 0.15747934E+04</rscale>
<asrwt>0</asrwt>
<pdfrwt beam="1">  1        2 0.42795062E+00 0.15747934E+04</pdfrwt>
<pdfrwt beam="2">  1       -2 0.29566331E-01 0.15747934E+04</pdfrwt>
<totfact> 0.24152261E+01</totfact>
</mgrwt>
</event>
<event>
 8    2  0.4480234E-052  0.1605769E+04  0.7818608E-02  0.8817011E-01
          2   -1    0    0  501    0  0.00000000000E+00  0.00000000000E+00  0.16161741451E+04  0.16161741451E+04  0.25500000000E-02 0.  1.
         -2   -1    0    0    0  501 -0.00000000000E+00 -0.00000000000E+00 -0.39885793558E+03  0.39885793559E+03  0.25500000000E-02 0. -1.
    -200001    2    1    2    0    0 -0.49311604279E+03  0.51690609215E+02  0.41716869589E+03  0.89171538699E+03  0.61261020219E+03 0.  0.
   -5000001    2    3    3    0    0 -0.60331812304E+03  0.60755772905E+00  0.25830818909E+03  0.66768048511E+03  0.12280465355E+03 0.  0.
     200001    1    1    2    0    0  0.49311604279E+03 -0.51690609215E+02  0.80014751358E+03  0.11233166936E+04  0.61300000000E+03 0. -1.
         13    1    4    4    0    0 -0.28984852379E+03 -0.17704533160E+02  0.64505257860E+02  0.29746690016E+03  0.10566000000E+00 0.  1.
    -200003    1    4    4    0    0 -0.31346959925E+03  0.18312090889E+02  0.19380293123E+03  0.37021358495E+03  0.30000000000E+02 0.  1.
    -200000    1    3    3    0    0  0.11020208025E+03  0.51083051486E+02  0.15886050681E+03  0.22403490188E+03  0.10100000000E+03 0.  1.
<mgrwt>
<rscale>  0 0.16057695E+04</rscale>
<asrwt>0</asrwt>
<pdfrwt beam="1">  1        2 0.23088202E+00 0.16057695E+04</pdfrwt>
<pdfrwt beam="2">  1       -2 0.56979705E-01 0.16057695E+04</pdfrwt>
<totfact> 0.35187905E+01</totfact>
</mgrwt>
</event>
<event>
 8    2  0.4480234E-052  0.2033172E+04  0.7818608E-02  0.8591267E-01
         -2   -1    0    0    0  501 -0.00000000000E+00  0.00000000000E+00  0.63312182216E+03  0.63312182216E+03  0.25500000000E-02 0. -1.
          2   -1    0    0  501    0  0.00000000000E+00 -0.00000000000E+00 -0.16323030575E+04  0.16323030575E+04  0.25500000000E-02 0.  1.
    -200001    2    1    2    0    0 -0.45798991088E+02 -0.74178595745E+03 -0.86121320339E+03  0.12922095221E+04  0.61300351804E+03 0.  0.
   -5000001    2    3    3    0    0 -0.23763248166E+02 -0.34977646078E+02 -0.46892792754E+03  0.47725412419E+03  0.78038260707E+02 0.  0.
     200001    1    1    2    0    0  0.45798991088E+02  0.74178595745E+03 -0.13796803193E+03  0.97321535751E+03  0.61300000000E+03 0. -1.
         13    1    4    4    0    0 -0.63501661621E+01 -0.46478044102E+02 -0.17950786237E+03  0.18553602618E+03  0.10566000000E+00 0.  1.
    -200003    1    4    4    0    0 -0.17413082004E+02  0.11500398024E+02 -0.28942006518E+03  0.29171809801E+03  0.30000000000E+02 0.  1.
    -200000    1    3    3    0    0 -0.22035742922E+02 -0.70680831137E+03 -0.39228527585E+03  0.81495539795E+03  0.10100000000E+03 0.  1.
<mgrwt>
<rscale>  0 0.20331716E+04</rscale>
<asrwt>0</asrwt>
<pdfrwt beam="1">  1        2 0.23318615E+00 0.20331716E+04</pdfrwt>
<pdfrwt beam="2">  1       -2 0.90445975E-01 0.20331716E+04</pdfrwt>
<totfact> 0.12097692E+01</totfact>
</mgrwt>
</event>
<event>
 8    2  0.4480234E-052  0.1706842E+04  0.7818608E-02  0.8757472E-01
         -2   -1    0    0    0  501 -0.00000000000E+00  0.00000000000E+00  0.68248930984E+03  0.68248930985E+03  0.25500000000E-02 0. -1.
          2   -1    0    0  501    0  0.00000000000E+00 -0.00000000000E+00 -0.10671629279E+04  0.10671629279E+04  0.25500000000E-02 0.  1.
    -200001    2    1    2    0    0 -0.42861703491E+03 -0.22422888357E+03  0.16096161302E+03  0.79703586154E+03  0.61267150160E+03 0.  0.
   -5000001    2    3    3    0    0 -0.26453068849E+03 -0.32603593497E+03 -0.10710983818E+03  0.45156182816E+03  0.12712061661E+03 0.  0.
     200001    1    1    2    0    0  0.42861703491E+03  0.22422888357E+03 -0.54563523110E+03  0.95261637623E+03  0.61300000000E+03 0. -1.
         13    1    4    4    0    0 -0.53469444237E+02 -0.68485792964E+02 -0.76613862823E+02  0.11584032306E+03  0.10566000000E+00 0.  1.
    -200003    1    4    4    0    0 -0.21106124425E+03 -0.25755014201E+03 -0.30495975353E+02  0.33572150510E+03  0.30000000000E+02 0.  1.
    -200000    1    3    3    0    0 -0.16408634642E+03  0.10180705140E+03  0.26807145120E+03  0.34547403339E+03  0.10100000000E+03 0. -1.
<mgrwt>
<rscale>  0 0.17068419E+04</rscale>
<asrwt>0</asrwt>
<pdfrwt beam="1">  1        2 0.15245185E+00 0.17068419E+04</pdfrwt>
<pdfrwt beam="2">  1       -2 0.97498474E-01 0.17068419E+04</pdfrwt>
<totfact> 0.21378160E+01</totfact>
</mgrwt>
</event>
<event>
 8    2  0.4480234E-052  0.1365508E+04  0.7818608E-02  0.8979171E-01
          2   -1    0    0  501    0  0.00000000000E+00  0.00000000000E+00  0.86884328127E+03  0.86884328128E+03  0.25500000000E-02 0.  1.
         -2   -1    0    0    0  501 -0.00000000000E+00 -0.00000000000E+00 -0.53652110241E+03  0.53652110241E+03  0.25500000000E-02 0. -1.
    -200001    2    1    2    0    0  0.17127981493E+03 -0.18758954101E+03  0.33390254752E+03  0.74181475596E+03  0.61177741869E+03 0.  0.
   -5000001    2    3    3    0    0 -0.44202742339E+02 -0.25960056739E+03  0.40037758185E+03  0.48444682751E+03  0.70994250526E+02 0.  0.
     200001    1    1    2    0    0 -0.17127981493E+03  0.18758954101E+03 -0.15803686501E+01  0.66354962773E+03  0.61300000000E+03 0. -1.
         13    1    4    4    0    0 -0.26430364263E+02 -0.17537125685E+03  0.30276799790E+03  0.35088760822E+03  0.10566000000E+00 0.  1.
    -200003    1    4    4    0    0 -0.17772378076E+02 -0.84229310541E+02  0.97609583950E+02  0.13355921928E+03  0.30000000000E+02 0. -1.
    -200000    1    3    3    0    0  0.21548255726E+03  0.72011026383E+02 -0.66475034337E+02  0.25736792845E+03  0.10100000000E+03 0. -1.
<mgrwt>
<rscale>  0 0.13655076E+04</rscale>
<asrwt>0</asrwt>
<pdfrwt beam="1">  1        2 0.12412047E+00 0.13655076E+04</pdfrwt>
<pdfrwt beam="2">  1       -2 0.76645872E-01 0.13655076E+04</pdfrwt>
<totfact> 0.50706269E+01</totfact>
</mgrwt>
</event>
<event>
 8    2  0.4480234E-052  0.1593564E+04  0.7818608E-02  0.8824511E-01
         -2   -1    0    0    0  501 -0.00000000000E+00  0.00000000000E+00  0.51128414844E+03  0.51128414844E+03  0.25500000000E-02 0. -1.
          2   -1    0    0  501    0  0.00000000000E+00 -0.00000000000E+00 -0.12417006901E+04  0.12417006901E+04  0.25500000000E-02 0.  1.
    -200001    2    1    2    0    0  0.48370139528E+03  0.15982762919E+02 -0.19304968424E+03  0.80495813640E+03  0.61356901182E+03 0.  0.
   -5000001    2    3    3    0    0  0.91043754317E+02  0.83255622886E+02  0.18849412500E+03  0.24417088702E+03  0.94174959358E+02 0.  0.
     200001    1    1    2    0    0 -0.48370139528E+03 -0.15982762919E+02 -0.53736685739E+03  0.94802670212E+03  0.61300000000E+03 0.  1.
         13    1    4    4    0    0  0.13632373402E+02 -0.16067227474E+02  0.91122252115E+01  0.22957378239E+02  0.10566000000E+00 0.  1.
    -200003    1    4    4    0    0  0.77411380915E+02  0.99322850360E+02  0.17938189978E+03  0.22121350878E+03  0.30000000000E+02 0.  1.
    -200000    1    3    3    0    0  0.39265764096E+03 -0.67272859967E+02 -0.38154380923E+03  0.56078724937E+03  0.10100000000E+03 0.  1.
<mgrwt>
<rscale>  0 0.15935644E+04</rscale>
<asrwt>0</asrwt>
<pdfrwt beam="1">  1        2 0.17738581E+00 0.15935644E+04</pdfrwt>
<pdfrwt beam="2">  1       -2 0.73040593E-01 0.15935644E+04</pdfrwt>
<totfact> 0.32947763E+01</totfact>
</mgrwt>
</event>
<event>
 8    2  0.4480234E-052  0.1306587E+04  0.7818608E-02  0.9024358E-01
         -2   -1    0    0    0  501 -0.00000000000E+00  0.00000000000E+00  0.94571609023E+03  0.94571609023E+03  0.25500000000E-02 0. -1.
          2   -1    0    0  501    0  0.00000000000E+00 -0.00000000000E+00 -0.45128985203E+03  0.45128985204E+03  0.25500000000E-02 0.  1.
    -200001    2    1    2    0    0 -0.12216977386E+03 -0.18888715874E+03  0.23010584309E+03  0.69256426005E+03  0.61326400750E+03 0.  0.
   -5000001    2    3    3    0    0 -0.16432115739E+03  0.14683696116E+03 -0.19978704451E+02  0.25986262528E+03  0.13626041046E+03 0.  0.
     200001    1    1    2    0    0  0.12216977386E+03  0.18888715874E+03  0.26432039510E+03  0.70444168222E+03  0.61300000000E+03 0.  1.
         13    1    4    4    0    0 -0.14033260583E+03  0.79880295761E+02 -0.60799036594E+02  0.17254169329E+03  0.10566000000E+00 0.  1.
    -200003    1    4    4    0    0 -0.23988551564E+02  0.66956665395E+02  0.40820332144E+02  0.87320931988E+02  0.30000000000E+02 0.  1.
    -200000    1    3    3    0    0  0.42151383536E+02 -0.33572411989E+03  0.25008454754E+03  0.43270163477E+03  0.10100000000E+03 0. -1.
<mgrwt>
<rscale>  0 0.13065865E+04</rscale>
<asrwt>0</asrwt>
<pdfrwt beam="1">  1        2 0.64469978E-01 0.13065865E+04</pdfrwt>
<pdfrwt beam="2">  1       -2 0.13510230E+00 0.13065865E+04</pdfrwt>
<totfact> 0.29139339E+01</totfact>
</mgrwt>
</event>
<event>
 8    2  0.4480234E-052  0.1756491E+04  0.7818608E-02  0.8729786E-01
          2   -1    0    0  501    0  0.00000000000E+00  0.00000000000E+00  0.12380885545E+04  0.12380885545E+04  0.25500000000E-02 0.  1.
         -2   -1    0    0    0  501 -0.00000000000E+00 -0.00000000000E+00 -0.62298863257E+03  0.62298863258E+03  0.25500000000E-02 0. -1.
    -200001    2    1    2    0    0 -0.23747908755E+03 -0.14754439763E+03 -0.28963139942E+03  0.73303754676E+03  0.61261083172E+03 0.  0.
   -5000001    2    3    3    0    0  0.19180787711E+03 -0.60016117277E+01 -0.95989845845E+02  0.23102190006E+03  0.85620013649E+02 0.  0.
     200001    1    1    2    0    0  0.23747908755E+03  0.14754439763E+03  0.90473132131E+03  0.11280396403E+04  0.61300000000E+03 0.  1.
         13    1    4    4    0    0  0.59856727322E+02  0.17521207822E+02  0.18385607182E+01  0.62395608810E+02  0.10566000000E+00 0.  1.
    -200003    1    4    4    0    0  0.13195114979E+03 -0.23522819549E+02 -0.97828406564E+02  0.16862629125E+03  0.30000000000E+02 0.  1.
    -200000    1    3    3    0    0 -0.42928696465E+03 -0.14154278590E+03 -0.19364155357E+03  0.50201564670E+03  0.10100000000E+03 0. -1.
<mgrwt>
<rscale>  0 0.17564909E+04</rscale>
<asrwt>0</asrwt>
<pdfrwt beam="1">  1        2 0.17686979E+00 0.17564909E+04</pdfrwt>
<pdfrwt beam="2">  1       -2 0.88998377E-01 0.17564909E+04</pdfrwt>
<totfact> 0.20952878E+01</totfact>
</mgrwt>
</event>
<event>
 8    2  0.4480234E-052  0.2056389E+04  0.7818608E-02  0.8580701E-01
         -2   -1    0    0    0  501 -0.00000000000E+00  0.00000000000E+00  0.60865316054E+03  0.60865316054E+03  0.25500000000E-02 0. -1.
          2   -1    0    0  501    0  0.00000000000E+00 -0.00000000000E+00 -0.17369241355E+04  0.17369241355E+04  0.25500000000E-02 0.  1.
    -200001    2    1    2    0    0  0.11602443517E+03  0.49628440463E+03 -0.13050786713E+04  0.15290052899E+04  0.61226379794E+03 0.  0.
   -5000001    2    3    3    0    0  0.22032117307E+02 -0.38584185807E+02 -0.36384961095E+03  0.43766111457E+03  0.23913711179E+03 0.  0.
     200001    1    1    2    0    0 -0.11602443517E+03 -0.49628440463E+03  0.17680769633E+03  0.81657200620E+03  0.61300000000E+03 0. -1.
         13    1    4    4    0    0  0.12619189276E+02 -0.49140307165E+02 -0.39132011620E+03  0.39459530945E+03  0.10566000000E+00 0.  1.
    -200003    1    4    4    0    0  0.94129280306E+01  0.10556121359E+02  0.27470505258E+02  0.43065805128E+02  0.30000000000E+02 0.  1.
    -200000    1    3    3    0    0  0.93992317864E+02  0.53486859043E+03 -0.94122906037E+03  0.10913441753E+04  0.10100000000E+03 0.  1.
<mgrwt>
<rscale>  0 0.20563894E+04</rscale>
<asrwt>0</asrwt>
<pdfrwt beam="1">  1        2 0.24813202E+00 0.20563894E+04</pdfrwt>
<pdfrwt beam="2">  1       -2 0.86950452E-01 0.20563894E+04</pdfrwt>
<totfact> 0.11659488E+01</totfact>
</mgrwt>
</event>
<event>
 8    2  0.4480234E-052  0.2190712E+04  0.7818608E-02  0.8522304E-01
         -2   -1    0    0    0  501 -0.00000000000E+00  0.00000000000E+00  0.67585107096E+03  0.67585107097E+03  0.25500000000E-02 0. -1.
          2   -1    0    0  501    0  0.00000000000E+00 -0.00000000000E+00 -0.17752495023E+04  0.17752495023E+04  0.25500000000E-02 0.  1.
    -200001    2    1    2    0    0 -0.51380951258E+03 -0.27265485232E+02 -0.13868446072E+04  0.16007254055E+04  0.61175177740E+03 0.  0.
   -5000001    2    3    3    0    0  0.62511856285E+02  0.35967814538E+02 -0.17178874652E+03  0.25064892056E+03  0.16766660994E+03 0.  0.
     200001    1    1    2    0    0  0.51380951258E+03  0.27265485232E+02  0.28744617594E+03  0.85037516777E+03  0.61300000000E+03 0. -1.
         13    1    4    4    0    0 -0.42454384131E+02  0.40986181193E+02 -0.11070806497E+03  0.12545329248E+03  0.10566000000E+00 0.  1.
    -200003    1    4    4    0    0  0.10496624042E+03 -0.50183666547E+01 -0.61080681545E+02  0.12519562808E+03  0.30000000000E+02 0.  1.
    -200000    1    3    3    0    0 -0.57632136886E+03 -0.63233299770E+02 -0.12150558607E+04  0.13500764849E+04  0.10100000000E+03 0. -1.
<mgrwt>
<rscale>  0 0.21907116E+04</rscale>
<asrwt>0</asrwt>
<pdfrwt beam="1">  1        2 0.25360707E+00 0.21907116E+04</pdfrwt>
<pdfrwt beam="2">  1       -2 0.96550154E-01 0.21907116E+04</pdfrwt>
<totfact> 0.86456356E+00</totfact>
</mgrwt>
</event>
<event>
 8    2  0.4480234E-052  0.1696851E+04  0.7818608E-02  0.8763163E-01
         -2   -1    0    0    0  501 -0.00000000000E+00  0.00000000000E+00  0.43182403409E+03  0.43182403410E+03  0.25500000000E-02 0. -1.
          2   -1    0    0  501    0  0.00000000000E+00 -0.00000000000E+00 -0.16669417266E+04  0.16669417266E+04  0.25500000000E-02 0.  1.
    -200001    2    1    2    0    0 -0.51101278723E+03 -0.88803416739E+02 -0.95643271936E+03  0.12487925671E+04  0.61294307526E+03 0.  0.
   -5000001    2    3    3    0    0 -0.12273502620E+03  0.21361047822E+03 -0.53060626713E+03  0.59020092506E+03  0.78107606303E+02 0.  0.
     200001    1    1    2    0    0  0.51101278723E+03  0.88803416739E+02 -0.27868497315E+03  0.84997319358E+03  0.61300000000E+03 0. -1.
         13    1    4    4    0    0 -0.11221505589E+03  0.17172615532E+03 -0.40365878673E+03  0.45279412370E+03  0.10566000000E+00 0.  1.
    -200003    1    4    4    0    0 -0.10519970312E+02  0.41884322901E+02 -0.12694748040E+03  0.13740680136E+03  0.30000000000E+02 0. -1.
    -200000    1    3    3    0    0 -0.38827776103E+03 -0.30241389496E+03 -0.42582645223E+03  0.65859164207E+03  0.10100000000E+03 0. -1.
<mgrwt>
<rscale>  0 0.16968506E+04</rscale>
<asrwt>0</asrwt>
<pdfrwt beam="1">  1        2 0.23813453E+00 0.16968506E+04</pdfrwt>
<pdfrwt beam="2">  1       -2 0.61689149E-01 0.16968506E+04</pdfrwt>
<totfact> 0.27803236E+01</totfact>
</mgrwt>
</event>
<event>
 8    2  0.4480234E-052  0.1555882E+04  0.7818608E-02  0.8848119E-01
         -2   -1    0    0    0  501 -0.00000000000E+00  0.00000000000E+00  0.13955941670E+04  0.13955941670E+04  0.25500000000E-02 0. -1.
          2   -1    0    0  501    0  0.00000000000E+00 -0.00000000000E+00 -0.43364474539E+03  0.43364474540E+03  0.25500000000E-02 0.  1.
    -200001    2    1    2    0    0 -0.39306944381E+03  0.14481944692E+03  0.20749374614E+03  0.77072645329E+03  0.61277185906E+03 0.  0.
   -5000001    2    3    3    0    0 -0.36099200680E+03  0.33535407676E+03  0.49449304783E+02  0.50144694687E+03  0.78906406628E+02 0.  0.
     200001    1    1    2    0    0  0.39306944381E+03 -0.14481944692E+03  0.75445567551E+03  0.10585124591E+04  0.61300000000E+03 0. -1.
         13    1    4    4    0    0 -0.17737494757E+03  0.16988090098E+03  0.57807674332E+02  0.25231553841E+03  0.10566000000E+00 0.  1.
    -200003    1    4    4    0    0 -0.18361705923E+03  0.16547317578E+03 -0.83583695496E+01  0.24913140846E+03  0.30000000000E+02 0. -1.
    -200000    1    3    3    0    0 -0.32077437004E+02 -0.19053462984E+03  0.15804444135E+03  0.26927950642E+03  0.10100000000E+03 0.  1.
<mgrwt>
<rscale>  0 0.15558818E+04</rscale>
<asrwt>0</asrwt>
<pdfrwt beam="1">  1        2 0.61949249E-01 0.15558818E+04</pdfrwt>
<pdfrwt beam="2">  1       -2 0.19937060E+00 0.15558818E+04</pdfrwt>
<totfact> 0.10213365E+01</totfact>
</mgrwt>
</event>
<event>
 8    2  0.4480234E-052  0.1768736E+04  0.7818608E-02  0.8723104E-01
         -2   -1    0    0    0  501 -0.00000000000E+00  0.00000000000E+00  0.49412490301E+03  0.49412490302E+03  0.25500000000E-02 0. -1.
          2   -1    0    0  501    0  0.00000000000E+00 -0.00000000000E+00 -0.15828114289E+04  0.15828114289E+04  0.25500000000E-02 0.  1.
    -200001    2    1    2    0    0 -0.24058198509E+03  0.22880349531E+03 -0.11832322635E+04  0.13734175848E+04  0.61319372290E+03 0.  0.
   -5000001    2    3    3    0    0  0.18497632839E+03  0.13332790252E+03 -0.33402269192E+03  0.41343145809E+03  0.85801166455E+02 0.  0.
     200001    1    1    2    0    0  0.24058198509E+03 -0.22880349531E+03  0.94545737655E+02  0.70351874710E+03  0.61300000000E+03 0. -1.
         13    1    4    4    0    0  0.22708446178E+02  0.57209414078E+02 -0.94360481799E+02  0.11266100601E+03  0.10566000000E+00 0.  1.
    -200003    1    4    4    0    0  0.16226788221E+03  0.76118488439E+02 -0.23966221012E+03  0.30077045207E+03  0.30000000000E+02 0.  1.
    -200000    1    3    3    0    0 -0.42555831348E+03  0.95475592793E+02 -0.84920957163E+03  0.95998612674E+03  0.10100000000E+03 0.  1.
<mgrwt>
<rscale>  0 0.17687358E+04</rscale>
<asrwt>0</asrwt>
<pdfrwt beam="1">  1        2 0.22611592E+00 0.17687358E+04</pdfrwt>
<pdfrwt beam="2">  1       -2 0.70589273E-01 0.17687358E+04</pdfrwt>
<totfact> 0.22887734E+01</totfact>
</mgrwt>
</event>
<event>
 8    2  0.4480234E-052  0.1341461E+04  0.7818608E-02  0.8997318E-01
          2   -1    0    0  501    0  0.00000000000E+00  0.00000000000E+00  0.12207076220E+04  0.12207076220E+04  0.25500000000E-02 0.  1.
         -2   -1    0    0    0  501 -0.00000000000E+00 -0.00000000000E+00 -0.36853966180E+03  0.36853966181E+03  0.25500000000E-02 0. -1.
    -200001    2    1    2    0    0  0.22718248808E+03 -0.18572176853E+02  0.24907398860E+03  0.69961356862E+03  0.61275156871E+03 0.  0.
   -5000001    2    3    3    0    0  0.20009101468E+03  0.22669216082E+03  0.27395178986E+03  0.43182923700E+03  0.14142544617E+03 0.  0.
     200001    1    1    2    0    0 -0.22718248808E+03  0.18572176853E+02  0.60309397164E+03  0.88963371523E+03  0.61300000000E+03 0.  1.
         13    1    4    4    0    0  0.80675284381E+02  0.60647926711E+01  0.59460202763E+02  0.10040323748E+03  0.10566000000E+00 0.  1.
    -200003    1    4    4    0    0  0.11941573030E+03  0.22062736815E+03  0.21449158710E+03  0.33142599952E+03  0.30000000000E+02 0. -1.
    -200000    1    3    3    0    0  0.27091473400E+02 -0.24526433768E+03 -0.24877801260E+02  0.26778433162E+03  0.10100000000E+03 0. -1.
<mgrwt>
<rscale>  0 0.13414607E+04</rscale>
<asrwt>0</asrwt>
<pdfrwt beam="1">  1        2 0.17438680E+00 0.13414607E+04</pdfrwt>
<pdfrwt beam="2">  1       -2 0.52648523E-01 0.13414607E+04</pdfrwt>
<totfact> 0.69236177E+01</totfact>
</mgrwt>
</event>
<event>
 8    2  0.4480234E-052  0.1437905E+04  0.7818608E-02  0.8926829E-01
         -2   -1    0    0    0  501 -0.00000000000E+00  0.00000000000E+00  0.49620452144E+03  0.49620452145E+03  0.25500000000E-02 0. -1.
          2   -1    0    0  501    0  0.00000000000E+00 -0.00000000000E+00 -0.10416921683E+04  0.10416921683E+04  0.25500000000E-02 0.  1.
    -200001    2    1    2    0    0 -0.16796048905E+02  0.29439168055E+03 -0.52169523609E+03  0.85724725900E+03  0.61299133343E+03 0.  0.
   -5000001    2    3    3    0    0  0.16518336387E+03  0.11118189155E+02 -0.40463691508E+03  0.48675565569E+03  0.21398803115E+03 0.  0.
     200001    1    1    2    0    0  0.16796048905E+02 -0.29439168055E+03 -0.23792410807E+02  0.68064943080E+03  0.61300000000E+03 0. -1.
         13    1    4    4    0    0  0.14629989324E+03  0.53752876659E+02 -0.11983011624E+03  0.19660187800E+03  0.10566000000E+00 0.  1.
    -200003    1    4    4    0    0  0.18883470624E+02 -0.42634687504E+02 -0.28480679885E+03  0.29015377770E+03  0.30000000000E+02 0.  1.
    -200000    1    3    3    0    0 -0.18197941277E+03  0.28327349139E+03 -0.11705832101E+03  0.37049160330E+03  0.10100000000E+03 0. -1.
<mgrwt>
<rscale>  0 0.14379045E+04</rscale>
<asrwt>0</asrwt>
<pdfrwt beam="1">  1        2 0.14881317E+00 0.14379045E+04</pdfrwt>
<pdfrwt beam="2">  1       -2 0.70886361E-01 0.14379045E+04</pdfrwt>
<totfact> 0.46558895E+01</totfact>
</mgrwt>
</event>
<event>
 8    2  0.4480234E-052  0.1337753E+04  0.7818608E-02  0.9000151E-01
          2   -1    0    0  501    0  0.00000000000E+00  0.00000000000E+00  0.26222537834E+04  0.26222537834E+04  0.25500000000E-02 0.  1.
         -2   -1    0    0    0  501 -0.00000000000E+00 -0.00000000000E+00 -0.17061508202E+03  0.17061508204E+03  0.25500000000E-02 0. -1.
    -200001    2    1    2    0    0  0.55205272353E+02  0.22485301216E+03  0.15077466311E+04  0.16438224175E+04  0.61257304669E+03 0.  0.
   -5000001    2    3    3    0    0  0.30674127311E+03  0.16233913729E+03  0.63718908687E+03  0.72990240895E+03  0.79393891708E+02 0.  0.
     200001    1    1    2    0    0 -0.55205272353E+02 -0.22485301216E+03  0.94389207028E+03  0.11490464479E+04  0.61300000000E+03 0. -1.
         13    1    4    4    0    0  0.23856204783E+03  0.10834122002E+03  0.50385571039E+03  0.56790867107E+03  0.10566000000E+00 0.  1.
    -200003    1    4    4    0    0  0.68179225280E+02  0.53997917261E+02  0.13333337648E+03  0.16199373788E+03  0.30000000000E+02 0.  1.
    -200000    1    3    3    0    0 -0.25153600076E+03  0.62513874876E+02  0.87055754421E+03  0.91392000854E+03  0.10100000000E+03 0.  1.
<mgrwt>
<rscale>  0 0.13377534E+04</rscale>
<asrwt>0</asrwt>
<pdfrwt beam="1">  1        2 0.37460769E+00 0.13377534E+04</pdfrwt>
<pdfrwt beam="2">  1       -2 0.24373583E-01 0.13377534E+04</pdfrwt>
<totfact> 0.55991221E+01</totfact>
</mgrwt>
</event>
<event>
 8    2  0.4480234E-052  0.1605196E+04  0.7818608E-02  0.8817362E-01
         -2   -1    0    0    0  501 -0.00000000000E+00  0.00000000000E+00  0.22172976261E+03  0.22172976262E+03  0.25500000000E-02 0. -1.
          2   -1    0    0  501    0  0.00000000000E+00 -0.00000000000E+00 -0.29051751572E+04  0.29051751572E+04  0.25500000000E-02 0.  1.
    -200001    2    1    2    0    0  0.16205668036E+03 -0.70005052518E+02 -0.22906976950E+04  0.23777835474E+04  0.61269535140E+03 0.  0.
   -5000001    2    3    3    0    0  0.21055257854E+03  0.17887117061E+03 -0.61316219984E+03  0.67819019488E+03  0.87445829619E+02 0.  0.
     200001    1    1    2    0    0 -0.16205668036E+03  0.70005052518E+02 -0.39274769963E+03  0.74912137241E+03  0.61300000000E+03 0. -1.
         13    1    4    4    0    0  0.41131412430E+02  0.12229238819E+02 -0.48111352196E+02  0.64467516974E+02  0.10566000000E+00 0.  1.
    -200003    1    4    4    0    0  0.16942116611E+03  0.16664193179E+03 -0.56505084764E+03  0.61372267791E+03  0.30000000000E+02 0.  1.
    -200000    1    3    3    0    0 -0.48495898179E+02 -0.24887622313E+03 -0.16775354951E+04  0.16995933525E+04  0.10100000000E+03 0. -1.
<mgrwt>
<rscale>  0 0.16051963E+04</rscale>
<asrwt>0</asrwt>
<pdfrwt beam="1">  1        2 0.41502500E+00 0.16051963E+04</pdfrwt>
<pdfrwt beam="2">  1       -2 0.31675682E-01 0.16051963E+04</pdfrwt>
<totfact> 0.23764133E+01</totfact>
</mgrwt>
</event>
<event>
 8    2  0.4480234E-052  0.1296345E+04  0.7818608E-02  0.9032469E-01
         -2   -1    0    0    0  501 -0.00000000000E+00  0.00000000000E+00  0.78691771112E+02  0.78691771154E+02  0.25500000000E-02 0. -1.
          2   -1    0    0  501    0  0.00000000000E+00 -0.00000000000E+00 -0.53388984374E+04  0.53388984374E+04  0.25500000000E-02 0.  1.
    -200001    2    1    2    0    0 -0.18531893813E+03 -0.10333050856E+03 -0.24992462122E+04  0.25814498855E+04  0.61043556539E+03 0.  0.
   -5000001    2    3    3    0    0  0.12183074974E+03  0.14778251764E+03 -0.12495051908E+04  0.12663634613E+04  0.75701982310E+02 0.  0.
     200001    1    1    2    0    0  0.18531893813E+03  0.10333050856E+03 -0.27609604542E+04  0.28361403231E+04  0.61300000000E+03 0.  1.
         13    1    4    4    0    0  0.20920987208E+02  0.20261121069E+02 -0.78277290339E+02  0.83519734672E+02  0.10566000000E+00 0.  1.
    -200003    1    4    4    0    0  0.10090976253E+03  0.12752139657E+03 -0.11712279005E+04  0.11828437267E+04  0.30000000000E+02 0.  1.
    -200000    1    3    3    0    0 -0.30714968787E+03 -0.25111302620E+03 -0.12497410213E+04  0.13150864242E+04  0.10100000000E+03 0. -1.
<mgrwt>
<rscale>  0 0.12963447E+04</rscale>
<asrwt>0</asrwt>
<pdfrwt beam="1">  1        2 0.76269955E+00 0.12963447E+04</pdfrwt>
<pdfrwt beam="2">  1       -2 0.11241685E-01 0.12963447E+04</pdfrwt>
<totfact> 0.23172026E+00</totfact>
</mgrwt>
</event>
<event>
 8    2  0.4480234E-052  0.2222100E+04  0.7818608E-02  0.8509286E-01
          2   -1    0    0  501    0  0.00000000000E+00  0.00000000000E+00  0.93224259175E+03  0.93224259175E+03  0.25500000000E-02 0.  1.
         -2   -1    0    0    0  501 -0.00000000000E+00 -0.00000000000E+00 -0.13241532497E+04  0.13241532497E+04  0.25500000000E-02 0. -1.
    -200001    2    1    2    0    0 -0.57586304548E+03  0.64869662180E+03  0.13509752305E+03  0.10706757324E+04  0.61291894151E+03 0.  0.
   -5000001    2    3    3    0    0  0.14376104825E+02  0.20703055193E+03 -0.15587696039E+03  0.27172747256E+03  0.80435506736E+02 0.  0.
     200001    1    1    2    0    0  0.57586304548E+03 -0.64869662180E+03 -0.52700818101E+03  0.11857201091E+04  0.61300000000E+03 0. -1.
         13    1    4    4    0    0 -0.17633162671E+02  0.26502783616E+02 -0.45823600091E+02  0.55795514645E+02  0.10566000000E+00 0.  1.
    -200003    1    4    4    0    0  0.32009267496E+02  0.18052776831E+03 -0.11005336030E+03  0.21593195792E+03  0.30000000000E+02 0.  1.
    -200000    1    3    3    0    0 -0.59023915030E+03  0.44166606987E+03  0.29097448344E+03  0.79894825980E+03  0.10100000000E+03 0.  1.
<mgrwt>
<rscale>  0 0.22221000E+04</rscale>
<asrwt>0</asrwt>
<pdfrwt beam="1">  1        2 0.13317751E+00 0.22221000E+04</pdfrwt>
<pdfrwt beam="2">  1       -2 0.18916475E+00 0.22221000E+04</pdfrwt>
<totfact> 0.44581829E+00</totfact>
</mgrwt>
</event>
<event>
 8    2  0.4480234E-052  0.1605414E+04  0.7818608E-02  0.8817229E-01
          2   -1    0    0  501    0  0.00000000000E+00  0.00000000000E+00  0.40914441922E+04  0.40914441922E+04  0.25500000000E-02 0.  1.
         -2   -1    0    0    0  501 -0.00000000000E+00 -0.00000000000E+00 -0.15748446580E+03  0.15748446582E+03  0.25500000000E-02 0. -1.
    -200001    2    1    2    0    0 -0.43617768005E+03 -0.19878952245E+03  0.24660748589E+04  0.25875367034E+04  0.61971988729E+03 0.  0.
   -5000001    2    3    3    0    0 -0.40526825768E+03 -0.37713940910E+03  0.15593295330E+04  0.16574011431E+04  0.94833865243E+02 0.  0.
     200001    1    1    2    0    0  0.43617768005E+03  0.19878952245E+03  0.14678848675E+04  0.16613919547E+04  0.61300000000E+03 0. -1.
         13    1    4    4    0    0 -0.10757033442E+03 -0.15380374129E+03  0.48570983318E+03  0.52071203260E+03  0.10566000000E+00 0.  1.
    -200003    1    4    4    0    0 -0.29769792326E+03 -0.22333566781E+03  0.10736196998E+04  0.11366891105E+04  0.30000000000E+02 0.  1.
    -200000    1    3    3    0    0 -0.30909422374E+02  0.17834988665E+03  0.90674532591E+03  0.93013556030E+03  0.10100000000E+03 0.  1.
<mgrwt>
<rscale>  0 0.16054145E+04</rscale>
<asrwt>0</asrwt>
<pdfrwt beam="1">  1        2 0.58449194E+00 0.16054145E+04</pdfrwt>
<pdfrwt beam="2">  1       -2 0.22497784E-01 0.16054145E+04</pdfrwt>
<totfact> 0.83267640E+00</totfact>
</mgrwt>
</event>
<event>
 8    2  0.4480234E-052  0.1341306E+04  0.7818608E-02  0.8997435E-01
          2   -1    0    0  501    0  0.00000000000E+00  0.00000000000E+00  0.19985797292E+04  0.19985797292E+04  0.25500000000E-02 0.  1.
         -2   -1    0    0    0  501 -0.00000000000E+00 -0.00000000000E+00 -0.22504757675E+03  0.22504757676E+03  0.25500000000E-02 0. -1.
    -200001    2    1    2    0    0 -0.23156976459E+03  0.12473278385E+03  0.77675015986E+03  0.10242415615E+04  0.61363437178E+03 0.  0.
   -5000001    2    3    3    0    0 -0.26648688350E+03 -0.17396302609E+02  0.79463969314E+03  0.84552133933E+03  0.11016443589E+03 0.  0.
     200001    1    1    2    0    0  0.23156976459E+03 -0.12473278385E+03  0.99678199256E+03  0.11993857444E+04  0.61300000000E+03 0. -1.
         13    1    4    4    0    0 -0.76890461199E+02  0.27086529398E+02  0.14146790107E+03  0.16327584419E+03  0.10566000000E+00 0.  1.
    -200003    1    4    4    0    0 -0.18959642230E+03 -0.44482832008E+02  0.65317179206E+03  0.68224549514E+03  0.30000000000E+02 0.  1.
    -200000    1    3    3    0    0  0.34917118904E+02  0.14212908646E+03 -0.17889533281E+02  0.17872022217E+03  0.10100000000E+03 0. -1.
<mgrwt>
<rscale>  0 0.13413061E+04</rscale>
<asrwt>0</asrwt>
<pdfrwt beam="1">  1        2 0.28551138E+00 0.13413061E+04</pdfrwt>
<pdfrwt beam="2">  1       -2 0.32149655E-01 0.13413061E+04</pdfrwt>
<totfact> 0.70782853E+01</totfact>
</mgrwt>
</event>
<event>
 8    2  0.4480234E-052  0.1675002E+04  0.7818608E-02  0.8775752E-01
          2   -1    0    0  501    0  0.00000000000E+00  0.00000000000E+00  0.24637736582E+04  0.24637736582E+04  0.25500000000E-02 0.  1.
         -2   -1    0    0    0  501 -0.00000000000E+00 -0.00000000000E+00 -0.28468839800E+03  0.28468839801E+03  0.25500000000E-02 0. -1.
    -200001    2    1    2    0    0 -0.23373228303E+03 -0.35847154861E+03  0.47013021312E+03  0.88313930016E+03  0.61300895174E+03 0.  0.
   -5000001    2    3    3    0    0  0.72552086119E+02 -0.14446984049E+03  0.46045624309E+03  0.49596823776E+03  0.88482772652E+02 0.  0.
     200001    1    1    2    0    0  0.23373228303E+03  0.35847154861E+03  0.17089550471E+04  0.18653227561E+04  0.61300000000E+03 0.  1.
         13    1    4    4    0    0  0.43200997300E+02 -0.56415140279E+02  0.29905000018E+03  0.30737584159E+03  0.10566000000E+00 0.  1.
    -200003    1    4    4    0    0  0.29351088819E+02 -0.88054700209E+02  0.16140624291E+03  0.18859239617E+03  0.30000000000E+02 0.  1.
    -200000    1    3    3    0    0 -0.30628436915E+03 -0.21400170812E+03  0.96739700245E+01  0.38717106240E+03  0.10100000000E+03 0. -1.
<mgrwt>
<rscale>  0 0.16750018E+04</rscale>
<asrwt>0</asrwt>
<pdfrwt beam="1">  1        2 0.35196767E+00 0.16750018E+04</pdfrwt>
<pdfrwt beam="2">  1       -2 0.40669771E-01 0.16750018E+04</pdfrwt>
<totfact> 0.25215003E+01</totfact>
</mgrwt>
</event>
<event>
 8    2  0.4480234E-052  0.1524747E+04  0.7818608E-02  0.8868161E-01
          2   -1    0    0  501    0  0.00000000000E+00  0.00000000000E+00  0.10227829344E+04  0.10227829344E+04  0.25500000000E-02 0.  1.
         -2   -1    0    0    0  501 -0.00000000000E+00 -0.00000000000E+00 -0.56826638356E+03  0.56826638357E+03  0.25500000000E-02 0. -1.
    -200001    2    1    2    0    0  0.11538253799E+03 -0.20800479238E+03 -0.17532607241E+03  0.68052756986E+03  0.61302481023E+03 0.  0.
   -5000001    2    3    3    0    0  0.30032425697E+03 -0.20183824719E+03 -0.25803564280E+03  0.45406932044E+03  0.93076406598E+02 0.  0.
     200001    1    1    2    0    0 -0.11538253799E+03  0.20800479238E+03  0.62984262327E+03  0.91052174813E+03  0.61300000000E+03 0.  1.
         13    1    4    4    0    0  0.19133514976E+03 -0.17057313764E+03 -0.17865319594E+03  0.31244409164E+03  0.10566000000E+00 0.  1.
    -200003    1    4    4    0    0  0.10898910721E+03 -0.31265109548E+02 -0.79382446854E+02  0.14162522880E+03  0.30000000000E+02 0.  1.
    -200000    1    3    3    0    0 -0.18494171898E+03 -0.61665451892E+01  0.82709570382E+02  0.22645824942E+03  0.10100000000E+03 0.  1.
<mgrwt>
<rscale>  0 0.15247467E+04</rscale>
<asrwt>0</asrwt>
<pdfrwt beam="1">  1        2 0.14611185E+00 0.15247467E+04</pdfrwt>
<pdfrwt beam="2">  1       -2 0.81180912E-01 0.15247467E+04</pdfrwt>
<totfact> 0.35147643E+01</totfact>
</mgrwt>
</event>
<event>
 8    2  0.4480234E-052  0.1431955E+04  0.7818608E-02  0.8931007E-01
          2   -1    0    0  501    0  0.00000000000E+00  0.00000000000E+00  0.51829602929E+03  0.51829602929E+03  0.25500000000E-02 0.  1.
         -2   -1    0    0    0  501 -0.00000000000E+00 -0.00000000000E+00 -0.98905570590E+03  0.98905570590E+03  0.25500000000E-02 0. -1.
    -200001    2    1    2    0    0 -0.27729804583E+03 -0.16794664312E+03 -0.42118973824E+03  0.81213489136E+03  0.61405374766E+03 0.  0.
   -5000001    2    3    3    0    0 -0.45686062974E+02 -0.29861845640E+03 -0.97647438920E+01  0.31194416838E+03  0.77159672803E+02 0.  0.
     200001    1    1    2    0    0  0.27729804583E+03  0.16794664312E+03 -0.49569938376E+02  0.69521684383E+03  0.61300000000E+03 0.  1.
         13    1    4    4    0    0 -0.15710512267E+02 -0.14165762026E+02  0.10534244617E+02  0.23631980095E+02  0.10566000000E+00 0.  1.
    -200003    1    4    4    0    0 -0.29975550707E+02 -0.28445269438E+03 -0.20298988509E+02  0.28831218828E+03  0.30000000000E+02 0.  1.
    -200000    1    3    3    0    0 -0.23161198286E+03  0.13067181328E+03 -0.41142499435E+03  0.50019072299E+03  0.10100000000E+03 0. -1.
<mgrwt>
<rscale>  0 0.14319548E+04</rscale>
<asrwt>0</asrwt>
<pdfrwt beam="1">  1        2 0.74042290E-01 0.14319548E+04</pdfrwt>
<pdfrwt beam="2">  1       -2 0.14129367E+00 0.14319548E+04</pdfrwt>
<totfact> 0.21959925E+01</totfact>
</mgrwt>
</event>
<event>
 8    2  0.4480234E-052  0.1741469E+04  0.7818608E-02  0.8738060E-01
         -2   -1    0    0    0  501 -0.00000000000E+00  0.00000000000E+00  0.71379469799E+03  0.71379469800E+03  0.25500000000E-02 0. -1.
          2   -1    0    0  501    0  0.00000000000E+00 -0.00000000000E+00 -0.10621799232E+04  0.10621799232E+04  0.25500000000E-02 0.  1.
    -200001    2    1    2    0    0  0.18533006401E+03 -0.27027658543E+03 -0.70897974917E+03  0.99290752570E+03  0.61303866485E+03 0.  0.
   -5000001    2    3    3    0    0  0.30818217730E+03 -0.23176437319E+03 -0.72994682413E+03  0.82793343542E+03  0.62931934290E+02 0.  0.
     200001    1    1    2    0    0 -0.18533006401E+03  0.27027658543E+03  0.36059452400E+03  0.78306709546E+03  0.61300000000E+03 0. -1.
         13    1    4    4    0    0  0.21174592837E+03 -0.17574917713E+03 -0.50890718354E+03  0.57854182568E+03  0.10566000000E+00 0.  1.
    -200003    1    4    4    0    0  0.96436248923E+02 -0.56015196050E+02 -0.22103964059E+03  0.24939160974E+03  0.30000000000E+02 0. -1.
    -200000    1    3    3    0    0 -0.12285211329E+03 -0.38512212244E+02  0.20967074958E+02  0.16497409028E+03  0.10100000000E+03 0. -1.
<mgrwt>
<rscale>  0 0.17414688E+04</rscale>
<asrwt>0</asrwt>
<pdfrwt beam="1">  1        2 0.15173999E+00 0.17414688E+04</pdfrwt>
<pdfrwt beam="2">  1       -2 0.10197067E+00 0.17414688E+04</pdfrwt>
<totfact> 0.19305113E+01</totfact>
</mgrwt>
</event>
<event>
 8    2  0.4480234E-052  0.1830662E+04  0.7818608E-02  0.8690162E-01
         -2   -1    0    0    0  501 -0.00000000000E+00  0.00000000000E+00  0.24793212160E+03  0.24793212161E+03  0.25500000000E-02 0. -1.
          2   -1    0    0  501    0  0.00000000000E+00 -0.00000000000E+00 -0.33792741747E+04  0.33792741747E+04  0.25500000000E-02 0.  1.
    -200001    2    1    2    0    0  0.62660897328E+03 -0.25118250644E+03 -0.14118810727E+04  0.16809158452E+04  0.61346430888E+03 0.  0.
   -5000001    2    3    3    0    0  0.28841061330E+03 -0.38511493051E+02 -0.11529841105E+04  0.11942581342E+04  0.11052744046E+03 0.  0.
     200001    1    1    2    0    0 -0.62660897328E+03  0.25118250644E+03 -0.17194609805E+04  0.19462904512E+04  0.61300000000E+03 0.  1.
         13    1    4    4    0    0  0.60520320758E+02  0.87422213478E+00 -0.43900925093E+03  0.44316205508E+03  0.10566000000E+00 0.  1.
    -200003    1    4    4    0    0  0.22789029254E+03 -0.39385715186E+02 -0.71397485954E+03  0.75109607911E+03  0.30000000000E+02 0.  1.
    -200000    1    3    3    0    0  0.33819835998E+03 -0.21267101339E+03 -0.25889696218E+03  0.48665771098E+03  0.10100000000E+03 0. -1.
<mgrwt>
<rscale>  0 0.18306618E+04</rscale>
<asrwt>0</asrwt>
<pdfrwt beam="1">  1        2 0.48275343E+00 0.18306618E+04</pdfrwt>
<pdfrwt beam="2">  1       -2 0.35418876E-01 0.18306618E+04</pdfrwt>
<totfact> 0.10101879E+01</totfact>
</mgrwt>
</event>
<event>
 8    2  0.4480234E-052  0.1531076E+04  0.7818608E-02  0.8864047E-01
          2   -1    0    0  501    0  0.00000000000E+00  0.00000000000E+00  0.75055643202E+03  0.75055643203E+03  0.25500000000E-02 0.  1.
         -2   -1    0    0    0  501 -0.00000000000E+00 -0.00000000000E+00 -0.78081859041E+03  0.78081859042E+03  0.25500000000E-02 0. -1.
    -200001    2    1    2    0    0  0.41680162140E+03 -0.97532488623E+02 -0.17767815587E+03  0.76931422811E+03  0.61403475192E+03 0.  0.
   -5000001    2    3    3    0    0  0.43014611505E+03  0.10339885630E+03  0.26634751453E+02  0.46518227487E+03  0.14130865187E+03 0.  0.
     200001    1    1    2    0    0 -0.41680162140E+03  0.97532488623E+02  0.14741599748E+03  0.76206079433E+03  0.61300000000E+03 0.  1.
         13    1    4    4    0    0  0.96623240742E+02 -0.12861591905E+02 -0.38440397002E+02  0.10478142242E+03  0.10566000000E+00 0.  1.
    -200003    1    4    4    0    0  0.33352287431E+03  0.11626044821E+03  0.65075148454E+02  0.36040085246E+03  0.30000000000E+02 0.  1.
    -200000    1    3    3    0    0 -0.13344493654E+02 -0.20093134493E+03 -0.20431290732E+03  0.30413195324E+03  0.10100000000E+03 0.  1.
<mgrwt>
<rscale>  0 0.15310760E+04</rscale>
<asrwt>0</asrwt>
<pdfrwt beam="1">  1        2 0.10722235E+00 0.15310760E+04</pdfrwt>
<pdfrwt beam="2">  1       -2 0.11154551E+00 0.15310760E+04</pdfrwt>
<totfact> 0.25307194E+01</totfact>
</mgrwt>
</event>
<event>
 8    2  0.4480234E-052  0.1576955E+04  0.7818608E-02  0.8834832E-01
         -2   -1    0    0    0  501 -0.00000000000E+00  0.00000000000E+00  0.23711480286E+03  0.23711480288E+03  0.25500000000E-02 0. -1.
          2   -1    0    0  501    0  0.00000000000E+00 -0.00000000000E+00 -0.26219228718E+04  0.26219228718E+04  0.25500000000E-02 0.  1.
    -200001    2    1    2    0    0  0.25657764525E+01 -0.26677140620E+03 -0.43870734810E+03  0.80130820218E+03  0.61518869562E+03 0.  0.
   -5000001    2    3    3    0    0  0.25910498805E+03 -0.12909672927E+03 -0.38674266966E+03  0.48878938424E+03  0.74456761080E+02 0.  0.
     200001    1    1    2    0    0 -0.25657764525E+01  0.26677140620E+03 -0.19461007208E+04  0.20577294725E+04  0.61300000000E+03 0.  1.
         13    1    4    4    0    0  0.21651809948E+03 -0.11381018773E+03 -0.31801782529E+03  0.40120841791E+03  0.10566000000E+00 0.  1.
    -200003    1    4    4    0    0  0.42586888569E+02 -0.15286541545E+02 -0.68724844365E+02  0.87580966331E+02  0.30000000000E+02 0. -1.
    -200000    1    3    3    0    0 -0.25653921160E+03 -0.13767467693E+03 -0.51964678444E+02  0.31251881793E+03  0.10100000000E+03 0. -1.
<mgrwt>
<rscale>  0 0.15769549E+04</rscale>
<asrwt>0</asrwt>
<pdfrwt beam="1">  1        2 0.37456039E+00 0.15769549E+04</pdfrwt>
<pdfrwt beam="2">  1       -2 0.33873545E-01 0.15769549E+04</pdfrwt>
<totfact> 0.29850533E+01</totfact>
</mgrwt>
</event>
<event>
 8    2  0.4480234E-052  0.1450270E+04  0.7818608E-02  0.8918213E-01
          2   -1    0    0  501    0  0.00000000000E+00  0.00000000000E+00  0.49375116917E+03  0.49375116917E+03  0.25500000000E-02 0.  1.
         -2   -1    0    0    0  501 -0.00000000000E+00 -0.00000000000E+00 -0.10649507802E+04  0.10649507802E+04  0.25500000000E-02 0. -1.
    -200001    2    1    2    0    0 -0.74827219729E+02  0.35047366670E+03 -0.44735644669E+03  0.83791277548E+03  0.61117847234E+03 0.  0.
   -5000001    2    3    3    0    0  0.45154480467E+02  0.48270611683E+03 -0.28225970162E+03  0.57458984734E+03  0.12425309323E+03 0.  0.
     200001    1    1    2    0    0  0.74827219729E+02 -0.35047366670E+03 -0.12384316435E+03  0.72078917391E+03  0.61300000000E+03 0.  1.
         13    1    4    4    0    0  0.37380494141E+02  0.25085254323E+03 -0.81675044778E+02  0.26644910188E+03  0.10566000000E+00 0.  1.
    -200003    1    4    4    0    0  0.77739863265E+01  0.23185357360E+03 -0.20058465684E+03  0.30814074546E+03  0.30000000000E+02 0.  1.
    -200000    1    3    3    0    0 -0.11998170020E+03 -0.13223245013E+03 -0.16509674507E+03  0.26332292814E+03  0.10100000000E+03 0.  1.
<mgrwt>
<rscale>  0 0.14502699E+04</rscale>
<asrwt>0</asrwt>
<pdfrwt beam="1">  1        2 0.70535882E-01 0.14502699E+04</pdfrwt>
<pdfrwt beam="2">  1       -2 0.15213582E+00 0.14502699E+04</pdfrwt>
<totfact> 0.19081467E+01</totfact>
</mgrwt>
</event>
<event>
 8    2  0.4480234E-052  0.1265248E+04  0.7818608E-02  0.9057587E-01
         -2   -1    0    0    0  501 -0.00000000000E+00  0.00000000000E+00  0.23945885816E+03  0.23945885818E+03  0.25500000000E-02 0. -1.
          2   -1    0    0  501    0  0.00000000000E+00 -0.00000000000E+00 -0.16713235524E+04  0.16713235524E+04  0.25500000000E-02 0.  1.
    -200001    2    1    2    0    0 -0.72402131205E+02  0.11412301224E+03 -0.79421939844E+03  0.10160049780E+04  0.61904404692E+03 0.  0.
   -5000001    2    3    3    0    0 -0.14386584298E+03 -0.59917351801E+02 -0.78236172719E+03  0.80213886389E+03  0.83960794202E+02 0.  0.
     200001    1    1    2    0    0  0.72402131205E+02 -0.11412301224E+03 -0.63764529581E+03  0.89477743255E+03  0.61300000000E+03 0.  1.
         13    1    4    4    0    0 -0.25755421033E+02 -0.48108959996E+02 -0.23550968190E+03  0.24174911618E+03  0.10566000000E+00 0.  1.
    -200003    1    4    4    0    0 -0.11811042195E+03 -0.11808391805E+02 -0.54685204529E+03  0.56038974770E+03  0.30000000000E+02 0.  1.
    -200000    1    3    3    0    0  0.71463711776E+02  0.17404036404E+03 -0.11857671251E+02  0.21386611416E+03  0.10100000000E+03 0. -1.
<mgrwt>
<rscale>  0 0.12652482E+04</rscale>
<asrwt>0</asrwt>
<pdfrwt beam="1">  1        2 0.23876050E+00 0.12652482E+04</pdfrwt>
<pdfrwt beam="2">  1       -2 0.34208409E-01 0.12652482E+04</pdfrwt>
<totfact> 0.93328458E+01</totfact>
</mgrwt>
</event>
<event>
 8    2  0.4480234E-052  0.1454591E+04  0.7818608E-02  0.8915224E-01
         -2   -1    0    0    0  501 -0.00000000000E+00  0.00000000000E+00  0.43329193112E+03  0.43329193112E+03  0.25500000000E-02 0. -1.
          2   -1    0    0  501    0  0.00000000000E+00 -0.00000000000E+00 -0.12207909623E+04  0.12207909623E+04  0.25500000000E-02 0.  1.
    -200001    2    1    2    0    0 -0.40365276195E+02 -0.35622409283E+03 -0.21762230390E+03  0.74355917373E+03  0.61399985167E+03 0.  0.
   -5000001    2    3    3    0    0 -0.18103659804E+03 -0.44919017201E+03 -0.68970219780E+02  0.49712550156E+03  0.88491878894E+02 0.  0.
     200001    1    1    2    0    0  0.40365276195E+02  0.35622409283E+03 -0.56987672729E+03  0.91052371971E+03  0.61300000000E+03 0.  1.
         13    1    4    4    0    0 -0.11701623671E+01 -0.21513872385E+02  0.12798946810E+02  0.25060730006E+02  0.10566000000E+00 0.  1.
    -200003    1    4    4    0    0 -0.17986643567E+03 -0.42767629962E+03 -0.81769166590E+02  0.47206477156E+03  0.30000000000E+02 0.  1.
    -200000    1    3    3    0    0  0.14067132184E+03  0.92966079175E+02 -0.14865208412E+03  0.24643367217E+03  0.10100000000E+03 0.  1.
<mgrwt>
<rscale>  0 0.14545912E+04</rscale>
<asrwt>0</asrwt>
<pdfrwt beam="1">  1        2 0.17439871E+00 0.14545912E+04</pdfrwt>
<pdfrwt beam="2">  1       -2 0.61898848E-01 0.14545912E+04</pdfrwt>
<totfact> 0.48943798E+01</totfact>
</mgrwt>
</event>
<event>
 8    2  0.4480234E-052  0.1755362E+04  0.7818608E-02  0.8730404E-01
         -2   -1    0    0    0  501 -0.00000000000E+00  0.00000000000E+00  0.34107909805E+03  0.34107909806E+03  0.25500000000E-02 0. -1.
          2   -1    0    0  501    0  0.00000000000E+00 -0.00000000000E+00 -0.22584899915E+04  0.22584899915E+04  0.25500000000E-02 0.  1.
    -200001    2    1    2    0    0 -0.40749624226E+03  0.25191573582E+03 -0.35739579824E+03  0.85631614674E+03  0.61321355266E+03 0.  0.
   -5000001    2    3    3    0    0 -0.47722473405E+03  0.32986799133E+03 -0.16916750341E+03  0.61847269469E+03  0.13166051565E+03 0.  0.
     200001    1    1    2    0    0  0.40749624226E+03 -0.25191573582E+03 -0.15600150952E+04  0.17432529429E+04  0.61300000000E+03 0.  1.
         13    1    4    4    0    0 -0.18607002081E+03  0.19315134460E+03 -0.42827406425E+02  0.27159472100E+03  0.10566000000E+00 0.  1.
    -200003    1    4    4    0    0 -0.29115471324E+03  0.13671664672E+03 -0.12634009699E+03  0.34687797370E+03  0.30000000000E+02 0.  1.
    -200000    1    3    3    0    0  0.69728491792E+02 -0.77952255509E+02 -0.18822829483E+03  0.23784345205E+03  0.10100000000E+03 0.  1.
<mgrwt>
<rscale>  0 0.17553618E+04</rscale>
<asrwt>0</asrwt>
<pdfrwt beam="1">  1        2 0.32264142E+00 0.17553618E+04</pdfrwt>
<pdfrwt beam="2">  1       -2 0.48725587E-01 0.17553618E+04</pdfrwt>
<totfact> 0.22348299E+01</totfact>
</mgrwt>
</event>
<event>
 8    2  0.4480234E-052  0.1297553E+04  0.7818608E-02  0.9031508E-01
          2   -1    0    0  501    0  0.00000000000E+00  0.00000000000E+00  0.21271129787E+04  0.21271129787E+04  0.25500000000E-02 0.  1.
         -2   -1    0    0    0  501 -0.00000000000E+00 -0.00000000000E+00 -0.19787889157E+03  0.19787889159E+03  0.25500000000E-02 0. -1.
    -200001    2    1    2    0    0 -0.12708376048E+03  0.16450453792E+03  0.10186686904E+04  0.12078032708E+04  0.61472824477E+03 0.  0.
   -5000001    2    3    3    0    0  0.17112652876E+03 -0.25337022400E+02  0.93407953365E+02  0.21217400939E+03  0.79790418953E+02 0.  0.
     200001    1    1    2    0    0  0.12708376048E+03 -0.16450453792E+03  0.91056539676E+03  0.11171885995E+04  0.61300000000E+03 0.  1.
         13    1    4    4    0    0  0.15315629824E+03 -0.15917357735E+02  0.70784090341E+02  0.16947156864E+03  0.10566000000E+00 0.  1.
    -200003    1    4    4    0    0  0.17970230520E+02 -0.94196646646E+01  0.22623863024E+02  0.42702440744E+02  0.30000000000E+02 0. -1.
    -200000    1    3    3    0    0 -0.29821028925E+03  0.18984156032E+03  0.92526073703E+03  0.99562926138E+03  0.10100000000E+03 0.  1.
<mgrwt>
<rscale>  0 0.12975527E+04</rscale>
<asrwt>0</asrwt>
<pdfrwt beam="1">  1        2 0.30387329E+00 0.12975527E+04</pdfrwt>
<pdfrwt beam="2">  1       -2 0.28268412E-01 0.12975527E+04</pdfrwt>
<totfact> 0.77546865E+01</totfact>
</mgrwt>
</event>
<event>
 8    2  0.4480234E-052  0.1430214E+04  0.7818608E-02  0.8932234E-01
         -2   -1    0    0    0  501 -0.00000000000E+00  0.00000000000E+00  0.47189655444E+03  0.47189655445E+03  0.25500000000E-02 0. -1.
          2   -1    0    0  501    0  0.00000000000E+00 -0.00000000000E+00 -0.10836652116E+04  0.10836652116E+04  0.25500000000E-02 0.  1.
    -200001    2    1    2    0    0 -0.14003633293E+03 -0.28959287483E+03 -0.50354743486E+03  0.85487992622E+03  0.61137996485E+03 0.  0.
   -5000001    2    3    3    0    0 -0.16271620078E+02 -0.45089989030E+03 -0.28281887909E+03  0.53824172145E+03  0.78371905998E+02 0.  0.
     200001    1    1    2    0    0  0.14003633293E+03  0.28959287483E+03 -0.10822122228E+03  0.70068183981E+03  0.61300000000E+03 0. -1.
         13    1    4    4    0    0 -0.12308948691E+02 -0.17390418810E+03 -0.71062772549E+02  0.18826605021E+03  0.10566000000E+00 0.  1.
    -200003    1    4    4    0    0 -0.39626713874E+01 -0.27699570220E+03 -0.21175610654E+03  0.34997567124E+03  0.30000000000E+02 0.  1.
    -200000    1    3    3    0    0 -0.12376471286E+03  0.16130701547E+03 -0.22072855577E+03  0.31663820478E+03  0.10100000000E+03 0.  1.
<mgrwt>
<rscale>  0 0.14302138E+04</rscale>
<asrwt>0</asrwt>
<pdfrwt beam="1">  1        2 0.15480932E+00 0.14302138E+04</pdfrwt>
<pdfrwt beam="2">  1       -2 0.67413794E-01 0.14302138E+04</pdfrwt>
<totfact> 0.49035757E+01</totfact>
</mgrwt>
</event>
<event>
 8    2  0.4480234E-052  0.2406657E+04  0.7818608E-02  0.8437015E-01
         -2   -1    0    0    0  501 -0.00000000000E+00  0.00000000000E+00  0.91220897351E+03  0.91220897351E+03  0.25500000000E-02 0. -1.
          2   -1    0    0  501    0  0.00000000000E+00 -0.00000000000E+00 -0.15873554575E+04  0.15873554575E+04  0.25500000000E-02 0.  1.
    -200001    2    1    2    0    0 -0.73599545249E+03  0.69001730044E+03 -0.57962771975E+03  0.13152055263E+04  0.61317542502E+03 0.  0.
   -5000001    2    3    3    0    0 -0.34183497228E+03  0.42982805323E+02 -0.12465238310E+02  0.36342277670E+03  0.11498722812E+03 0.  0.
     200001    1    1    2    0    0  0.73599545249E+03 -0.69001730044E+03 -0.95518764268E+02  0.11843589048E+04  0.61300000000E+03 0.  1.
         13    1    4    4    0    0 -0.17123516199E+02  0.11623534595E+02 -0.28744236768E+02  0.35419820368E+02  0.10566000000E+00 0.  1.
    -200003    1    4    4    0    0 -0.32471145608E+03  0.31359270728E+02  0.16278998458E+02  0.32800295633E+03  0.30000000000E+02 0.  1.
    -200000    1    3    3    0    0 -0.39416048020E+03  0.64703449512E+03 -0.56716248144E+03  0.95178274957E+03  0.10100000000E+03 0.  1.
<mgrwt>
<rscale>  0 0.24066573E+04</rscale>
<asrwt>0</asrwt>
<pdfrwt beam="1">  1        2 0.22676506E+00 0.24066573E+04</pdfrwt>
<pdfrwt beam="2">  1       -2 0.13031557E+00 0.24066573E+04</pdfrwt>
<totfact> 0.51275421E+00</totfact>
</mgrwt>
</event>
<event>
 8    2  0.4480234E-052  0.2142562E+04  0.7818608E-02  0.8542723E-01
         -2   -1    0    0    0  501 -0.00000000000E+00  0.00000000000E+00  0.28691194031E+03  0.28691194032E+03  0.25500000000E-02 0. -1.
          2   -1    0    0  501    0  0.00000000000E+00 -0.00000000000E+00 -0.39999839269E+04  0.39999839269E+04  0.25500000000E-02 0.  1.
    -200001    2    1    2    0    0  0.85239118137E+03 -0.20498824974E+03 -0.16320598734E+04  0.19470302036E+04  0.59892927357E+03 0.  0.
   -5000001    2    3    3    0    0  0.44834193362E+03  0.92604964621E+02 -0.11678303391E+04  0.12559965022E+04  0.64135356242E+02 0.  0.
     200001    1    1    2    0    0 -0.85239118137E+03  0.20498824974E+03 -0.20810121132E+04  0.23398656637E+04  0.61300000000E+03 0.  1.
         13    1    4    4    0    0  0.14893302460E+03  0.54402625792E+02 -0.42585769472E+03  0.45441773603E+03  0.10566000000E+00 0.  1.
    -200003    1    4    4    0    0  0.29940890903E+03  0.38202338829E+02 -0.74197264433E+03  0.80157876621E+03  0.30000000000E+02 0.  1.
    -200000    1    3    3    0    0  0.40404924775E+03 -0.29759321436E+03 -0.46422953434E+03  0.69103370135E+03  0.10100000000E+03 0. -1.
<mgrwt>
<rscale>  0 0.21425622E+04</rscale>
<asrwt>0</asrwt>
<pdfrwt beam="1">  1        2 0.57142624E+00 0.21425622E+04</pdfrwt>
<pdfrwt beam="2">  1       -2 0.40987422E-01 0.21425622E+04</pdfrwt>
<totfact> 0.29750542E+00</totfact>
</mgrwt>
</event>
<event>
 8    2  0.4480234E-052  0.1801004E+04  0.7818608E-02  0.8705766E-01
         -2   -1    0    0    0  501 -0.00000000000E+00  0.00000000000E+00  0.20515773976E+03  0.20515773978E+03  0.25500000000E-02 0. -1.
          2   -1    0    0  501    0  0.00000000000E+00 -0.00000000000E+00 -0.39525878981E+04  0.39525878981E+04  0.25500000000E-02 0.  1.
    -200001    2    1    2    0    0  0.64584494013E+01 -0.35749851394E+03 -0.59433482279E+03  0.92577625465E+03  0.61317280848E+03 0.  0.
   -5000001    2    3    3    0    0  0.18737666246E+03  0.78976097952E+02 -0.13550343311E+03  0.25946646874E+03  0.87260703256E+02 0.  0.
     200001    1    1    2    0    0 -0.64584494013E+01  0.35749851394E+03 -0.31530953355E+04  0.32319693832E+04  0.61300000000E+03 0.  1.
         13    1    4    4    0    0 -0.52702584009E+00 -0.37682683957E+01 -0.23236836132E+02  0.23546535210E+02  0.10566000000E+00 0.  1.
    -200003    1    4    4    0    0  0.18790368830E+03  0.82744366348E+02 -0.11226659698E+03  0.23591993353E+03  0.30000000000E+02 0.  1.
    -200000    1    3    3    0    0 -0.18091821306E+03 -0.43647461189E+03 -0.45883138967E+03  0.66630978591E+03  0.10100000000E+03 0. -1.
<mgrwt>
<rscale>  0 0.18010042E+04</rscale>
<asrwt>0</asrwt>
<pdfrwt beam="1">  1        2 0.56465537E+00 0.18010042E+04</pdfrwt>
<pdfrwt beam="2">  1       -2 0.29308251E-01 0.18010042E+04</pdfrwt>
<totfact> 0.62823541E+00</totfact>
</mgrwt>
</event>
<event>
 8    2  0.4480234E-052  0.1566582E+04  0.7818608E-02  0.8841345E-01
         -2   -1    0    0    0  501 -0.00000000000E+00  0.00000000000E+00  0.38659209969E+03  0.38659209970E+03  0.25500000000E-02 0. -1.
          2   -1    0    0  501    0  0.00000000000E+00 -0.00000000000E+00 -0.15870602527E+04  0.15870602527E+04  0.25500000000E-02 0.  1.
    -200001    2    1    2    0    0 -0.23190368987E+03  0.15760376451E+03 -0.97951630004E+02  0.68139465694E+03  0.61325841921E+03 0.  0.
   -5000001    2    3    3    0    0 -0.28122455236E+03  0.34349975484E+03 -0.16218792632E+02  0.44929312011E+03  0.67245283259E+02 0.  0.
     200001    1    1    2    0    0  0.23190368987E+03 -0.15760376451E+03 -0.11025165230E+04  0.12922576954E+04  0.61300000000E+03 0.  1.
         13    1    4    4    0    0 -0.19255341970E+02  0.49542162259E+02 -0.11456789129E+02  0.54373368636E+02  0.10566000000E+00 0.  1.
    -200003    1    4    4    0    0 -0.26196921039E+03  0.29395759258E+03 -0.47620035021E+01  0.39491975148E+03  0.30000000000E+02 0. -1.
    -200000    1    3    3    0    0  0.49320862493E+02 -0.18589599032E+03 -0.81732837373E+02  0.23210153683E+03  0.10100000000E+03 0. -1.
<mgrwt>
<rscale>  0 0.15665822E+04</rscale>
<asrwt>0</asrwt>
<pdfrwt beam="1">  1        2 0.22672289E+00 0.15665822E+04</pdfrwt>
<pdfrwt beam="2">  1       -2 0.55227444E-01 0.15665822E+04</pdfrwt>
<totfact> 0.39018027E+01</totfact>
</mgrwt>
</event>
<event>
 8    2  0.4480234E-052  0.1292018E+04  0.7818608E-02  0.9035919E-01
         -2   -1    0    0    0  501 -0.00000000000E+00  0.00000000000E+00  0.16903053675E+03  0.16903053677E+03  0.25500000000E-02 0. -1.
          2   -1    0    0  501    0  0.00000000000E+00 -0.00000000000E+00 -0.24689500112E+04  0.24689500112E+04  0.25500000000E-02 0.  1.
    -200001    2    1    2    0    0 -0.12849248396E+03 -0.94316242780E+02 -0.88993939955E+03  0.10922707810E+04  0.61290900798E+03 0.  0.
   -5000001    2    3    3    0    0  0.12564471485E+03  0.10371637134E+03 -0.65412996917E+03  0.68043377497E+03  0.92522567516E+02 0.  0.
     200001    1    1    2    0    0  0.12849248396E+03  0.94316242780E+02 -0.14099800749E+04  0.15457097670E+04  0.61300000000E+03 0.  1.
         13    1    4    4    0    0  0.80463023038E+02  0.13282502784E+02 -0.26454842889E+03  0.27683317241E+03  0.10566000000E+00 0.  1.
    -200003    1    4    4    0    0  0.45181691817E+02  0.90433868553E+02 -0.38958154028E+03  0.40360060256E+03  0.30000000000E+02 0.  1.
    -200000    1    3    3    0    0 -0.25413719882E+03 -0.19803261412E+03 -0.23580943038E+03  0.41183700602E+03  0.10100000000E+03 0. -1.
<mgrwt>
<rscale>  0 0.12920185E+04</rscale>
<asrwt>0</asrwt>
<pdfrwt beam="1">  1        2 0.35270712E+00 0.12920185E+04</pdfrwt>
<pdfrwt beam="2">  1       -2 0.24147221E-01 0.12920185E+04</pdfrwt>
<totfact> 0.68823771E+01</totfact>
</mgrwt>
</event>
<event>
 8    2  0.4480234E-052  0.1996650E+04  0.7818608E-02  0.8608188E-01
          2   -1    0    0  501    0  0.00000000000E+00  0.00000000000E+00  0.59368639764E+03  0.59368639764E+03  0.25500000000E-02 0.  1.
         -2   -1    0    0    0  501 -0.00000000000E+00 -0.00000000000E+00 -0.16787533633E+04  0.16787533633E+04  0.25500000000E-02 0. -1.
    -200001    2    1    2    0    0 -0.40245305990E+03  0.53627571874E+03 -0.69750944147E+02  0.91001701617E+03  0.61131470093E+03 0.  0.
   -5000001    2    3    3    0    0  0.20319862559E+02 -0.51292101484E+02  0.10702122702E+03  0.15807134804E+03  0.10241694951E+03 0.  0.
     200001    1    1    2    0    0  0.40245305990E+03 -0.53627571874E+03 -0.10153160215E+04  0.13624227448E+04  0.61300000000E+03 0.  1.
         13    1    4    4    0    0 -0.32731945067E+02 -0.25718242658E+00  0.13703976724E+02  0.35486004463E+02  0.10566000000E+00 0.  1.
    -200003    1    4    4    0    0  0.53051807625E+02 -0.51034919057E+02  0.93317250300E+02  0.12258534357E+03  0.30000000000E+02 0.  1.
    -200000    1    3    3    0    0 -0.42277292246E+03  0.58756782022E+03 -0.17677217117E+03  0.75194566813E+03  0.10100000000E+03 0. -1.
<mgrwt>
<rscale>  0 0.19966502E+04</rscale>
<asrwt>0</asrwt>
<pdfrwt beam="1">  1        2 0.84812344E-01 0.19966502E+04</pdfrwt>
<pdfrwt beam="2">  1       -2 0.23982191E+00 0.19966502E+04</pdfrwt>
<totfact> 0.38039382E+00</totfact>
</mgrwt>
</event>
<event>
 8    2  0.4480234E-052  0.1542243E+04  0.7818608E-02  0.8856838E-01
          2   -1    0    0  501    0  0.00000000000E+00  0.00000000000E+00  0.31632331745E+04  0.31632331745E+04  0.25500000000E-02 0.  1.
         -2   -1    0    0    0  501 -0.00000000000E+00 -0.00000000000E+00 -0.18798108920E+03  0.18798108921E+03  0.25500000000E-02 0. -1.
    -200001    2    1    2    0    0  0.20745469430E+03 -0.41640652194E+03  0.16051948733E+04  0.17798271040E+04  0.61212915060E+03 0.  0.
   -5000001    2    3    3    0    0  0.25299601680E+02 -0.48741183572E+03  0.78162624354E+03  0.92736682906E+03  0.10420788647E+03 0.  0.
     200001    1    1    2    0    0 -0.20745469430E+03  0.41640652194E+03  0.13700572120E+04  0.15713871598E+04  0.61300000000E+03 0. -1.
         13    1    4    4    0    0  0.38862365116E+02 -0.43585996961E+03  0.67464280873E+03  0.80413128721E+03  0.10566000000E+00 0.  1.
    -200003    1    4    4    0    0 -0.13562763437E+02 -0.51551866110E+02  0.10698343481E+03  0.12323554185E+03  0.30000000000E+02 0.  1.
    -200000    1    3    3    0    0  0.18215509262E+03  0.71005313786E+02  0.82356862977E+03  0.85246027491E+03  0.10100000000E+03 0.  1.
<mgrwt>
<rscale>  0 0.15422425E+04</rscale>
<asrwt>0</asrwt>
<pdfrwt beam="1">  1        2 0.45189045E+00 0.15422425E+04</pdfrwt>
<pdfrwt beam="2">  1       -2 0.26854442E-01 0.15422425E+04</pdfrwt>
<totfact> 0.23272096E+01</totfact>
</mgrwt>
</event>
<event>
 8    2  0.4480234E-052  0.1477541E+04  0.7818608E-02  0.8899527E-01
          2   -1    0    0  501    0  0.00000000000E+00  0.00000000000E+00  0.13694099651E+04  0.13694099651E+04  0.25500000000E-02 0.  1.
         -2   -1    0    0    0  501 -0.00000000000E+00 -0.00000000000E+00 -0.39855241861E+03  0.39855241861E+03  0.25500000000E-02 0. -1.
    -200001    2    1    2    0    0  0.10262588360E+03  0.37474037909E+03  0.65634974476E+03  0.97698414059E+03  0.61052485601E+03 0.  0.
   -5000001    2    3    3    0    0  0.27397594686E+03  0.10553679489E+03  0.54222480534E+03  0.62335026817E+03  0.91416534431E+02 0.  0.
     200001    1    1    2    0    0 -0.10262588360E+03 -0.37474037909E+03  0.31450780169E+03  0.79097824309E+03  0.61300000000E+03 0.  1.
         13    1    4    4    0    0  0.13373405887E+03  0.61439456550E+02  0.18872034139E+03  0.23932192491E+03  0.10566000000E+00 0.  1.
    -200003    1    4    4    0    0  0.14024188798E+03  0.44097338341E+02  0.35350446395E+03  0.38402834326E+03  0.30000000000E+02 0. -1.
    -200000    1    3    3    0    0 -0.17135006326E+03  0.26920358420E+03  0.11412493942E+03  0.35363387242E+03  0.10100000000E+03 0. -1.
<mgrwt>
<rscale>  0 0.14775407E+04</rscale>
<asrwt>0</asrwt>
<pdfrwt beam="1">  1        2 0.19563000E+00 0.14775407E+04</pdfrwt>
<pdfrwt beam="2">  1       -2 0.56936060E-01 0.14775407E+04</pdfrwt>
<totfact> 0.48188780E+01</totfact>
</mgrwt>
</event>
<event>
 8    2  0.4480234E-052  0.1682898E+04  0.7818608E-02  0.8771179E-01
         -2   -1    0    0    0  501 -0.00000000000E+00  0.00000000000E+00  0.39236455216E+03  0.39236455217E+03  0.25500000000E-02 0. -1.
          2   -1    0    0  501    0  0.00000000000E+00 -0.00000000000E+00 -0.18045364832E+04  0.18045364832E+04  0.25500000000E-02 0.  1.
    -200001    2    1    2    0    0  0.54638292598E+03  0.17814598040E+03 -0.78786258729E+03  0.11500956815E+04  0.60969035427E+03 0.  0.
   -5000001    2    3    3    0    0  0.22788778799E+03  0.18338318518E+03 -0.75648095646E+03  0.81445839517E+03  0.74275187416E+02 0.  0.
     200001    1    1    2    0    0 -0.54638292598E+03 -0.17814598040E+03 -0.62430934376E+03  0.10468053538E+04  0.61300000000E+03 0. -1.
         13    1    4    4    0    0  0.16210175344E+03  0.10222946789E+03 -0.44327890664E+03  0.48293275185E+03  0.10566000000E+00 0.  1.
    -200003    1    4    4    0    0  0.65786034548E+02  0.81153717285E+02 -0.31320204981E+03  0.33152564332E+03  0.30000000000E+02 0.  1.
    -200000    1    3    3    0    0  0.31849513799E+03 -0.52372047767E+01 -0.31381630830E+02  0.33563728635E+03  0.10100000000E+03 0.  1.
<mgrwt>
<rscale>  0 0.16828977E+04</rscale>
<asrwt>0</asrwt>
<pdfrwt beam="1">  1        2 0.25779092E+00 0.16828977E+04</pdfrwt>
<pdfrwt beam="2">  1       -2 0.56052080E-01 0.16828977E+04</pdfrwt>
<totfact> 0.28887531E+01</totfact>
</mgrwt>
</event>
<event>
 8    2  0.4480234E-052  0.1904177E+04  0.7818608E-02  0.8652780E-01
         -2   -1    0    0    0  501 -0.00000000000E+00  0.00000000000E+00  0.60073392234E+03  0.60073392235E+03  0.25500000000E-02 0. -1.
          2   -1    0    0  501    0  0.00000000000E+00 -0.00000000000E+00 -0.15089421329E+04  0.15089421329E+04  0.25500000000E-02 0.  1.
    -200001    2    1    2    0    0 -0.18554469167E+03 -0.35615309293E+03 -0.11275086342E+04  0.13447358392E+04  0.61299828625E+03 0.  0.
   -5000001    2    3    3    0    0 -0.78007655164E+02  0.11444315483E+03 -0.43332618934E+03  0.49319881164E+03  0.19050210363E+03 0.  0.
     200001    1    1    2    0    0  0.18554469167E+03  0.35615309293E+03  0.21930042367E+03  0.76494021599E+03  0.61300000000E+03 0. -1.
         13    1    4    4    0    0  0.31657372030E+02  0.24137848890E+02 -0.27700034947E+03  0.27984643954E+03  0.10566000000E+00 0.  1.
    -200003    1    4    4    0    0 -0.10966502719E+03  0.90305305939E+02 -0.15632583987E+03  0.21335237210E+03  0.30000000000E+02 0.  1.
    -200000    1    3    3    0    0 -0.10753703650E+03 -0.47059624776E+03 -0.69418244485E+03  0.85153702760E+03  0.10100000000E+03 0.  1.
<mgrwt>
<rscale>  0 0.19041772E+04</rscale>
<asrwt>0</asrwt>
<pdfrwt beam="1">  1        2 0.21556316E+00 0.19041772E+04</pdfrwt>
<pdfrwt beam="2">  1       -2 0.85819132E-01 0.19041772E+04</pdfrwt>
<totfact> 0.16015908E+01</totfact>
</mgrwt>
</event>
<event>
 8    2  0.4480234E-052  0.1382243E+04  0.7818608E-02  0.8966773E-01
          2   -1    0    0  501    0  0.00000000000E+00  0.00000000000E+00  0.20251649988E+04  0.20251649988E+04  0.25500000000E-02 0.  1.
         -2   -1    0    0    0  501 -0.00000000000E+00 -0.00000000000E+00 -0.23585695136E+03  0.23585695137E+03  0.25500000000E-02 0. -1.
    -200001    2    1    2    0    0  0.20416034522E+03  0.18507204738E+03  0.61916952408E+03  0.91160493786E+03  0.60968807918E+03 0.  0.
   -5000001    2    3    3    0    0  0.33084983950E+03 -0.88517078933E+02  0.32235028405E+03  0.47662919227E+03  0.77257955813E+02 0.  0.
     200001    1    1    2    0    0 -0.20416034522E+03 -0.18507204738E+03  0.11701385234E+04  0.13494170124E+04  0.61300000000E+03 0.  1.
         13    1    4    4    0    0  0.50438700111E+02 -0.86767241080E+00  0.20829174716E+02  0.54577293884E+02  0.10566000000E+00 0.  1.
    -200003    1    4    4    0    0  0.28041113939E+03 -0.87649406523E+02  0.30152110933E+03  0.42205189839E+03  0.30000000000E+02 0.  1.
    -200000    1    3    3    0    0 -0.12668949429E+03  0.27358912631E+03  0.29681924004E+03  0.43497574559E+03  0.10100000000E+03 0.  1.
<mgrwt>
<rscale>  0 0.13822435E+04</rscale>
<asrwt>0</asrwt>
<pdfrwt beam="1">  1        2 0.28930929E+00 0.13822435E+04</pdfrwt>
<pdfrwt beam="2">  1       -2 0.33693849E-01 0.13822435E+04</pdfrwt>
<totfact> 0.62577502E+01</totfact>
</mgrwt>
</event>
<event>
 8    2  0.4480234E-052  0.1842995E+04  0.7818608E-02  0.8683764E-01
         -2   -1    0    0    0  501 -0.00000000000E+00  0.00000000000E+00  0.42473001236E+03  0.42473001237E+03  0.25500000000E-02 0. -1.
          2   -1    0    0  501    0  0.00000000000E+00 -0.00000000000E+00 -0.19992871353E+04  0.19992871353E+04  0.25500000000E-02 0.  1.
    -200001    2    1    2    0    0 -0.23839238358E+03  0.30098423385E+03 -0.15382522560E+04  0.16997868798E+04  0.61288905695E+03 0.  0.
   -5000001    2    3    3    0    0 -0.41932137042E+03  0.16930326832E+03 -0.91303151137E+03  0.10280896605E+04  0.13728729314E+03 0.  0.
     200001    1    1    2    0    0  0.23839238358E+03 -0.30098423385E+03 -0.36304866994E+02  0.72423026790E+03  0.61300000000E+03 0.  1.
         13    1    4    4    0    0 -0.18731033946E+03  0.93252096215E+01 -0.40608337211E+03  0.44729837813E+03  0.10566000000E+00 0.  1.
    -200003    1    4    4    0    0 -0.23201103097E+03  0.15997805869E+03 -0.50694813925E+03  0.58079128234E+03  0.30000000000E+02 0.  1.
    -200000    1    3    3    0    0  0.18092898684E+03  0.13168096553E+03 -0.62522074461E+03  0.67169721932E+03  0.10100000000E+03 0. -1.
<mgrwt>
<rscale>  0 0.18429946E+04</rscale>
<asrwt>0</asrwt>
<pdfrwt beam="1">  1        2 0.28561244E+00 0.18429946E+04</pdfrwt>
<pdfrwt beam="2">  1       -2 0.60675717E-01 0.18429946E+04</pdfrwt>
<totfact> 0.19163648E+01</totfact>
</mgrwt>
</event>
<event>
 8    2  0.4480234E-052  0.2464337E+04  0.7818608E-02  0.8415802E-01
         -2   -1    0    0    0  501 -0.00000000000E+00  0.00000000000E+00  0.38929240159E+03  0.38929240159E+03  0.25500000000E-02 0. -1.
          2   -1    0    0  501    0  0.00000000000E+00 -0.00000000000E+00 -0.38999985018E+04  0.38999985018E+04  0.25500000000E-02 0.  1.
    -200001    2    1    2    0    0 -0.64048338215E+03  0.84547422331E+03 -0.19836582508E+04  0.23315652435E+04  0.61339286235E+03 0.  0.
   -5000001    2    3    3    0    0  0.47468969899E+02  0.35448053430E+03 -0.49381188657E+03  0.61569915596E+03  0.85589245957E+02 0.  0.
     200001    1    1    2    0    0  0.64048338215E+03 -0.84547422331E+03 -0.15270478494E+04  0.19577256599E+04  0.61300000000E+03 0. -1.
         13    1    4    4    0    0  0.58492002006E+02  0.26107629912E+03 -0.38426552580E+03  0.46823301223E+03  0.10566000000E+00 0.  1.
    -200003    1    4    4    0    0 -0.11023032107E+02  0.93404235186E+02 -0.10954636078E+03  0.14746614373E+03  0.30000000000E+02 0.  1.
    -200000    1    3    3    0    0 -0.68795235205E+03  0.49099368900E+03 -0.14898463642E+04  0.17158660875E+04  0.10100000000E+03 0. -1.
<mgrwt>
<rscale>  0 0.24643375E+04</rscale>
<asrwt>0</asrwt>
<pdfrwt beam="1">  1        2 0.55714262E+00 0.24643375E+04</pdfrwt>
<pdfrwt beam="2">  1       -2 0.55613202E-01 0.24643375E+04</pdfrwt>
<totfact> 0.18219376E+00</totfact>
</mgrwt>
</event>
<event>
 8    2  0.4480234E-052  0.1292246E+04  0.7818608E-02  0.9035737E-01
          2   -1    0    0  501    0  0.00000000000E+00  0.00000000000E+00  0.17408134890E+04  0.17408134890E+04  0.25500000000E-02 0.  1.
         -2   -1    0    0    0  501 -0.00000000000E+00 -0.00000000000E+00 -0.23981609950E+03  0.23981609952E+03  0.25500000000E-02 0. -1.
    -200001    2    1    2    0    0 -0.17570065146E+03  0.70563467726E+02  0.63848509846E+03  0.90566615934E+03  0.61377361406E+03 0.  0.
   -5000001    2    3    3    0    0 -0.14129342412E+03 -0.60828339413E+02  0.69296466144E+03  0.72785534117E+03  0.16096414846E+03 0.  0.
     200001    1    1    2    0    0  0.17570065146E+03 -0.70563467726E+02  0.86251229107E+03  0.10749634292E+04  0.61300000000E+03 0.  1.
         13    1    4    4    0    0 -0.40710898524E+02 -0.84857459844E+02  0.17385722965E+03  0.19769803544E+03  0.10566000000E+00 0.  1.
    -200003    1    4    4    0    0 -0.10058252559E+03  0.24029120431E+02  0.51910743179E+03  0.53015730573E+03  0.30000000000E+02 0.  1.
    -200000    1    3    3    0    0 -0.34407227344E+02  0.13139180714E+03 -0.54479562978E+02  0.17781081817E+03  0.10100000000E+03 0. -1.
<mgrwt>
<rscale>  0 0.12922463E+04</rscale>
<asrwt>0</asrwt>
<pdfrwt beam="1">  1        2 0.24868763E+00 0.12922463E+04</pdfrwt>
<pdfrwt beam="2">  1       -2 0.34259444E-01 0.12922463E+04</pdfrwt>
<totfact> 0.85485107E+01</totfact>
</mgrwt>
</event>
<event>
 8    2  0.4480234E-052  0.1489693E+04  0.7818608E-02  0.8891336E-01
          2   -1    0    0  501    0  0.00000000000E+00  0.00000000000E+00  0.32341602174E+04  0.32341602174E+04  0.25500000000E-02 0.  1.
         -2   -1    0    0    0  501 -0.00000000000E+00 -0.00000000000E+00 -0.17154255103E+03  0.17154255105E+03  0.25500000000E-02 0. -1.
    -200001    2    1    2    0    0  0.40839124775E+03  0.19455639693E+02  0.12838694457E+04  0.14803778178E+04  0.61321757688E+03 0.  0.
   -5000001    2    3    3    0    0 -0.12179304585E+03 -0.99757701798E+02  0.25813752479E+03  0.31520221747E+03  0.89063522885E+02 0.  0.
     200001    1    1    2    0    0 -0.40839124775E+03 -0.19455639693E+02  0.17787482206E+04  0.19253249506E+04  0.61300000000E+03 0.  1.
         13    1    4    4    0    0 -0.64596418122E+02 -0.38984491075E+02  0.18655173773E+03  0.20123133403E+03  0.10566000000E+00 0.  1.
    -200003    1    4    4    0    0 -0.57196627727E+02 -0.60773210723E+02  0.71585787061E+02  0.11397088345E+03  0.30000000000E+02 0.  1.
    -200000    1    3    3    0    0  0.53018429360E+03  0.11921334149E+03  0.10257319209E+04  0.11651756003E+04  0.10100000000E+03 0. -1.
<mgrwt>
<rscale>  0 0.14896927E+04</rscale>
<asrwt>0</asrwt>
<pdfrwt beam="1">  1        2 0.46202291E+00 0.14896927E+04</pdfrwt>
<pdfrwt beam="2">  1       -2 0.24506078E-01 0.14896927E+04</pdfrwt>
<totfact> 0.25147517E+01</totfact>
</mgrwt>
</event>
<event>
 8    2  0.4480234E-052  0.1822778E+04  0.7818608E-02  0.8694279E-01
         -2   -1    0    0    0  501 -0.00000000000E+00  0.00000000000E+00  0.41221205940E+03  0.41221205941E+03  0.25500000000E-02 0. -1.
          2   -1    0    0  501    0  0.00000000000E+00 -0.00000000000E+00 -0.20150554390E+04  0.20150554390E+04  0.25500000000E-02 0.  1.
    -200001    2    1    2    0    0 -0.62505326734E+03  0.42909861694E+02 -0.11339095711E+04  0.14331846246E+04  0.61297178528E+03 0.  0.
   -5000001    2    3    3    0    0 -0.22808840334E+03  0.24181442753E+03 -0.20863569677E+03  0.40193447451E+03  0.86740594527E+02 0.  0.
     200001    1    1    2    0    0  0.62505326734E+03 -0.42909861694E+02 -0.46893380853E+03  0.99408287383E+03  0.61300000000E+03 0. -1.
         13    1    4    4    0    0 -0.17316830829E+03  0.20953685867E+03 -0.15110994562E+03  0.31100994352E+03  0.10566000000E+00 0.  1.
    -200003    1    4    4    0    0 -0.54920095053E+02  0.32277568854E+02 -0.57525751151E+02  0.90924530999E+02  0.30000000000E+02 0. -1.
    -200000    1    3    3    0    0 -0.39696486400E+03 -0.19890456583E+03 -0.92527387431E+03  0.10312501501E+04  0.10100000000E+03 0. -1.
<mgrwt>
<rscale>  0 0.18227783E+04</rscale>
<asrwt>0</asrwt>
<pdfrwt beam="1">  1        2 0.28786506E+00 0.18227783E+04</pdfrwt>
<pdfrwt beam="2">  1       -2 0.58887438E-01 0.18227783E+04</pdfrwt>
<totfact> 0.20067552E+01</totfact>
</mgrwt>
</event>
<event>
 8    2  0.4480234E-052  0.1656687E+04  0.7818608E-02  0.8786460E-01
         -2   -1    0    0    0  501 -0.00000000000E+00  0.00000000000E+00  0.54359200777E+03  0.54359200778E+03  0.25500000000E-02 0. -1.
          2   -1    0    0  501    0  0.00000000000E+00 -0.00000000000E+00 -0.12622571039E+04  0.12622571039E+04  0.25500000000E-02 0.  1.
    -200001    2    1    2    0    0 -0.17674782359E+03  0.15093699630E+03  0.19317177758E+03  0.68280091403E+03  0.61227443402E+03 0.  0.
   -5000001    2    3    3    0    0  0.11203429443E+03 -0.10454196622E+03  0.57233581008E+02  0.26167764791E+03  0.20425181221E+03 0.  0.
     200001    1    1    2    0    0  0.17674782359E+03 -0.15093699630E+03 -0.91183687374E+03  0.11230481977E+04  0.61300000000E+03 0.  1.
         13    1    4    4    0    0  0.42108827064E+02 -0.14112760511E+03 -0.18280549610E+02  0.14840601032E+03  0.10566000000E+00 0.  1.
    -200003    1    4    4    0    0  0.69925467370E+02  0.36585638889E+02  0.75514130617E+02  0.11327163759E+03  0.30000000000E+02 0.  1.
    -200000    1    3    3    0    0 -0.28878211802E+03  0.25547896253E+03  0.13593819657E+03  0.42112326612E+03  0.10100000000E+03 0. -1.
<mgrwt>
<rscale>  0 0.16566869E+04</rscale>
<asrwt>0</asrwt>
<pdfrwt beam="1">  1        2 0.18032244E+00 0.16566869E+04</pdfrwt>
<pdfrwt beam="2">  1       -2 0.77656001E-01 0.16566869E+04</pdfrwt>
<totfact> 0.27872673E+01</totfact>
</mgrwt>
</event>
<event>
 8    2  0.4480234E-052  0.1384910E+04  0.7818608E-02  0.8964815E-01
         -2   -1    0    0    0  501 -0.00000000000E+00  0.00000000000E+00  0.47791179612E+03  0.47791179612E+03  0.25500000000E-02 0. -1.
          2   -1    0    0  501    0  0.00000000000E+00 -0.00000000000E+00 -0.10033103907E+04  0.10033103907E+04  0.25500000000E-02 0.  1.
    -200001    2    1    2    0    0  0.36497361095E+02 -0.13314115716E+03 -0.57374317106E+03  0.85101204472E+03  0.61317342475E+03 0.  0.
   -5000001    2    3    3    0    0  0.90678153235E+02 -0.76911434411E+02 -0.63262643928E+03  0.71042193400E+03  0.30057481001E+03 0.  0.
     200001    1    1    2    0    0 -0.36497361095E+02  0.13314115716E+03  0.48344576508E+02  0.63021014207E+03  0.61300000000E+03 0. -1.
         13    1    4    4    0    0 -0.10270022030E+03 -0.75504120229E+02 -0.24216644815E+03  0.27366550239E+03  0.10566000000E+00 0.  1.
    -200003    1    4    4    0    0  0.19337837353E+03 -0.14073141821E+01 -0.39045999112E+03  0.43675643161E+03  0.30000000000E+02 0.  1.
    -200000    1    3    3    0    0 -0.54180792140E+02 -0.56229722747E+02  0.58883268218E+02  0.14059011072E+03  0.10100000000E+03 0. -1.
<mgrwt>
<rscale>  0 0.13849099E+04</rscale>
<asrwt>0</asrwt>
<pdfrwt beam="1">  1        2 0.14333006E+00 0.13849099E+04</pdfrwt>
<pdfrwt beam="2">  1       -2 0.68273114E-01 0.13849099E+04</pdfrwt>
<totfact> 0.53544074E+01</totfact>
</mgrwt>
</event>
<event>
 8    2  0.4480234E-052  0.1365324E+04  0.7818608E-02  0.8979309E-01
         -2   -1    0    0    0  501 -0.00000000000E+00  0.00000000000E+00  0.19996199284E+03  0.19996199286E+03  0.25500000000E-02 0.  1.
          2   -1    0    0  501    0  0.00000000000E+00 -0.00000000000E+00 -0.23305785364E+04  0.23305785364E+04  0.25500000000E-02 0. -1.
    -200001    2    1    2    0    0  0.56129892475E+02  0.17698697418E+03 -0.15034355436E+04  0.16341031580E+04  0.61278033859E+03 0.  0.
   -5000001    2    3    3    0    0  0.15541392597E+03  0.15924801655E+03 -0.16305374939E+03  0.28614309027E+03  0.76012655271E+02 0.  0.
     200001    1    1    2    0    0 -0.56129892475E+02 -0.17698697418E+03 -0.62718099992E+03  0.89643737122E+03  0.61300000000E+03 0.  1.
         13    1    4    4    0    0  0.10146776205E+02  0.24155950817E+02 -0.48469229925E+02  0.55097590154E+02  0.10566000000E+00 0.  1.
    -200003    1    4    4    0    0  0.14526714977E+03  0.13509206573E+03 -0.11458451946E+03  0.23104550012E+03  0.30000000000E+02 0.  1.
    -200000    1    3    3    0    0 -0.99284033496E+02  0.17738957632E+02 -0.13403817942E+04  0.13479600677E+04  0.10100000000E+03 0. -1.
<mgrwt>
<rscale>  0 0.13653236E+04</rscale>
<asrwt>0</asrwt>
<pdfrwt beam="1">  1        2 0.33293978E+00 0.13653236E+04</pdfrwt>
<pdfrwt beam="2">  1       -2 0.28566000E-01 0.13653236E+04</pdfrwt>
<totfact> 0.59426905E+01</totfact>
</mgrwt>
</event>
<event>
 8    2  0.4480234E-052  0.1601019E+04  0.7818608E-02  0.8819922E-01
          2   -1    0    0  501    0  0.00000000000E+00  0.00000000000E+00  0.52784055542E+03  0.52784055542E+03  0.25500000000E-02 0.  1.
         -2   -1    0    0    0  501 -0.00000000000E+00 -0.00000000000E+00 -0.12140325948E+04  0.12140325948E+04  0.25500000000E-02 0. -1.
    -200001    2    1    2    0    0 -0.86696000608E+01  0.48350838766E+03 -0.13612956858E+03  0.78678506809E+03  0.60551132196E+03 0.  0.
   -5000001    2    3    3    0    0 -0.19715459461E+03 -0.13198002432E+02  0.46312937214E+02  0.21605737553E+03  0.74106544409E+02 0.  0.
     200001    1    1    2    0    0  0.86696000608E+01 -0.48350838766E+03 -0.55006247084E+03  0.95508808218E+03  0.61300000000E+03 0. -1.
         13    1    4    4    0    0 -0.13662849877E+02  0.13413770550E+02 -0.76769263724E+01  0.20628840726E+02  0.10566000000E+00 0.  1.
    -200003    1    4    4    0    0 -0.18349174473E+03 -0.26611772982E+02  0.53989863587E+02  0.19542853481E+03  0.30000000000E+02 0.  1.
    -200000    1    3    3    0    0  0.18848499455E+03  0.49670639009E+03 -0.18244250580E+03  0.57072769255E+03  0.10100000000E+03 0. -1.
<mgrwt>
<rscale>  0 0.16010192E+04</rscale>
<asrwt>0</asrwt>
<pdfrwt beam="1">  1        2 0.75405794E-01 0.16010192E+04</pdfrwt>
<pdfrwt beam="2">  1       -2 0.17343323E+00 0.16010192E+04</pdfrwt>
<totfact> 0.12204689E+01</totfact>
</mgrwt>
</event>
<event>
 8    2  0.4480234E-052  0.1462570E+04  0.7818608E-02  0.8909732E-01
         -2   -1    0    0    0  501 -0.00000000000E+00  0.00000000000E+00  0.20888018647E+03  0.20888018648E+03  0.25500000000E-02 0. -1.
          2   -1    0    0  501    0  0.00000000000E+00 -0.00000000000E+00 -0.25602144940E+04  0.25602144940E+04  0.25500000000E-02 0.  1.
    -200001    2    1    2    0    0 -0.23827897847E+03 -0.12857415641E+03 -0.61729209882E+03  0.91006816995E+03  0.61144611652E+03 0.  0.
   -5000001    2    3    3    0    0 -0.19932698062E+03  0.16363458418E+03 -0.17886687665E+03  0.37218260438E+03  0.20004751711E+03 0.  0.
     200001    1    1    2    0    0  0.23827897847E+03  0.12857415641E+03 -0.17340422087E+04  0.18590265106E+04  0.61300000000E+03 0.  1.
         13    1    4    4    0    0 -0.75055386590E+02 -0.10304017250E+02  0.20343377220E+02  0.78443278796E+02  0.10566000000E+00 0.  1.
    -200003    1    4    4    0    0 -0.12427159403E+03  0.17393860143E+03 -0.19921025387E+03  0.29373932558E+03  0.30000000000E+02 0.  1.
    -200000    1    3    3    0    0 -0.38951997855E+02 -0.29220874059E+03 -0.43842522217E+03  0.53788556557E+03  0.10100000000E+03 0.  1.
<mgrwt>
<rscale>  0 0.14625705E+04</rscale>
<asrwt>0</asrwt>
<pdfrwt beam="1">  1        2 0.36574491E+00 0.14625705E+04</pdfrwt>
<pdfrwt beam="2">  1       -2 0.29840028E-01 0.14625705E+04</pdfrwt>
<totfact> 0.41242984E+01</totfact>
</mgrwt>
</event>
<event>
 8    2  0.4480234E-052  0.1660601E+04  0.7818608E-02  0.8784160E-01
          2   -1    0    0  501    0  0.00000000000E+00  0.00000000000E+00  0.16053788819E+04  0.16053788819E+04  0.25500000000E-02 0.  1.
         -2   -1    0    0    0  501 -0.00000000000E+00 -0.00000000000E+00 -0.42943074703E+03  0.42943074704E+03  0.25500000000E-02 0. -1.
    -200001    2    1    2    0    0 -0.47198045286E+03 -0.41503070329E+02  0.95358554404E+03  0.12287685788E+04  0.61323631472E+03 0.  0.
   -5000001    2    3    3    0    0 -0.13153508090E+03 -0.27673049195E+03  0.58823330450E+03  0.66759280410E+03  0.76029526330E+02 0.  0.
     200001    1    1    2    0    0  0.47198045286E+03  0.41503070329E+02  0.22236259083E+03  0.80604105015E+03  0.61300000000E+03 0. -1.
         13    1    4    4    0    0 -0.47273658837E+02 -0.37879725054E+02  0.10759174654E+03  0.12347334724E+03  0.10566000000E+00 0.  1.
    -200003    1    4    4    0    0 -0.84261422068E+02 -0.23885076690E+03  0.48064155795E+03  0.54411945686E+03  0.30000000000E+02 0.  1.
    -200000    1    3    3    0    0 -0.34044537195E+03  0.23522742162E+03  0.36535223955E+03  0.56117577470E+03  0.10100000000E+03 0. -1.
<mgrwt>
<rscale>  0 0.16606012E+04</rscale>
<asrwt>0</asrwt>
<pdfrwt beam="1">  1        2 0.22933984E+00 0.16606012E+04</pdfrwt>
<pdfrwt beam="2">  1       -2 0.61347249E-01 0.16606012E+04</pdfrwt>
<totfact> 0.30385386E+01</totfact>
</mgrwt>
</event>
<event>
 8    2  0.4480234E-052  0.1288132E+04  0.7818608E-02  0.9039030E-01
         -2   -1    0    0    0  501 -0.00000000000E+00  0.00000000000E+00  0.25244031374E+03  0.25244031375E+03  0.25500000000E-02 0. -1.
          2   -1    0    0  501    0  0.00000000000E+00 -0.00000000000E+00 -0.16432432125E+04  0.16432432125E+04  0.25500000000E-02 0.  1.
    -200001    2    1    2    0    0  0.54962357045E+02  0.13990036160E+03 -0.54351817089E+03  0.83915459530E+03  0.62143017375E+03 0.  0.
   -5000001    2    3    3    0    0 -0.25191998808E+03 -0.44420356698E+02 -0.26943766958E+03  0.37712426930E+03  0.64724093029E+02 0.  0.
     200001    1    1    2    0    0 -0.54962357045E+02 -0.13990036160E+03 -0.84728472791E+03  0.10565289310E+04  0.61300000000E+03 0. -1.
         13    1    4    4    0    0 -0.50762498297E+02 -0.27315712891E+02 -0.40695252720E+02  0.70562696675E+02  0.10566000000E+00 0.  1.
    -200003    1    4    4    0    0 -0.20115748979E+03 -0.17104643806E+02 -0.22874241686E+03  0.30656157262E+03  0.30000000000E+02 0.  1.
    -200000    1    3    3    0    0  0.30688234513E+03  0.18432071830E+03 -0.27408050131E+03  0.46203032600E+03  0.10100000000E+03 0. -1.
<mgrwt>
<rscale>  0 0.12881317E+04</rscale>
<asrwt>0</asrwt>
<pdfrwt beam="1">  1        2 0.23474903E+00 0.12881317E+04</pdfrwt>
<pdfrwt beam="2">  1       -2 0.36062903E-01 0.12881317E+04</pdfrwt>
<totfact> 0.87124979E+01</totfact>
</mgrwt>
</event>
<event>
 8    2  0.4480234E-052  0.1670327E+04  0.7818608E-02  0.8778471E-01
         -2   -1    0    0    0  501 -0.00000000000E+00  0.00000000000E+00  0.22893571295E+03  0.22893571296E+03  0.25500000000E-02 0. -1.
          2   -1    0    0  501    0  0.00000000000E+00 -0.00000000000E+00 -0.30466986166E+04  0.30466986166E+04  0.25500000000E-02 0.  1.
    -200001    2    1    2    0    0 -0.72068091049E+02  0.26001370664E+03 -0.23875917755E+04  0.24796336154E+04  0.61252546323E+03 0.  0.
   -5000001    2    3    3    0    0 -0.14242169165E+03 -0.10775860429E+03 -0.14398142227E+04  0.14555782501E+04  0.11724841628E+03 0.  0.
     200001    1    1    2    0    0  0.72068091049E+02 -0.26001370664E+03 -0.43017112820E+03  0.79600071415E+03  0.61300000000E+03 0. -1.
         13    1    4    4    0    0 -0.11382052840E+03 -0.55824625650E+02 -0.12016430051E+04  0.12083118076E+04  0.10566000000E+00 0.  1.
    -200003    1    4    4    0    0 -0.28601163258E+02 -0.51933978637E+02 -0.23817121761E+03  0.24726644248E+03  0.30000000000E+02 0. -1.
    -200000    1    3    3    0    0  0.70353600606E+02  0.36777231093E+03 -0.94777755275E+03  0.10240553653E+04  0.10100000000E+03 0. -1.
<mgrwt>
<rscale>  0 0.16703271E+04</rscale>
<asrwt>0</asrwt>
<pdfrwt beam="1">  1        2 0.43524264E+00 0.16703271E+04</pdfrwt>
<pdfrwt beam="2">  1       -2 0.32705104E-01 0.16703271E+04</pdfrwt>
<totfact> 0.18562441E+01</totfact>
</mgrwt>
</event>
<event>
 8    2  0.4480234E-052  0.1488595E+04  0.7818608E-02  0.8892073E-01
          2   -1    0    0  501    0  0.00000000000E+00  0.00000000000E+00  0.94930578971E+03  0.94930578971E+03  0.25500000000E-02 0.  1.
         -2   -1    0    0    0  501 -0.00000000000E+00 -0.00000000000E+00 -0.58356198178E+03  0.58356198178E+03  0.25500000000E-02 0. -1.
    -200001    2    1    2    0    0  0.21265613719E+03  0.10158362327E+02  0.55840790944E+03  0.85595250278E+03  0.61278827394E+03 0.  0.
   -5000001    2    3    3    0    0  0.24717972790E+02 -0.24079178694E+03  0.64594876559E+02  0.26236254119E+03  0.77909833194E+02 0.  0.
     200001    1    1    2    0    0 -0.21265613719E+03 -0.10158362327E+02 -0.19266410151E+03  0.67691526871E+03  0.61300000000E+03 0. -1.
         13    1    4    4    0    0 -0.99087687252E+01 -0.13529617420E+03  0.56845544999E+02  0.14708727206E+03  0.10566000000E+00 0.  1.
    -200003    1    4    4    0    0  0.34626741515E+02 -0.10549561274E+03  0.77493315596E+01  0.11527526914E+03  0.30000000000E+02 0.  1.
    -200000    1    3    3    0    0  0.18793816440E+03  0.25095014926E+03  0.49381303288E+03  0.59358996158E+03  0.10100000000E+03 0.  1.
<mgrwt>
<rscale>  0 0.14885950E+04</rscale>
<asrwt>0</asrwt>
<pdfrwt beam="1">  1        2 0.13561511E+00 0.14885950E+04</pdfrwt>
<pdfrwt beam="2">  1       -2 0.83365997E-01 0.14885950E+04</pdfrwt>
<totfact> 0.36877881E+01</totfact>
</mgrwt>
</event>
<event>
 8    2  0.4480234E-052  0.1264799E+04  0.7818608E-02  0.9057955E-01
         -2   -1    0    0    0  501 -0.00000000000E+00  0.00000000000E+00  0.24340134544E+03  0.24340134545E+03  0.25500000000E-02 0. -1.
          2   -1    0    0  501    0  0.00000000000E+00 -0.00000000000E+00 -0.16430857129E+04  0.16430857129E+04  0.25500000000E-02 0.  1.
    -200001    2    1    2    0    0 -0.11930389191E+03 -0.54930820670E+02 -0.82361606883E+03  0.10350914403E+04  0.61304163590E+03 0.  0.
   -5000001    2    3    3    0    0  0.14290365143E+03 -0.34933054783E+02 -0.71228408427E+03  0.73219126336E+03  0.84342501348E+02 0.  0.
     200001    1    1    2    0    0  0.11930389191E+03  0.54930820670E+02 -0.57606829864E+03  0.85139561802E+03  0.61300000000E+03 0. -1.
         13    1    4    4    0    0  0.10985853078E+03 -0.32494728073E+02 -0.60850524804E+03  0.61919581086E+03  0.10566000000E+00 0.  1.
    -200003    1    4    4    0    0  0.33045120655E+02 -0.24383267098E+01 -0.10377883623E+03  0.11299545250E+03  0.30000000000E+02 0. -1.
    -200000    1    3    3    0    0 -0.26220754334E+03 -0.19997765887E+02 -0.11133198456E+03  0.30290017697E+03  0.10100000000E+03 0. -1.
<mgrwt>
<rscale>  0 0.12647992E+04</rscale>
<asrwt>0</asrwt>
<pdfrwt beam="1">  1        2 0.23472652E+00 0.12647992E+04</pdfrwt>
<pdfrwt beam="2">  1       -2 0.34771622E-01 0.12647992E+04</pdfrwt>
<totfact> 0.93591039E+01</totfact>
</mgrwt>
</event>
<event>
 8    2  0.4480234E-052  0.1589106E+04  0.7818608E-02  0.8827269E-01
          2   -1    0    0  501    0  0.00000000000E+00  0.00000000000E+00  0.12101687215E+04  0.12101687215E+04  0.25500000000E-02 0.  1.
         -2   -1    0    0    0  501 -0.00000000000E+00 -0.00000000000E+00 -0.52167486638E+03  0.52167486639E+03  0.25500000000E-02 0. -1.
    -200001    2    1    2    0    0 -0.22863212684E+03 -0.28699515838E+03 -0.33504527535E+02  0.71612239833E+03  0.61406014825E+03 0.  0.
   -5000001    2    3    3    0    0 -0.84338236680E+02 -0.33948324636E+03 -0.13882324449E+03  0.50429992960E+03  0.33568543766E+03 0.  0.
     200001    1    1    2    0    0  0.22863212684E+03  0.28699515838E+03  0.72199838262E+03  0.10157211895E+04  0.61300000000E+03 0.  1.
         13    1    4    4    0    0 -0.11315327187E+03 -0.12186243539E+03  0.87219972295E+02  0.18778032598E+03  0.10566000000E+00 0.  1.
    -200003    1    4    4    0    0  0.28815035187E+02 -0.21762081097E+03 -0.22604321679E+03  0.31651960362E+03  0.30000000000E+02 0.  1.
    -200000    1    3    3    0    0 -0.14429389016E+03  0.52488087982E+02  0.10531871696E+03  0.21182246873E+03  0.10100000000E+03 0.  1.
<mgrwt>
<rscale>  0 0.15891062E+04</rscale>
<asrwt>0</asrwt>
<pdfrwt beam="1">  1        2 0.17288124E+00 0.15891062E+04</pdfrwt>
<pdfrwt beam="2">  1       -2 0.74524982E-01 0.15891062E+04</pdfrwt>
<totfact> 0.32849260E+01</totfact>
</mgrwt>
</event>
<event>
 8    2  0.4480234E-052  0.1323014E+04  0.7818608E-02  0.9011511E-01
         -2   -1    0    0    0  501 -0.00000000000E+00  0.00000000000E+00  0.42484165009E+03  0.42484165009E+03  0.25500000000E-02 0. -1.
          2   -1    0    0  501    0  0.00000000000E+00 -0.00000000000E+00 -0.10300107299E+04  0.10300107299E+04  0.25500000000E-02 0.  1.
    -200001    2    1    2    0    0 -0.49511396755E+02 -0.24413410165E+03 -0.29343234174E+03  0.72341432256E+03  0.61251359569E+03 0.  0.
   -5000001    2    3    3    0    0  0.15512587153E+03 -0.30950699838E+03 -0.13361136760E+02  0.35627551086E+03  0.83036748513E+02 0.  0.
     200001    1    1    2    0    0  0.49511396755E+02  0.24413410165E+03 -0.31173673808E+03  0.73143805744E+03  0.61300000000E+03 0.  1.
         13    1    4    4    0    0  0.11075696696E+03 -0.17898938871E+03  0.19600501460E+02  0.21139654165E+03  0.10566000000E+00 0.  1.
    -200003    1    4    4    0    0  0.44368904572E+02 -0.13051760966E+03 -0.32961638220E+02  0.14487896921E+03  0.30000000000E+02 0. -1.
    -200000    1    3    3    0    0 -0.20463726828E+03  0.65372896723E+02 -0.28007120497E+03  0.36713881170E+03  0.10100000000E+03 0.  1.
<mgrwt>
<rscale>  0 0.13230139E+04</rscale>
<asrwt>0</asrwt>
<pdfrwt beam="1">  1        2 0.14714439E+00 0.13230139E+04</pdfrwt>
<pdfrwt beam="2">  1       -2 0.60691664E-01 0.13230139E+04</pdfrwt>
<totfact> 0.66653846E+01</totfact>
</mgrwt>
</event>
<event>
 8    2  0.4480234E-052  0.1971049E+04  0.7818608E-02  0.8620277E-01
         -2   -1    0    0    0  501 -0.00000000000E+00  0.00000000000E+00  0.54383929897E+03  0.54383929898E+03  0.25500000000E-02 0. -1.
          2   -1    0    0  501    0  0.00000000000E+00 -0.00000000000E+00 -0.17859286977E+04  0.17859286977E+04  0.25500000000E-02 0.  1.
    -200001    2    1    2    0    0 -0.47581498744E+03  0.59250639745E+03 -0.46140578577E+03  0.10796881445E+04  0.61267238956E+03 0.  0.
   -5000001    2    3    3    0    0  0.28246037197E+02  0.34560186017E+03 -0.28604174607E+03  0.48303672741E+03  0.17682226998E+03 0.  0.
     200001    1    1    2    0    0  0.47581498744E+03 -0.59250639745E+03 -0.78068361298E+03  0.12500798522E+04  0.61300000000E+03 0.  1.
         13    1    4    4    0    0 -0.40987331847E+02  0.70538268156E+01 -0.21531904162E+02  0.46833235054E+02  0.10566000000E+00 0.  1.
    -200003    1    4    4    0    0  0.69233369044E+02  0.33854803336E+03 -0.26450984191E+03  0.43620349236E+03  0.30000000000E+02 0.  1.
    -200000    1    3    3    0    0 -0.50406102464E+03  0.24690453728E+03 -0.17536403970E+03  0.59665141709E+03  0.10100000000E+03 0.  1.
<mgrwt>
<rscale>  0 0.19710487E+04</rscale>
<asrwt>0</asrwt>
<pdfrwt beam="1">  1        2 0.25513267E+00 0.19710487E+04</pdfrwt>
<pdfrwt beam="2">  1       -2 0.77691329E-01 0.19710487E+04</pdfrwt>
<totfact> 0.14280191E+01</totfact>
</mgrwt>
</event>
<event>
 8    2  0.4480234E-052  0.1648517E+04  0.7818608E-02  0.8791284E-01
         -2   -1    0    0    0  501 -0.00000000000E+00  0.00000000000E+00  0.51374889825E+03  0.51374889826E+03  0.25500000000E-02 0. -1.
          2   -1    0    0  501    0  0.00000000000E+00 -0.00000000000E+00 -0.13224394743E+04  0.13224394743E+04  0.25500000000E-02 0.  1.
    -200001    2    1    2    0    0  0.15178099446E+03 -0.45668009004E+03 -0.10617184481E+03  0.78695258275E+03  0.61353706648E+03 0.  0.
   -5000001    2    3    3    0    0  0.19969102155E+03 -0.33361241353E+03  0.19720226565E+03  0.44100768165E+03  0.66522891912E+02 0.  0.
     200001    1    1    2    0    0 -0.15178099446E+03  0.45668009004E+03 -0.70251873128E+03  0.10492357899E+04  0.61300000000E+03 0.  1.
         13    1    4    4    0    0  0.72730020017E+02 -0.16469633829E+03  0.10584458651E+03  0.20884833568E+03  0.10566000000E+00 0.  1.
    -200003    1    4    4    0    0  0.12696100153E+03 -0.16891607524E+03  0.91357679139E+02  0.23215934597E+03  0.30000000000E+02 0.  1.
    -200000    1    3    3    0    0 -0.47910027090E+02 -0.12306767651E+03 -0.30337411046E+03  0.34594490110E+03  0.10100000000E+03 0.  1.
<mgrwt>
<rscale>  0 0.16485167E+04</rscale>
<asrwt>0</asrwt>
<pdfrwt beam="1">  1        2 0.18891992E+00 0.16485167E+04</pdfrwt>
<pdfrwt beam="2">  1       -2 0.73392700E-01 0.16485167E+04</pdfrwt>
<totfact> 0.29270611E+01</totfact>
</mgrwt>
</event>
<event>
 8    2  0.4480234E-052  0.1412508E+04  0.7818608E-02  0.8944814E-01
          2   -1    0    0  501    0  0.00000000000E+00  0.00000000000E+00  0.44230141381E+04  0.44230141381E+04  0.25500000000E-02 0.  1.
         -2   -1    0    0    0  501 -0.00000000000E+00 -0.00000000000E+00 -0.11277257680E+03  0.11277257683E+03  0.25500000000E-02 0. -1.
    -200001    2    1    2    0    0  0.32460471760E+03  0.61318018083E+02  0.17814182951E+04  0.19128409980E+04  0.61349932329E+03 0.  0.
   -5000001    2    3    3    0    0  0.19317405240E+03  0.30738172492E+03  0.12514705516E+04  0.13054967971E+04  0.79646760177E+02 0.  0.
     200001    1    1    2    0    0 -0.32460471760E+03 -0.61318018083E+02  0.25288232662E+04  0.26229457169E+04  0.61300000000E+03 0. -1.
         13    1    4    4    0    0 -0.50564386674E-01  0.92984355295E+01  0.91807284023E+01  0.13067532211E+02  0.10566000000E+00 0.  1.
    -200003    1    4    4    0    0  0.19322461679E+03  0.29808328939E+03  0.12422898232E+04  0.12924292649E+04  0.30000000000E+02 0.  1.
    -200000    1    3    3    0    0  0.13143066519E+03 -0.24606370683E+03  0.52994774346E+03  0.60734420091E+03  0.10100000000E+03 0. -1.
<mgrwt>
<rscale>  0 0.14125080E+04</rscale>
<asrwt>0</asrwt>
<pdfrwt beam="1">  1        2 0.63185901E+00 0.14125080E+04</pdfrwt>
<pdfrwt beam="2">  1       -2 0.16110372E-01 0.14125080E+04</pdfrwt>
<totfact> 0.87164086E+00</totfact>
</mgrwt>
</event>
<event>
 8    2  0.4480234E-052  0.1515093E+04  0.7818608E-02  0.8874478E-01
         -2   -1    0    0    0  501 -0.00000000000E+00  0.00000000000E+00  0.26273551459E+03  0.26273551461E+03  0.25500000000E-02 0. -1.
          2   -1    0    0  501    0  0.00000000000E+00 -0.00000000000E+00 -0.21842372310E+04  0.21842372310E+04  0.25500000000E-02 0.  1.
    -200001    2    1    2    0    0  0.88831701883E+02 -0.40990490091E+03 -0.12061681244E+04  0.14157675056E+04  0.61126343475E+03 0.  0.
   -5000001    2    3    3    0    0  0.91308033321E+02  0.13461517024E+03 -0.35256104780E+03  0.39824390330E+03  0.88546671776E+02 0.  0.
     200001    1    1    2    0    0 -0.88831701883E+02  0.40990490091E+03 -0.71533359197E+03  0.10312052399E+04  0.61300000000E+03 0. -1.
         13    1    4    4    0    0  0.22000646765E+02  0.99453421391E+02 -0.19003117579E+03  0.21560814090E+03  0.10566000000E+00 0.  1.
    -200003    1    4    4    0    0  0.69307386556E+02  0.35161748845E+02 -0.16252987201E+03  0.18263576240E+03  0.30000000000E+02 0.  1.
    -200000    1    3    3    0    0 -0.24763314380E+01 -0.54452007115E+03 -0.85360707659E+03  0.10175236023E+04  0.10100000000E+03 0. -1.
<mgrwt>
<rscale>  0 0.15150930E+04</rscale>
<asrwt>0</asrwt>
<pdfrwt beam="1">  1        2 0.31203388E+00 0.15150930E+04</pdfrwt>
<pdfrwt beam="2">  1       -2 0.37533646E-01 0.15150930E+04</pdfrwt>
<totfact> 0.41719447E+01</totfact>
</mgrwt>
</event>
<event>
 8    2  0.4480234E-052  0.1479666E+04  0.7818608E-02  0.8898088E-01
         -2   -1    0    0    0  501 -0.00000000000E+00  0.00000000000E+00  0.21337986136E+03  0.21337986138E+03  0.25500000000E-02 0. -1.
          2   -1    0    0  501    0  0.00000000000E+00 -0.00000000000E+00 -0.25651588248E+04  0.25651588248E+04  0.25500000000E-02 0.  1.
    -200001    2    1    2    0    0  0.29091205395E+03  0.19790839879E+03 -0.15859674261E+04  0.17364091990E+04  0.61321013700E+03 0.  0.
   -5000001    2    3    3    0    0  0.43617901983E+03  0.44141532563E+02 -0.79520947720E+03  0.91163900413E+03  0.80789535153E+02 0.  0.
     200001    1    1    2    0    0 -0.29091205395E+03 -0.19790839879E+03 -0.76581153736E+03  0.10421294873E+04  0.61300000000E+03 0. -1.
         13    1    4    4    0    0  0.33623915960E+03  0.28376797733E+02 -0.64688620923E+03  0.72960523159E+03  0.10566000000E+00 0.  1.
    -200003    1    4    4    0    0  0.99939860228E+02  0.15764734831E+02 -0.14832326797E+03  0.18203377254E+03  0.30000000000E+02 0.  1.
    -200000    1    3    3    0    0 -0.14526696588E+03  0.15376686622E+03 -0.79075794890E+03  0.82477019482E+03  0.10100000000E+03 0.  1.
<mgrwt>
<rscale>  0 0.14796665E+04</rscale>
<asrwt>0</asrwt>
<pdfrwt beam="1">  1        2 0.36645124E+00 0.14796665E+04</pdfrwt>
<pdfrwt beam="2">  1       -2 0.30482839E-01 0.14796665E+04</pdfrwt>
<totfact> 0.39342064E+01</totfact>
</mgrwt>
</event>
<event>
 8    2  0.4480234E-052  0.1552415E+04  0.7818608E-02  0.8850326E-01
          2   -1    0    0  501    0  0.00000000000E+00  0.00000000000E+00  0.17964952986E+04  0.17964952986E+04  0.25500000000E-02 0.  1.
         -2   -1    0    0    0  501 -0.00000000000E+00 -0.00000000000E+00 -0.33537428793E+03  0.33537428794E+03  0.25500000000E-02 0. -1.
    -200001    2    1    2    0    0 -0.31222377110E+02 -0.96412718169E+02  0.13699351603E+04  0.15038933860E+04  0.61212966291E+03 0.  0.
   -5000001    2    3    3    0    0 -0.16281819867E+02  0.10040528862E+03  0.31564393253E+02  0.14728074493E+03  0.10172997231E+03 0.  0.
     200001    1    1    2    0    0  0.31222377110E+02  0.96412718169E+02  0.91185850392E+02  0.62797620048E+03  0.61300000000E+03 0. -1.
         13    1    4    4    0    0 -0.20805177293E+02 -0.10673513372E+02 -0.92030874786E+01  0.25129410520E+02  0.10566000000E+00 0.  1.
    -200003    1    4    4    0    0  0.45233574258E+01  0.11107880199E+03  0.40767480732E+02  0.12215133441E+03  0.30000000000E+02 0.  1.
    -200000    1    3    3    0    0 -0.14940557243E+02 -0.19681800679E+03  0.13383707670E+04  0.13566126411E+04  0.10100000000E+03 0.  1.
<mgrwt>
<rscale>  0 0.15524153E+04</rscale>
<asrwt>0</asrwt>
<pdfrwt beam="1">  1        2 0.25664219E+00 0.15524153E+04</pdfrwt>
<pdfrwt beam="2">  1       -2 0.47910612E-01 0.15524153E+04</pdfrwt>
<totfact> 0.40659492E+01</totfact>
</mgrwt>
</event>
<event>
 8    2  0.4480234E-052  0.1995010E+04  0.7818608E-02  0.8608957E-01
          2   -1    0    0  501    0  0.00000000000E+00  0.00000000000E+00  0.18860730274E+04  0.18860730274E+04  0.25500000000E-02 0.  1.
         -2   -1    0    0    0  501 -0.00000000000E+00 -0.00000000000E+00 -0.52755959478E+03  0.52755959478E+03  0.25500000000E-02 0. -1.
    -200001    2    1    2    0    0 -0.29846284837E+03  0.42364783472E+03  0.13958681432E+04  0.16100643711E+04  0.61261884243E+03 0.  0.
   -5000001    2    3    3    0    0  0.17211266635E+03  0.56281322660E+02  0.42408721826E+03  0.46509335166E+03  0.60592902800E+02 0.  0.
     200001    1    1    2    0    0  0.29846284837E+03 -0.42364783472E+03 -0.37354710610E+02  0.80356825107E+03  0.61300000000E+03 0. -1.
         13    1    4    4    0    0  0.70541279841E+02  0.13464121651E+00  0.14058474530E+03  0.15729008890E+03  0.10566000000E+00 0.  1.
    -200003    1    4    4    0    0  0.10157138651E+03  0.56146681444E+02  0.28350247296E+03  0.30780326277E+03  0.30000000000E+02 0.  1.
    -200000    1    3    3    0    0 -0.47057551471E+03  0.36736651206E+03  0.97178092493E+03  0.11449710194E+04  0.10100000000E+03 0.  1.
<mgrwt>
<rscale>  0 0.19950097E+04</rscale>
<asrwt>0</asrwt>
<pdfrwt beam="1">  1        2 0.26943901E+00 0.19950097E+04</pdfrwt>
<pdfrwt beam="2">  1       -2 0.75365655E-01 0.19950097E+04</pdfrwt>
<totfact> 0.13537210E+01</totfact>
</mgrwt>
</event>
<event>
 8    2  0.4480234E-052  0.1477711E+04  0.7818608E-02  0.8899412E-01
         -2   -1    0    0    0  501 -0.00000000000E+00  0.00000000000E+00  0.60879017740E+03  0.60879017741E+03  0.25500000000E-02 0. -1.
          2   -1    0    0  501    0  0.00000000000E+00 -0.00000000000E+00 -0.89670872418E+03  0.89670872418E+03  0.25500000000E-02 0.  1.
    -200001    2    1    2    0    0  0.80469828181E+02 -0.31111040796E+03  0.12036311096E+03  0.70192688165E+03  0.61233078439E+03 0.  0.
   -5000001    2    3    3    0    0  0.31532795615E+03 -0.28455053304E+03  0.55755738419E+02  0.43690069460E+03  0.85864945072E+02 0.  0.
     200001    1    1    2    0    0 -0.80469828181E+02  0.31111040796E+03 -0.40828165774E+03  0.80357201994E+03  0.61300000000E+03 0.  1.
         13    1    4    4    0    0  0.59396856633E+02 -0.17995062075E+02  0.53819812431E+00  0.62065366012E+02  0.10566000000E+00 0.  1.
    -200003    1    4    4    0    0  0.25593109952E+03 -0.26655547097E+03  0.55217540294E+02  0.37483532859E+03  0.30000000000E+02 0.  1.
    -200000    1    3    3    0    0 -0.23485812797E+03 -0.26559874913E+02  0.64607372543E+02  0.26502618704E+03  0.10100000000E+03 0.  1.
<mgrwt>
<rscale>  0 0.14777110E+04</rscale>
<asrwt>0</asrwt>
<pdfrwt beam="1">  1        2 0.12810125E+00 0.14777110E+04</pdfrwt>
<pdfrwt beam="2">  1       -2 0.86970026E-01 0.14777110E+04</pdfrwt>
<totfact> 0.36240006E+01</totfact>
</mgrwt>
</event>
<event>
 8    2  0.4480234E-052  0.1467917E+04  0.7818608E-02  0.8906072E-01
          2   -1    0    0  501    0  0.00000000000E+00  0.00000000000E+00  0.18716812298E+04  0.18716812298E+04  0.25500000000E-02 0.  1.
         -2   -1    0    0    0  501 -0.00000000000E+00 -0.00000000000E+00 -0.28781351617E+03  0.28781351618E+03  0.25500000000E-02 0. -1.
    -200001    2    1    2    0    0 -0.24309648685E+02 -0.18780309720E+03  0.26739273817E+03  0.69500291488E+03  0.61291860221E+03 0.  0.
   -5000001    2    3    3    0    0  0.19059070211E+03 -0.18784697082E+02 -0.85226797250E+02  0.23751967244E+03  0.11168843831E+03 0.  0.
     200001    1    1    2    0    0  0.24309648685E+02  0.18780309720E+03  0.13164749754E+04  0.14644918311E+04  0.61300000000E+03 0.  1.
         13    1    4    4    0    0  0.11947889320E+02  0.23860663345E+02 -0.36383114284E+02  0.45120122823E+02  0.10566000000E+00 0.  1.
    -200003    1    4    4    0    0  0.17864281279E+03 -0.42645360427E+02 -0.48843682966E+02  0.19239954962E+03  0.30000000000E+02 0.  1.
    -200000    1    3    3    0    0 -0.21490035080E+03 -0.16901840012E+03  0.35261953542E+03  0.45748324244E+03  0.10100000000E+03 0. -1.
<mgrwt>
<rscale>  0 0.14679171E+04</rscale>
<asrwt>0</asrwt>
<pdfrwt beam="1">  1        2 0.26738303E+00 0.14679171E+04</pdfrwt>
<pdfrwt beam="2">  1       -2 0.41116217E-01 0.14679171E+04</pdfrwt>
<totfact> 0.50761795E+01</totfact>
</mgrwt>
</event>
<event>
 8    2  0.4480234E-052  0.1305036E+04  0.7818608E-02  0.9025581E-01
          2   -1    0    0  501    0  0.00000000000E+00  0.00000000000E+00  0.45463833715E+04  0.45463833715E+04  0.25500000000E-02 0.  1.
         -2   -1    0    0    0  501 -0.00000000000E+00 -0.00000000000E+00 -0.93652358870E+02  0.93652358905E+02  0.25500000000E-02 0. -1.
    -200001    2    1    2    0    0  0.45769430237E+02  0.34622155356E+02  0.29937286380E+04  0.30564478852E+04  0.61332616316E+03 0.  0.
   -5000001    2    3    3    0    0 -0.26102916562E+03  0.36492190094E+02  0.17205282979E+04  0.17429148702E+04  0.89814896212E+02 0.  0.
     200001    1    1    2    0    0 -0.45769430237E+02 -0.34622155356E+02  0.14590023746E+04  0.15835878452E+04  0.61300000000E+03 0. -1.
         13    1    4    4    0    0 -0.12790943361E+02  0.16276207597E+02  0.58358465285E+02  0.61921279059E+02  0.10566000000E+00 0.  1.
    -200003    1    4    4    0    0 -0.24823822225E+03  0.20215982497E+02  0.16621698326E+04  0.16809935911E+04  0.30000000000E+02 0.  1.
    -200000    1    3    3    0    0  0.30679859585E+03 -0.18700347382E+01  0.12732003401E+04  0.13135330150E+04  0.10100000000E+03 0. -1.
<mgrwt>
<rscale>  0 0.13050357E+04</rscale>
<asrwt>0</asrwt>
<pdfrwt beam="1">  1        2 0.64948354E+00 0.13050357E+04</pdfrwt>
<pdfrwt beam="2">  1       -2 0.13378904E-01 0.13050357E+04</pdfrwt>
<totfact> 0.96828023E+00</totfact>
</mgrwt>
</event>
<event>
 8    2  0.4480234E-052  0.1887345E+04  0.7818608E-02  0.8661181E-01
          2   -1    0    0  501    0  0.00000000000E+00  0.00000000000E+00  0.46073243238E+03  0.46073243239E+03  0.25500000000E-02 0.  1.
         -2   -1    0    0    0  501 -0.00000000000E+00 -0.00000000000E+00 -0.19328303730E+04  0.19328303730E+04  0.25500000000E-02 0. -1.
    -200001    2    1    2    0    0 -0.47138420739E+03 -0.39750596976E+03 -0.27189793934E+03  0.91151587291E+03  0.61377408725E+03 0.  0.
   -5000001    2    3    3    0    0 -0.15930553320E+03 -0.23154572931E+03  0.16810124396E+03  0.33816067620E+03  0.84278924012E+02 0.  0.
     200001    1    1    2    0    0  0.47138420739E+03  0.39750596976E+03 -0.12002000012E+04  0.14820469324E+04  0.61300000000E+03 0. -1.
         13    1    4    4    0    0 -0.14647918429E+03 -0.20110207237E+03  0.14285230242E+03  0.28688845639E+03  0.10566000000E+00 0.  1.
    -200003    1    4    4    0    0 -0.12826348914E+02 -0.30443656938E+02  0.25248941544E+02  0.51272219801E+02  0.30000000000E+02 0. -1.
    -200000    1    3    3    0    0 -0.31207867419E+03 -0.16596024045E+03 -0.43999918330E+03  0.57335519671E+03  0.10100000000E+03 0. -1.
<mgrwt>
<rscale>  0 0.18873448E+04</rscale>
<asrwt>0</asrwt>
<pdfrwt beam="1">  1        2 0.65818920E-01 0.18873448E+04</pdfrwt>
<pdfrwt beam="2">  1       -2 0.27611862E+00 0.18873448E+04</pdfrwt>
<totfact> 0.30848342E+00</totfact>
</mgrwt>
</event>
<event>
 8    2  0.4480234E-052  0.1607162E+04  0.7818608E-02  0.8816160E-01
         -2   -1    0    0    0  501 -0.00000000000E+00  0.00000000000E+00  0.56762560951E+03  0.56762560952E+03  0.25500000000E-02 0. -1.
          2   -1    0    0  501    0  0.00000000000E+00 -0.00000000000E+00 -0.11376206098E+04  0.11376206098E+04  0.25500000000E-02 0.  1.
    -200001    2    1    2    0    0 -0.41790211844E+02  0.22274780460E+03  0.21155607672E+03  0.68644589922E+03  0.61244509362E+03 0.  0.
   -5000001    2    3    3    0    0  0.25455305628E+03  0.22308716975E+02  0.19902829282E+02  0.26820299412E+03  0.79004975320E+02 0.  0.
     200001    1    1    2    0    0  0.41790211844E+02 -0.22274780460E+03 -0.78155107698E+03  0.10188003201E+04  0.61300000000E+03 0.  1.
         13    1    4    4    0    0  0.16400678350E+03  0.25794337243E+02 -0.14703876837E+02  0.16667269730E+03  0.10566000000E+00 0.  1.
    -200003    1    4    4    0    0  0.90546272782E+02 -0.34856202687E+01  0.34606706118E+02  0.10153029682E+03  0.30000000000E+02 0.  1.
    -200000    1    3    3    0    0 -0.29634326813E+03  0.20043908762E+03  0.19165324744E+03  0.41824290510E+03  0.10100000000E+03 0. -1.
<mgrwt>
<rscale>  0 0.16071622E+04</rscale>
<asrwt>0</asrwt>
<pdfrwt beam="1">  1        2 0.16251723E+00 0.16071622E+04</pdfrwt>
<pdfrwt beam="2">  1       -2 0.81089373E-01 0.16071622E+04</pdfrwt>
<totfact> 0.29909153E+01</totfact>
</mgrwt>
</event>
<event>
 8    2  0.4480234E-052  0.1431623E+04  0.7818608E-02  0.8931241E-01
          2   -1    0    0  501    0  0.00000000000E+00  0.00000000000E+00  0.12007839179E+04  0.12007839179E+04  0.25500000000E-02 0.  1.
         -2   -1    0    0    0  501 -0.00000000000E+00 -0.00000000000E+00 -0.42670967207E+03  0.42670967208E+03  0.25500000000E-02 0. -1.
    -200001    2    1    2    0    0 -0.18345429343E+03  0.15755098831E+03  0.70274547740E+02  0.66334587998E+03  0.61368677086E+03 0.  0.
   -5000001    2    3    3    0    0  0.30829714316E+02  0.15116549150E+02  0.10559803676E+03  0.38468128892E+03  0.36830662135E+03 0.  0.
     200001    1    1    2    0    0  0.18345429343E+03 -0.15755098831E+03  0.70379969813E+03  0.96414771004E+03  0.61300000000E+03 0. -1.
         13    1    4    4    0    0 -0.94043137007E+02 -0.61647498468E+02 -0.86014687796E+02  0.14157352636E+03  0.10566000000E+00 0.  1.
    -200003    1    4    4    0    0  0.12487285132E+03  0.76764047619E+02  0.19161272455E+03  0.24310776255E+03  0.30000000000E+02 0.  1.
    -200000    1    3    3    0    0 -0.21428400775E+03  0.14243443916E+03 -0.35323489016E+02  0.27866459106E+03  0.10100000000E+03 0.  1.
<mgrwt>
<rscale>  0 0.14316230E+04</rscale>
<asrwt>0</asrwt>
<pdfrwt beam="1">  1        2 0.17154056E+00 0.14316230E+04</pdfrwt>
<pdfrwt beam="2">  1       -2 0.60958523E-01 0.14316230E+04</pdfrwt>
<totfact> 0.51989352E+01</totfact>
</mgrwt>
</event>
<event>
 8    2  0.4480234E-052  0.1252864E+04  0.7818608E-02  0.9067803E-01
          2   -1    0    0  501    0  0.00000000000E+00  0.00000000000E+00  0.13801572254E+04  0.13801572254E+04  0.25500000000E-02 0.  1.
         -2   -1    0    0    0  501 -0.00000000000E+00 -0.00000000000E+00 -0.28432777929E+03  0.28432777930E+03  0.25500000000E-02 0. -1.
    -200001    2    1    2    0    0 -0.48081586812E+02  0.89916665638E+02  0.65156789934E+03  0.90059092324E+03  0.61329147869E+03 0.  0.
   -5000001    2    3    3    0    0 -0.30753218630E+03  0.92420649915E+01  0.43764062210E+03  0.54032867889E+03  0.75923025080E+02 0.  0.
     200001    1    1    2    0    0  0.48081586812E+02 -0.89916665638E+02  0.44426154677E+03  0.76389408146E+03  0.61300000000E+03 0. -1.
         13    1    4    4    0    0 -0.18350565416E+02 -0.64944996062E+01  0.73936451867E+01  0.20823038428E+02  0.10566000000E+00 0.  1.
    -200003    1    4    4    0    0 -0.28918162088E+03  0.15736564598E+02  0.43024697692E+03  0.51950564046E+03  0.30000000000E+02 0.  1.
    -200000    1    3    3    0    0  0.25945059949E+03  0.80674600646E+02  0.21392727724E+03  0.36026224436E+03  0.10100000000E+03 0. -1.
<mgrwt>
<rscale>  0 0.12528640E+04</rscale>
<asrwt>0</asrwt>
<pdfrwt beam="1">  1        2 0.19716531E+00 0.12528640E+04</pdfrwt>
<pdfrwt beam="2">  1       -2 0.40618255E-01 0.12528640E+04</pdfrwt>
<totfact> 0.95679004E+01</totfact>
</mgrwt>
</event>
<event>
 8    2  0.4480234E-052  0.1258186E+04  0.7818608E-02  0.9063398E-01
          2   -1    0    0  501    0  0.00000000000E+00  0.00000000000E+00  0.14272172275E+04  0.14272172275E+04  0.25500000000E-02 0.  1.
         -2   -1    0    0    0  501 -0.00000000000E+00 -0.00000000000E+00 -0.27729329944E+03  0.27729329945E+03  0.25500000000E-02 0. -1.
    -200001    2    1    2    0    0  0.59157407973E+02 -0.12317375151E+03  0.62217080721E+03  0.88416686204E+03  0.61317465262E+03 0.  0.
   -5000001    2    3    3    0    0 -0.44542663055E+02 -0.21236552588E+03  0.66684855659E+03  0.70836589892E+03  0.10006040132E+03 0.  0.
     200001    1    1    2    0    0 -0.59157407973E+02  0.12317375151E+03  0.52775312084E+03  0.82034366490E+03  0.61300000000E+03 0. -1.
         13    1    4    4    0    0  0.75648644634E+00 -0.17009644389E+03  0.47180591423E+03  0.50153185778E+03  0.10566000000E+00 0.  1.
    -200003    1    4    4    0    0 -0.45299149501E+02 -0.42269081988E+02  0.19504264236E+03  0.20683404114E+03  0.30000000000E+02 0.  1.
    -200000    1    3    3    0    0  0.10370007103E+03  0.89191774368E+02 -0.44677749381E+02  0.17580096313E+03  0.10100000000E+03 0. -1.
<mgrwt>
<rscale>  0 0.12581856E+04</rscale>
<asrwt>0</asrwt>
<pdfrwt beam="1">  1        2 0.20388817E+00 0.12581856E+04</pdfrwt>
<pdfrwt beam="2">  1       -2 0.39613329E-01 0.12581856E+04</pdfrwt>
<totfact> 0.94728008E+01</totfact>
</mgrwt>
</event>
<event>
 8    2  0.4480234E-052  0.1627162E+04  0.7818608E-02  0.8804033E-01
         -2   -1    0    0    0  501 -0.00000000000E+00  0.00000000000E+00  0.92234190977E+03  0.92234190978E+03  0.25500000000E-02 0. -1.
          2   -1    0    0  501    0  0.00000000000E+00 -0.00000000000E+00 -0.71764460456E+03  0.71764460456E+03  0.25500000000E-02 0.  1.
    -200001    2    1    2    0    0 -0.87167171336E+02  0.47669504023E+03 -0.12729091567E+03  0.79097446734E+03  0.61204685575E+03 0.  0.
   -5000001    2    3    3    0    0 -0.25943921919E+03  0.36773720996E+03  0.10028276491E+03  0.46919776318E+03  0.86893866258E+02 0.  0.
     200001    1    1    2    0    0  0.87167171336E+02 -0.47669504023E+03  0.33198822089E+03  0.84901204700E+03  0.61300000000E+03 0. -1.
         13    1    4    4    0    0 -0.16442461417E+03  0.28323738101E+03  0.78034924537E+02  0.33667243480E+03  0.10566000000E+00 0.  1.
    -200003    1    4    4    0    0 -0.95014605021E+02  0.84499828950E+02  0.22247840370E+02  0.13252532838E+03  0.30000000000E+02 0. -1.
    -200000    1    3    3    0    0  0.17227204785E+03  0.10895783027E+03 -0.22757368058E+03  0.32177670416E+03  0.10100000000E+03 0.  1.
<mgrwt>
<rscale>  0 0.16271616E+04</rscale>
<asrwt>0</asrwt>
<pdfrwt beam="1">  1        2 0.10252066E+00 0.16271616E+04</pdfrwt>
<pdfrwt beam="2">  1       -2 0.13176313E+00 0.16271616E+04</pdfrwt>
<totfact> 0.17564479E+01</totfact>
</mgrwt>
</event>
<event>
 8    2  0.4480234E-052  0.1602153E+04  0.7818608E-02  0.8819226E-01
          2   -1    0    0  501    0  0.00000000000E+00  0.00000000000E+00  0.47689797979E+04  0.47689797979E+04  0.25500000000E-02 0.  1.
         -2   -1    0    0    0  501 -0.00000000000E+00 -0.00000000000E+00 -0.13456207680E+03  0.13456207683E+03  0.25500000000E-02 0. -1.
    -200001    2    1    2    0    0 -0.30021072003E+03  0.42085572354E+03  0.23372029183E+04  0.24703935301E+04  0.61080332030E+03 0.  0.
   -5000001    2    3    3    0    0  0.53573836115E+01  0.42323641798E+03  0.13625223211E+04  0.14439526891E+04  0.22220379330E+03 0.  0.
     200001    1    1    2    0    0  0.30021072003E+03 -0.42085572354E+03  0.22972148028E+04  0.24331483446E+04  0.61300000000E+03 0. -1.
         13    1    4    4    0    0  0.73257584625E+02  0.40112679104E+02  0.32200574547E+03  0.33266110684E+03  0.10566000000E+00 0.  1.
    -200003    1    4    4    0    0 -0.67900201013E+02  0.38312373888E+03  0.10405165757E+04  0.11112915823E+04  0.30000000000E+02 0.  1.
    -200000    1    3    3    0    0 -0.30556810364E+03 -0.23806944407E+01  0.97468059714E+03  0.10264408410E+04  0.10100000000E+03 0.  1.
<mgrwt>
<rscale>  0 0.16021533E+04</rscale>
<asrwt>0</asrwt>
<pdfrwt beam="1">  1        2 0.68128270E+00 0.16021533E+04</pdfrwt>
<pdfrwt beam="2">  1       -2 0.19223157E-01 0.16021533E+04</pdfrwt>
<totfact> 0.32692084E+00</totfact>
</mgrwt>
</event>
<event>
 8    2  0.4480234E-052  0.1348545E+04  0.7818608E-02  0.8991930E-01
         -2   -1    0    0    0  501 -0.00000000000E+00  0.00000000000E+00  0.19337821596E+03  0.19337821598E+03  0.25500000000E-02 0. -1.
          2   -1    0    0  501    0  0.00000000000E+00 -0.00000000000E+00 -0.23510594122E+04  0.23510594122E+04  0.25500000000E-02 0.  1.
    -200001    2    1    2    0    0 -0.18708437311E+03 -0.17746451508E+03 -0.12862038534E+04  0.14482004386E+04  0.61357146364E+03 0.  0.
   -5000001    2    3    3    0    0 -0.10629341229E+03 -0.30105103372E+03 -0.30373557484E+03  0.44957852547E+03  0.89081629634E+02 0.  0.
     200001    1    1    2    0    0  0.18708437311E+03  0.17746451508E+03 -0.87147734277E+03  0.10962371895E+04  0.61300000000E+03 0. -1.
         13    1    4    4    0    0 -0.64397587930E+02 -0.78010698338E+02 -0.11253474674E+03  0.15131688198E+03  0.10566000000E+00 0.  1.
    -200003    1    4    4    0    0 -0.41895824362E+02 -0.22304033538E+03 -0.19120082810E+03  0.29826164348E+03  0.30000000000E+02 0.  1.
    -200000    1    3    3    0    0 -0.80790960814E+02  0.12358651864E+03 -0.98246827859E+03  0.99862191313E+03  0.10100000000E+03 0.  1.
<mgrwt>
<rscale>  0 0.13485454E+04</rscale>
<asrwt>0</asrwt>
<pdfrwt beam="1">  1        2 0.33586561E+00 0.13485454E+04</pdfrwt>
<pdfrwt beam="2">  1       -2 0.27625461E-01 0.13485454E+04</pdfrwt>
<totfact> 0.61767036E+01</totfact>
</mgrwt>
</event>
<event>
 8    2  0.4480234E-052  0.3011558E+04  0.7818608E-02  0.8240438E-01
          2   -1    0    0  501    0  0.00000000000E+00  0.00000000000E+00  0.34252441513E+04  0.34252441513E+04  0.25500000000E-02 0.  1.
         -2   -1    0    0    0  501 -0.00000000000E+00 -0.00000000000E+00 -0.66195882408E+03  0.66195882408E+03  0.25500000000E-02 0. -1.
    -200001    2    1    2    0    0  0.59480422802E+03  0.11740802723E+04  0.83990542121E+03  0.16773449260E+04  0.61301576548E+03 0.  0.
   -5000001    2    3    3    0    0  0.18487557086E+03  0.95340899543E+03  0.54006884094E+03  0.11144592438E+04  0.84719323432E+02 0.  0.
     200001    1    1    2    0    0 -0.59480422802E+03 -0.11740802723E+04  0.19233799060E+04  0.24098580494E+04  0.61300000000E+03 0.  1.
         13    1    4    4    0    0  0.30199405890E+02  0.19484442412E+03  0.75743178180E+02  0.21121882949E+03  0.10566000000E+00 0.  1.
    -200003    1    4    4    0    0  0.15467616497E+03  0.75856457131E+03  0.46432566276E+03  0.90324041426E+03  0.30000000000E+02 0.  1.
    -200000    1    3    3    0    0  0.40992865716E+03  0.22067127683E+03  0.29983658027E+03  0.56288568222E+03  0.10100000000E+03 0. -1.
<mgrwt>
<rscale>  0 0.30115581E+04</rscale>
<asrwt>0</asrwt>
<pdfrwt beam="1">  1        2 0.48932059E+00 0.30115581E+04</pdfrwt>
<pdfrwt beam="2">  1       -2 0.94565547E-01 0.30115581E+04</pdfrwt>
<totfact> 0.10819895E+00</totfact>
</mgrwt>
</event>
<event>
 8    2  0.4480234E-052  0.1367912E+04  0.7818608E-02  0.8977379E-01
          2   -1    0    0  501    0  0.00000000000E+00  0.00000000000E+00  0.13074802823E+04  0.13074802823E+04  0.25500000000E-02 0.  1.
         -2   -1    0    0    0  501 -0.00000000000E+00 -0.00000000000E+00 -0.35778426730E+03  0.35778426731E+03  0.25500000000E-02 0. -1.
    -200001    2    1    2    0    0 -0.27769288862E+03 -0.36658899161E+02  0.33390699466E+03  0.75234487467E+03  0.61324686227E+03 0.  0.
   -5000001    2    3    3    0    0 -0.35300564885E+03  0.15868490452E+03  0.67608234056E+02  0.39886610107E+03  0.68770678591E+02 0.  0.
     200001    1    1    2    0    0  0.27769288862E+03  0.36658899161E+02  0.61578902030E+03  0.91291967489E+03  0.61300000000E+03 0.  1.
         13    1    4    4    0    0 -0.10535875593E+03  0.25035636140E+02  0.17795058134E+01  0.10830710195E+03  0.10566000000E+00 0.  1.
    -200003    1    4    4    0    0 -0.24764689292E+03  0.13364926838E+03  0.65828728242E+02  0.29055899913E+03  0.30000000000E+02 0.  1.
    -200000    1    3    3    0    0  0.75312760223E+02 -0.19534380368E+03  0.26629876060E+03  0.35347877360E+03  0.10100000000E+03 0. -1.
<mgrwt>
<rscale>  0 0.13679121E+04</rscale>
<asrwt>0</asrwt>
<pdfrwt beam="1">  1        2 0.18678290E+00 0.13679121E+04</pdfrwt>
<pdfrwt beam="2">  1       -2 0.51112038E-01 0.13679121E+04</pdfrwt>
<totfact> 0.65669130E+01</totfact>
</mgrwt>
</event>
<event>
 8    2  0.4480234E-052  0.1329611E+04  0.7818608E-02  0.9006407E-01
         -2   -1    0    0    0  501 -0.00000000000E+00  0.00000000000E+00  0.58588356482E+03  0.58588356482E+03  0.25500000000E-02 0. -1.
          2   -1    0    0  501    0  0.00000000000E+00 -0.00000000000E+00 -0.75435876524E+03  0.75435876525E+03  0.25500000000E-02 0.  1.
    -200001    2    1    2    0    0 -0.15775284907E+03 -0.18053498541E+03  0.99803308512E+01  0.65826416401E+03  0.61297084781E+03 0.  0.
   -5000001    2    3    3    0    0 -0.30893540482E+02  0.31990242962E+02 -0.25932004765E+03  0.27881199215E+03  0.92257538252E+02 0.  0.
     200001    1    1    2    0    0  0.15775284907E+03  0.18053498541E+03 -0.17845553128E+03  0.68197816607E+03  0.61300000000E+03 0.  1.
         13    1    4    4    0    0 -0.33968032372E+02 -0.88308770277E+01 -0.18817192711E+03  0.19141707586E+03  0.10566000000E+00 0.  1.
    -200003    1    4    4    0    0  0.30744918900E+01  0.40821119990E+02 -0.71148120536E+02  0.87394916291E+02  0.30000000000E+02 0.  1.
    -200000    1    3    3    0    0 -0.12685930859E+03 -0.21252522837E+03  0.26930037850E+03  0.37945217186E+03  0.10100000000E+03 0. -1.
<mgrwt>
<rscale>  0 0.13296111E+04</rscale>
<asrwt>0</asrwt>
<pdfrwt beam="1">  1        2 0.10776554E+00 0.13296111E+04</pdfrwt>
<pdfrwt beam="2">  1       -2 0.83697653E-01 0.13296111E+04</pdfrwt>
<totfact> 0.50113043E+01</totfact>
</mgrwt>
</event>
<event>
 8    2  0.4480234E-052  0.2354757E+04  0.7818608E-02  0.8456639E-01
         -2   -1    0    0    0  501 -0.00000000000E+00  0.00000000000E+00  0.63865298587E+03  0.63865298588E+03  0.25500000000E-02 0.  1.
          2   -1    0    0  501    0  0.00000000000E+00 -0.00000000000E+00 -0.21705379136E+04  0.21705379136E+04  0.25500000000E-02 0. -1.
    -200001    2    1    2    0    0  0.68725673504E+03  0.83262101812E+02  0.10503311067E+03  0.92915790458E+03  0.61077660388E+03 0.  0.
   -5000001    2    3    3    0    0  0.44700751909E+03 -0.74807986115E+02  0.31309955349E+03  0.56010711798E+03  0.10137404160E+03 0.  0.
     200001    1    1    2    0    0 -0.68725673504E+03 -0.83262101812E+02 -0.16369180384E+04  0.18800329949E+04  0.61300000000E+03 0. -1.
         13    1    4    4    0    0  0.32652702846E+02 -0.22168698404E+02  0.40936148263E+01  0.39678949563E+02  0.10566000000E+00 0.  1.
    -200003    1    4    4    0    0  0.41435481625E+03 -0.52639287711E+02  0.30900593866E+03  0.52042816842E+03  0.30000000000E+02 0.  1.
    -200000    1    3    3    0    0  0.24024921594E+03  0.15807008793E+03 -0.20806644282E+03  0.36905078659E+03  0.10100000000E+03 0. -1.
<mgrwt>
<rscale>  0 0.23547573E+04</rscale>
<asrwt>0</asrwt>
<pdfrwt beam="1">  1        2 0.31007684E+00 0.23547573E+04</pdfrwt>
<pdfrwt beam="2">  1       -2 0.91236142E-01 0.23547573E+04</pdfrwt>
<totfact> 0.60855759E+00</totfact>
</mgrwt>
</event>
<event>
 8    2  0.4480234E-052  0.1884426E+04  0.7818608E-02  0.8662648E-01
          2   -1    0    0  501    0  0.00000000000E+00  0.00000000000E+00  0.13697984776E+04  0.13697984776E+04  0.25500000000E-02 0.  1.
         -2   -1    0    0    0  501 -0.00000000000E+00 -0.00000000000E+00 -0.64809912530E+03  0.64809912531E+03  0.25500000000E-02 0. -1.
    -200001    2    1    2    0    0  0.27461946605E+03  0.14520489114E+03  0.10510576148E+04  0.12558305608E+04  0.61309703666E+03 0.  0.
   -5000001    2    3    3    0    0 -0.14322684569E+02  0.12979410932E+03  0.37466080726E+02  0.19691892309E+03  0.14255421762E+03 0.  0.
     200001    1    1    2    0    0 -0.27461946605E+03 -0.14520489114E+03 -0.32935826250E+03  0.76206704208E+03  0.61300000000E+03 0. -1.
         13    1    4    4    0    0  0.43502189015E+02  0.27664274703E+02  0.54001099967E+02  0.74658438944E+02  0.10566000000E+00 0.  1.
    -200003    1    4    4    0    0 -0.57824873584E+02  0.10212983461E+03 -0.16535019241E+02  0.12226048415E+03  0.30000000000E+02 0.  1.
    -200000    1    3    3    0    0  0.28894215062E+03  0.15410781821E+02  0.10135915341E+04  0.10589116377E+04  0.10100000000E+03 0.  1.
<mgrwt>
<rscale>  0 0.18844258E+04</rscale>
<asrwt>0</asrwt>
<pdfrwt beam="1">  1        2 0.19568550E+00 0.18844258E+04</pdfrwt>
<pdfrwt beam="2">  1       -2 0.92585589E-01 0.18844258E+04</pdfrwt>
<totfact> 0.16005309E+01</totfact>
</mgrwt>
</event>
<event>
 8    2  0.4480234E-052  0.1508634E+04  0.7818608E-02  0.8878732E-01
          2   -1    0    0  501    0  0.00000000000E+00  0.00000000000E+00  0.10476417720E+04  0.10476417720E+04  0.25500000000E-02 0.  1.
         -2   -1    0    0    0  501 -0.00000000000E+00 -0.00000000000E+00 -0.54311872397E+03  0.54311872398E+03  0.25500000000E-02 0. -1.
    -200001    2    1    2    0    0  0.12669176762E+03 -0.30696092403E+03 -0.51520577240E+02  0.69900418059E+03  0.61292467868E+03 0.  0.
   -5000001    2    3    3    0    0  0.11226752622E+03 -0.47874647777E+03 -0.35761778017E+02  0.49858543154E+03  0.74204719213E+02 0.  0.
     200001    1    1    2    0    0 -0.12669176762E+03  0.30696092403E+03  0.55604362528E+03  0.89175631541E+03  0.61300000000E+03 0.  1.
         13    1    4    4    0    0 -0.68403976277E+01 -0.61765817019E+02  0.26254435049E+01  0.62198965501E+02  0.10566000000E+00 0.  1.
    -200003    1    4    4    0    0  0.11910792385E+03 -0.41698066076E+03 -0.38387221522E+02  0.43638646604E+03  0.30000000000E+02 0.  1.
    -200000    1    3    3    0    0  0.14424241404E+02  0.17178555375E+03 -0.15758799223E+02  0.20041874905E+03  0.10100000000E+03 0. -1.
<mgrwt>
<rscale>  0 0.15086336E+04</rscale>
<asrwt>0</asrwt>
<pdfrwt beam="1">  1        2 0.14966311E+00 0.15086336E+04</pdfrwt>
<pdfrwt beam="2">  1       -2 0.77588390E-01 0.15086336E+04</pdfrwt>
<totfact> 0.37619056E+01</totfact>
</mgrwt>
</event>
<event>
 8    2  0.4480234E-052  0.1424715E+04  0.7818608E-02  0.8936120E-01
          2   -1    0    0  501    0  0.00000000000E+00  0.00000000000E+00  0.29971304500E+04  0.29971304500E+04  0.25500000000E-02 0.  1.
         -2   -1    0    0    0  501 -0.00000000000E+00 -0.00000000000E+00 -0.16931297893E+03  0.16931297895E+03  0.25500000000E-02 0. -1.
    -200001    2    1    2    0    0  0.22126978257E+03 -0.17069723691E+03  0.90276975897E+03  0.11269151606E+04  0.61387839041E+03 0.  0.
   -5000001    2    3    3    0    0  0.23097991309E+03  0.60231105759E+02  0.82512921834E+03  0.86299994768E+03  0.83373715271E+02 0.  0.
     200001    1    1    2    0    0 -0.22126978257E+03  0.17069723691E+03  0.19250477121E+04  0.20395282683E+04  0.61300000000E+03 0.  1.
         13    1    4    4    0    0  0.61790143010E+02 -0.12560777427E+02  0.27301002253E+03  0.28019685663E+03  0.10566000000E+00 0.  1.
    -200003    1    4    4    0    0  0.16918977008E+03  0.72791883186E+02  0.55211919581E+03  0.58280309105E+03  0.30000000000E+02 0. -1.
    -200000    1    3    3    0    0 -0.97101305184E+01 -0.23092834267E+03  0.77640540633E+02  0.26391521296E+03  0.10100000000E+03 0. -1.
<mgrwt>
<rscale>  0 0.14247148E+04</rscale>
<asrwt>0</asrwt>
<pdfrwt beam="1">  1        2 0.42816151E+00 0.14247148E+04</pdfrwt>
<pdfrwt beam="2">  1       -2 0.24187568E-01 0.14247148E+04</pdfrwt>
<totfact> 0.35285941E+01</totfact>
</mgrwt>
</event>
<event>
 8    2  0.4480234E-052  0.1247874E+04  0.7818608E-02  0.9071954E-01
          2   -1    0    0  501    0  0.00000000000E+00  0.00000000000E+00  0.99576166247E+03  0.99576166247E+03  0.25500000000E-02 0.  1.
         -2   -1    0    0    0  501 -0.00000000000E+00 -0.00000000000E+00 -0.39095465506E+03  0.39095465507E+03  0.25500000000E-02 0. -1.
    -200001    2    1    2    0    0 -0.48420876406E+02 -0.27549561768E+02  0.41263124495E+03  0.74188759354E+03  0.61402695178E+03 0.  0.
   -5000001    2    3    3    0    0  0.14508860305E+03 -0.75433627851E+02  0.38136453762E+03  0.51623873046E+03  0.30711981592E+03 0.  0.
     200001    1    1    2    0    0  0.48420876406E+02  0.27549561768E+02  0.19217576246E+03  0.64482872401E+03  0.61300000000E+03 0. -1.
         13    1    4    4    0    0  0.82953145116E+02  0.71871332605E+02  0.32668569387E+03  0.34463062325E+03  0.10566000000E+00 0.  1.
    -200003    1    4    4    0    0  0.62135457930E+02 -0.14730496046E+03  0.54678843745E+02  0.17160810721E+03  0.30000000000E+02 0.  1.
    -200000    1    3    3    0    0 -0.19350947945E+03  0.47884066083E+02  0.31266707329E+02  0.22564886308E+03  0.10100000000E+03 0. -1.
<mgrwt>
<rscale>  0 0.12478744E+04</rscale>
<asrwt>0</asrwt>
<pdfrwt beam="1">  1        2 0.14225167E+00 0.12478744E+04</pdfrwt>
<pdfrwt beam="2">  1       -2 0.55850665E-01 0.12478744E+04</pdfrwt>
<totfact> 0.83737179E+01</totfact>
</mgrwt>
</event>
<event>
 8    2  0.4480234E-052  0.1706547E+04  0.7818608E-02  0.8757639E-01
          2   -1    0    0  501    0  0.00000000000E+00  0.00000000000E+00  0.64512829093E+03  0.64512829093E+03  0.25500000000E-02 0.  1.
         -2   -1    0    0    0  501 -0.00000000000E+00 -0.00000000000E+00 -0.11285743873E+04  0.11285743873E+04  0.25500000000E-02 0. -1.
    -200001    2    1    2    0    0 -0.31406205699E+03  0.13315876471E+03  0.26409967721E+03  0.74853931767E+03  0.61171581501E+03 0.  0.
   -5000001    2    3    3    0    0  0.13654978992E+03  0.12962092753E+03 -0.18512969005E+02  0.20712038498E+03  0.84313070594E+02 0.  0.
     200001    1    1    2    0    0  0.31406205699E+03 -0.13315876471E+03 -0.74754577363E+03  0.10251633606E+04  0.61300000000E+03 0. -1.
         13    1    4    4    0    0  0.35752562982E+02  0.26247034835E+02 -0.37957954540E+02  0.58377821768E+02  0.10566000000E+00 0.  1.
    -200003    1    4    4    0    0  0.10079722694E+03  0.10337389270E+03  0.19444985535E+02  0.14874256322E+03  0.30000000000E+02 0.  1.
    -200000    1    3    3    0    0 -0.45061184691E+03  0.35378371817E+01  0.28261264622E+03  0.54141893269E+03  0.10100000000E+03 0.  1.
<mgrwt>
<rscale>  0 0.17065465E+04</rscale>
<asrwt>0</asrwt>
<pdfrwt beam="1">  1        2 0.92161185E-01 0.17065465E+04</pdfrwt>
<pdfrwt beam="2">  1       -2 0.16122491E+00 0.17065465E+04</pdfrwt>
<totfact> 0.11694013E+01</totfact>
</mgrwt>
</event>
<event>
 8    2  0.4480234E-052  0.2309221E+04  0.7818608E-02  0.8474294E-01
         -2   -1    0    0    0  501 -0.00000000000E+00  0.00000000000E+00  0.21726432070E+04  0.21726432070E+04  0.25500000000E-02 0. -1.
          2   -1    0    0  501    0  0.00000000000E+00 -0.00000000000E+00 -0.61359625113E+03  0.61359625113E+03  0.25500000000E-02 0.  1.
    -200001    2    1    2    0    0 -0.39547547693E+03 -0.60264731230E+03 -0.18966612681E+02  0.94627194255E+03  0.61276930487E+03 0.  0.
   -5000001    2    3    3    0    0 -0.23530526042E+03 -0.55391131706E+03  0.20605229398E+03  0.64817094650E+03  0.12442554114E+03 0.  0.
     200001    1    1    2    0    0  0.39547547693E+03  0.60264731230E+03  0.15780135686E+04  0.18399675156E+04  0.61300000000E+03 0. -1.
         13    1    4    4    0    0 -0.86797608930E+02 -0.94773927938E+02  0.67807582024E+02  0.14530589003E+03  0.10566000000E+00 0.  1.
    -200003    1    4    4    0    0 -0.14850765149E+03 -0.45913738912E+03  0.13824471196E+03  0.50286505648E+03  0.30000000000E+02 0.  1.
    -200000    1    3    3    0    0 -0.16017021651E+03 -0.48735995236E+02 -0.22501890667E+03  0.29810099605E+03  0.10100000000E+03 0. -1.
<mgrwt>
<rscale>  0 0.23092213E+04</rscale>
<asrwt>0</asrwt>
<pdfrwt beam="1">  1        2 0.87656608E-01 0.23092213E+04</pdfrwt>
<pdfrwt beam="2">  1       -2 0.31037760E+00 0.23092213E+04</pdfrwt>
<totfact> 0.13198815E+00</totfact>
</mgrwt>
</event>
<event>
 8    2  0.4480234E-052  0.1501227E+04  0.7818608E-02  0.8883637E-01
         -2   -1    0    0    0  501 -0.00000000000E+00  0.00000000000E+00  0.21705572722E+03  0.21705572724E+03  0.25500000000E-02 0. -1.
          2   -1    0    0  501    0  0.00000000000E+00 -0.00000000000E+00 -0.25957422882E+04  0.25957422882E+04  0.25500000000E-02 0.  1.
    -200001    2    1    2    0    0  0.29139765376E+03 -0.58158909746E+02 -0.17810490341E+04  0.19065780284E+04  0.61205315539E+03 0.  0.
   -5000001    2    3    3    0    0  0.36101093309E+03  0.49550217408E+02 -0.12571276029E+04  0.13578140256E+04  0.36125475795E+03 0.  0.
     200001    1    1    2    0    0 -0.29139765376E+03  0.58158909746E+02 -0.59763752686E+03  0.90621998704E+03  0.61300000000E+03 0. -1.
         13    1    4    4    0    0  0.16502356640E+03 -0.67032648130E+02 -0.16862616599E+03  0.24527728881E+03  0.10566000000E+00 0.  1.
    -200003    1    4    4    0    0  0.19598736669E+03  0.11658286554E+03 -0.10885014369E+04  0.11125367368E+04  0.30000000000E+02 0.  1.
    -200000    1    3    3    0    0 -0.69613279333E+02 -0.10770912715E+03 -0.52392143117E+03  0.54876400280E+03  0.10100000000E+03 0. -1.
<mgrwt>
<rscale>  0 0.15012271E+04</rscale>
<asrwt>0</asrwt>
<pdfrwt beam="1">  1        2 0.37082031E+00 0.15012271E+04</pdfrwt>
<pdfrwt beam="2">  1       -2 0.31007963E-01 0.15012271E+04</pdfrwt>
<totfact> 0.36644970E+01</totfact>
</mgrwt>
</event>
<event>
 8    2  0.4480234E-052  0.2220136E+04  0.7818608E-02  0.8510093E-01
          2   -1    0    0  501    0  0.00000000000E+00  0.00000000000E+00  0.33305233315E+04  0.33305233315E+04  0.25500000000E-02 0.  1.
         -2   -1    0    0    0  501 -0.00000000000E+00 -0.00000000000E+00 -0.36998727511E+03  0.36998727511E+03  0.25500000000E-02 0. -1.
    -200001    2    1    2    0    0 -0.34270009989E+03  0.28446356465E+03  0.28324281810E+04  0.29320423211E+04  0.61307413455E+03 0.  0.
   -5000001    2    3    3    0    0  0.11682990643E+03  0.15693526630E+03  0.68370983113E+03  0.72872145468E+03  0.15905320015E+03 0.  0.
     200001    1    1    2    0    0  0.34270009989E+03 -0.28446356465E+03  0.12810787544E+03  0.76846828551E+03  0.61300000000E+03 0. -1.
         13    1    4    4    0    0  0.23635121154E+01  0.12975734940E+03  0.32156859803E+03  0.34676927533E+03  0.10566000000E+00 0.  1.
    -200003    1    4    4    0    0  0.11446639432E+03  0.27177916905E+02  0.36214123310E+03  0.38195217934E+03  0.30000000000E+02 0.  1.
    -200000    1    3    3    0    0 -0.45953000632E+03  0.12752829835E+03  0.21487183499E+04  0.22033208665E+04  0.10100000000E+03 0. -1.
<mgrwt>
<rscale>  0 0.22201363E+04</rscale>
<asrwt>0</asrwt>
<pdfrwt beam="1">  1        2 0.47578903E+00 0.22201363E+04</pdfrwt>
<pdfrwt beam="2">  1       -2 0.52855327E-01 0.22201363E+04</pdfrwt>
<totfact> 0.47113382E+00</totfact>
</mgrwt>
</event>
<event>
 8    2  0.4480234E-052  0.1401500E+04  0.7818608E-02  0.8952734E-01
         -2   -1    0    0    0  501 -0.00000000000E+00  0.00000000000E+00  0.17359273310E+03  0.17359273311E+03  0.25500000000E-02 0. -1.
          2   -1    0    0  501    0  0.00000000000E+00 -0.00000000000E+00 -0.28287504858E+04  0.28287504858E+04  0.25500000000E-02 0.  1.
    -200001    2    1    2    0    0  0.57285382098E+02  0.15690671491E+03 -0.19563621520E+04  0.20578933135E+04  0.61617423508E+03 0.  0.
   -5000001    2    3    3    0    0 -0.38308271591E+02  0.29475298481E+03 -0.16821406747E+04  0.17209390743E+04  0.20901483718E+03 0.  0.
     200001    1    1    2    0    0 -0.57285382098E+02 -0.15690671491E+03 -0.69879560072E+03  0.94444990538E+03  0.61300000000E+03 0.  1.
         13    1    4    4    0    0 -0.16138651279E+02  0.16669918653E+03 -0.13868249539E+04  0.13969010483E+04  0.10566000000E+00 0.  1.
    -200003    1    4    4    0    0 -0.22169620311E+02  0.12805379827E+03 -0.29531572080E+03  0.32403802596E+03  0.30000000000E+02 0.  1.
    -200000    1    3    3    0    0  0.95593653689E+02 -0.13784626989E+03 -0.27422147727E+03  0.33695423925E+03  0.10100000000E+03 0. -1.
<mgrwt>
<rscale>  0 0.14015000E+04</rscale>
<asrwt>0</asrwt>
<pdfrwt beam="1">  1        2 0.40410719E+00 0.14015000E+04</pdfrwt>
<pdfrwt beam="2">  1       -2 0.24798964E-01 0.14015000E+04</pdfrwt>
<totfact> 0.41822236E+01</totfact>
</mgrwt>
</event>
<event>
 8    2  0.4480234E-052  0.1268007E+04  0.7818608E-02  0.9055328E-01
          2   -1    0    0  501    0  0.00000000000E+00  0.00000000000E+00  0.93786061756E+03  0.93786061756E+03  0.25500000000E-02 0.  1.
         -2   -1    0    0    0  501 -0.00000000000E+00 -0.00000000000E+00 -0.42859264616E+03  0.42859264617E+03  0.25500000000E-02 0. -1.
    -200001    2    1    2    0    0 -0.12342886402E+03  0.66110490516E+02  0.34843749136E+03  0.71742265988E+03  0.61129477839E+03 0.  0.
   -5000001    2    3    3    0    0  0.41261781011E+02  0.48684984558E+02  0.45438188205E+03  0.49639806682E+03  0.18940798216E+03 0.  0.
     200001    1    1    2    0    0  0.12342886402E+03 -0.66110490516E+02  0.16083048003E+03  0.64903060385E+03  0.61300000000E+03 0. -1.
         13    1    4    4    0    0  0.38543392569E+02  0.36107308851E+02  0.13771580165E+02  0.54580201974E+02  0.10566000000E+00 0.  1.
    -200003    1    4    4    0    0  0.27183884420E+01  0.12577675707E+02  0.44061030189E+03  0.44181786484E+03  0.30000000000E+02 0.  1.
    -200000    1    3    3    0    0 -0.16469064503E+03  0.17425505958E+02 -0.10594439069E+03  0.22102459306E+03  0.10100000000E+03 0. -1.
<mgrwt>
<rscale>  0 0.12680066E+04</rscale>
<asrwt>0</asrwt>
<pdfrwt beam="1">  1        2 0.13398009E+00 0.12680066E+04</pdfrwt>
<pdfrwt beam="2">  1       -2 0.61227522E-01 0.12680066E+04</pdfrwt>
<totfact> 0.74970142E+01</totfact>
</mgrwt>
</event>
<event>
 8    2  0.4480234E-052  0.1623913E+04  0.7818608E-02  0.8805991E-01
          2   -1    0    0  501    0  0.00000000000E+00  0.00000000000E+00  0.14042861978E+04  0.14042861978E+04  0.25500000000E-02 0.  1.
         -2   -1    0    0    0  501 -0.00000000000E+00 -0.00000000000E+00 -0.46947216272E+03  0.46947216273E+03  0.25500000000E-02 0. -1.
    -200001    2    1    2    0    0 -0.23944238829E+03 -0.45983617641E+03  0.59561033030E+03  0.10022022121E+04  0.61715123106E+03 0.  0.
   -5000001    2    3    3    0    0 -0.31092963867E+03 -0.53753337757E+03  0.56715350625E+03  0.85334633261E+03  0.14462880596E+03 0.  0.
     200001    1    1    2    0    0  0.23944238829E+03  0.45983617641E+03  0.33920370474E+03  0.87155614837E+03  0.61300000000E+03 0. -1.
         13    1    4    4    0    0 -0.11707821779E+02 -0.66726279584E+02  0.18262400131E+02  0.70164064168E+02  0.10566000000E+00 0.  1.
    -200003    1    4    4    0    0 -0.29922181689E+03 -0.47080709799E+03  0.54889110612E+03  0.78318226844E+03  0.30000000000E+02 0.  1.
    -200000    1    3    3    0    0  0.71487250377E+02  0.77697201160E+02  0.28456824050E+02  0.14885587953E+03  0.10100000000E+03 0. -1.
<mgrwt>
<rscale>  0 0.16239129E+04</rscale>
<asrwt>0</asrwt>
<pdfrwt beam="1">  1        2 0.20061232E+00 0.16239129E+04</pdfrwt>
<pdfrwt beam="2">  1       -2 0.67067451E-01 0.16239129E+04</pdfrwt>
<totfact> 0.32212048E+01</totfact>
</mgrwt>
</event>
<event>
 8    2  0.4480234E-052  0.1306758E+04  0.7818608E-02  0.9024223E-01
          2   -1    0    0  501    0  0.00000000000E+00  0.00000000000E+00  0.57432205189E+03  0.57432205189E+03  0.25500000000E-02 0.  1.
         -2   -1    0    0    0  501 -0.00000000000E+00 -0.00000000000E+00 -0.74331798084E+03  0.74331798084E+03  0.25500000000E-02 0. -1.
    -200001    2    1    2    0    0 -0.44805525681E+02  0.21880928764E+03 -0.45410837047E+02  0.65361645301E+03  0.61259063332E+03 0.  0.
   -5000001    2    3    3    0    0 -0.12607660404E+03 -0.17073847770E+03 -0.62173966996E+02  0.24272175581E+03  0.10000655338E+03 0.  0.
     200001    1    1    2    0    0  0.44805525681E+02 -0.21880928764E+03 -0.12358509190E+03  0.66402357972E+03  0.61300000000E+03 0.  1.
         13    1    4    4    0    0 -0.75649073257E+02 -0.13075252722E+03 -0.77948003130E+02  0.16998502292E+03  0.10566000000E+00 0.  1.
    -200003    1    4    4    0    0 -0.50427530784E+02 -0.39985950477E+02  0.15774036135E+02  0.72736732897E+02  0.30000000000E+02 0.  1.
    -200000    1    3    3    0    0  0.81271078361E+02  0.38954776534E+03  0.16763129949E+02  0.41089469720E+03  0.10100000000E+03 0.  1.
<mgrwt>
<rscale>  0 0.13067577E+04</rscale>
<asrwt>0</asrwt>
<pdfrwt beam="1">  1        2 0.82046008E-01 0.13067577E+04</pdfrwt>
<pdfrwt beam="2">  1       -2 0.10618828E+00 0.13067577E+04</pdfrwt>
<totfact> 0.40114960E+01</totfact>
</mgrwt>
</event>
<event>
 8    2  0.4480234E-052  0.1956540E+04  0.7818608E-02  0.8627213E-01
          2   -1    0    0  501    0  0.00000000000E+00  0.00000000000E+00  0.33322343783E+04  0.33322343783E+04  0.25500000000E-02 0.  1.
         -2   -1    0    0    0  501 -0.00000000000E+00 -0.00000000000E+00 -0.28719837810E+03  0.28719837811E+03  0.25500000000E-02 0. -1.
    -200001    2    1    2    0    0  0.86133323347E+02  0.13048570655E+03  0.14168063694E+03  0.64795385957E+03  0.61263801077E+03 0.  0.
   -5000001    2    3    3    0    0 -0.13403423899E+03  0.26770985339E+03 -0.49568748789E+02  0.31019425642E+03  0.64262532095E+02 0.  0.
     200001    1    1    2    0    0 -0.86133323347E+02 -0.13048570655E+03  0.29033553633E+04  0.29714788969E+04  0.61300000000E+03 0.  1.
         13    1    4    4    0    0 -0.28692943337E+02  0.10077890205E+03 -0.13277569265E+01  0.10479239571E+03  0.10566000000E+00 0.  1.
    -200003    1    4    4    0    0 -0.10534129565E+03  0.16693095134E+03 -0.48240991863E+02  0.20540186071E+03  0.30000000000E+02 0.  1.
    -200000    1    3    3    0    0  0.22016756233E+03 -0.13722414685E+03  0.19124938572E+03  0.33775960315E+03  0.10100000000E+03 0.  1.
<mgrwt>
<rscale>  0 0.19565401E+04</rscale>
<asrwt>0</asrwt>
<pdfrwt beam="1">  1        2 0.47603346E+00 0.19565401E+04</pdfrwt>
<pdfrwt beam="2">  1       -2 0.41028342E-01 0.19565401E+04</pdfrwt>
<totfact> 0.80088075E+00</totfact>
</mgrwt>
</event>
<event>
 8    2  0.4480234E-052  0.1580642E+04  0.7818608E-02  0.8832529E-01
         -2   -1    0    0    0  501 -0.00000000000E+00  0.00000000000E+00  0.81962405576E+03  0.81962405576E+03  0.25500000000E-02 0. -1.
          2   -1    0    0  501    0  0.00000000000E+00 -0.00000000000E+00 -0.76206546958E+03  0.76206546958E+03  0.25500000000E-02 0.  1.
    -200001    2    1    2    0    0 -0.22621430487E+03 -0.25633867180E+03 -0.33460874107E+03  0.77767047149E+03  0.61312798521E+03 0.  0.
   -5000001    2    3    3    0    0 -0.23171829023E+03 -0.27889109184E+03  0.51289633292E+02  0.37809887485E+03  0.94098488536E+02 0.  0.
     200001    1    1    2    0    0  0.22621430487E+03  0.25633867180E+03  0.39216732725E+03  0.80401905385E+03  0.61300000000E+03 0. -1.
         13    1    4    4    0    0 -0.17936455153E+03 -0.16826897104E+03  0.55086919155E+02  0.25203307082E+03  0.10566000000E+00 0.  1.
    -200003    1    4    4    0    0 -0.52353738702E+02 -0.11062212080E+03 -0.37972858624E+01  0.12606580403E+03  0.30000000000E+02 0.  1.
    -200000    1    3    3    0    0  0.55039853651E+01  0.22552420045E+02 -0.38589837437E+03  0.39957159664E+03  0.10100000000E+03 0.  1.
<mgrwt>
<rscale>  0 0.15806419E+04</rscale>
<asrwt>0</asrwt>
<pdfrwt beam="1">  1        2 0.10886650E+00 0.15806419E+04</pdfrwt>
<pdfrwt beam="2">  1       -2 0.11708915E+00 0.15806419E+04</pdfrwt>
<totfact> 0.21971123E+01</totfact>
</mgrwt>
</event>
<event>
 8    2  0.4480234E-052  0.1451922E+04  0.7818608E-02  0.8917069E-01
          2   -1    0    0  501    0  0.00000000000E+00  0.00000000000E+00  0.30128593550E+04  0.30128593550E+04  0.25500000000E-02 0.  1.
         -2   -1    0    0    0  501 -0.00000000000E+00 -0.00000000000E+00 -0.17492321483E+03  0.17492321485E+03  0.25500000000E-02 0. -1.
    -200001    2    1    2    0    0  0.22710494210E+03  0.16461714177E+03  0.82731899631E+03  0.10671633779E+04  0.61294819960E+03 0.  0.
   -5000001    2    3    3    0    0  0.17290695335E+03 -0.77721911092E+02  0.76561374059E+03  0.79207397951E+03  0.72658648853E+02 0.  0.
     200001    1    1    2    0    0 -0.22710494210E+03 -0.16461714177E+03  0.20106171439E+04  0.21206191919E+04  0.61300000000E+03 0.  1.
         13    1    4    4    0    0  0.78546967347E+02 -0.12526850590E+02  0.39615768694E+03  0.40406369814E+03  0.10566000000E+00 0.  1.
    -200003    1    4    4    0    0  0.94359985998E+02 -0.65195060502E+02  0.36945605364E+03  0.38801028137E+03  0.30000000000E+02 0.  1.
    -200000    1    3    3    0    0  0.54197988753E+02  0.24233905286E+03  0.61705255724E+02  0.27508939840E+03  0.10100000000E+03 0. -1.
<mgrwt>
<rscale>  0 0.14519215E+04</rscale>
<asrwt>0</asrwt>
<pdfrwt beam="1">  1        2 0.43040848E+00 0.14519215E+04</pdfrwt>
<pdfrwt beam="2">  1       -2 0.24989031E-01 0.14519215E+04</pdfrwt>
<totfact> 0.32522893E+01</totfact>
</mgrwt>
</event>
<event>
 8    2  0.4480234E-052  0.1878160E+04  0.7818608E-02  0.8665805E-01
         -2   -1    0    0    0  501 -0.00000000000E+00  0.00000000000E+00  0.17308847628E+04  0.17308847628E+04  0.25500000000E-02 0. -1.
          2   -1    0    0  501    0  0.00000000000E+00 -0.00000000000E+00 -0.50949162092E+03  0.50949162093E+03  0.25500000000E-02 0.  1.
    -200001    2    1    2    0    0  0.42336462852E+03  0.29217838408E+03  0.11975193211E+04  0.14397861164E+04  0.61182164059E+03 0.  0.
   -5000001    2    3    3    0    0 -0.61770588313E+02 -0.10054625313E+03  0.37774687666E+03  0.40450032018E+03  0.83681847489E+02 0.  0.
     200001    1    1    2    0    0 -0.42336462852E+03 -0.29217838408E+03  0.23873820815E+02  0.80059026732E+03  0.61300000000E+03 0. -1.
         13    1    4    4    0    0 -0.13589149890E+02 -0.60715021482E+02  0.96395675604E+02  0.11473062480E+03  0.10566000000E+00 0.  1.
    -200003    1    4    4    0    0 -0.48181438423E+02 -0.39831231650E+02  0.28135120106E+03  0.28976969538E+03  0.30000000000E+02 0.  1.
    -200000    1    3    3    0    0  0.48513521683E+03  0.39272463721E+03  0.81977244440E+03  0.10352857962E+04  0.10100000000E+03 0. -1.
<mgrwt>
<rscale>  0 0.18781600E+04</rscale>
<asrwt>0</asrwt>
<pdfrwt beam="1">  1        2 0.72784517E-01 0.18781600E+04</pdfrwt>
<pdfrwt beam="2">  1       -2 0.24726925E+00 0.18781600E+04</pdfrwt>
<totfact> 0.41295863E+00</totfact>
</mgrwt>
</event>
<event>
 8    2  0.4480234E-052  0.2256368E+04  0.7818608E-02  0.8495326E-01
          2   -1    0    0  501    0  0.00000000000E+00  0.00000000000E+00  0.13839381213E+04  0.13839381213E+04  0.25500000000E-02 0.  1.
         -2   -1    0    0    0  501 -0.00000000000E+00 -0.00000000000E+00 -0.91969370306E+03  0.91969370306E+03  0.25500000000E-02 0. -1.
    -200001    2    1    2    0    0 -0.35097784609E+03 -0.87455763616E+03  0.33364842256E+03  0.11718806054E+04  0.61151155022E+03 0.  0.
   -5000001    2    3    3    0    0  0.40892843977E+02 -0.65849124088E+03  0.19404401299E+03  0.69236239296E+03  0.80185193188E+02 0.  0.
     200001    1    1    2    0    0  0.35097784609E+03  0.87455763616E+03  0.13059599563E+03  0.11317512189E+04  0.61300000000E+03 0.  1.
         13    1    4    4    0    0  0.32120011454E+02 -0.45397036793E+03  0.10466069619E+03  0.46698464920E+03  0.10566000000E+00 0.  1.
    -200003    1    4    4    0    0  0.87728325226E+01 -0.20452087295E+03  0.89383316798E+02  0.22537774377E+03  0.30000000000E+02 0.  1.
    -200000    1    3    3    0    0 -0.39187069006E+03 -0.21606639528E+03  0.13960440958E+03  0.47951821245E+03  0.10100000000E+03 0. -1.
<mgrwt>
<rscale>  0 0.22563680E+04</rscale>
<asrwt>0</asrwt>
<pdfrwt beam="1">  1        2 0.19770545E+00 0.22563680E+04</pdfrwt>
<pdfrwt beam="2">  1       -2 0.13138481E+00 0.22563680E+04</pdfrwt>
<totfact> 0.65276154E+00</totfact>
</mgrwt>
</event>
<event>
 8    2  0.4480234E-052  0.1601746E+04  0.7818608E-02  0.8819476E-01
          2   -1    0    0  501    0  0.00000000000E+00  0.00000000000E+00  0.20855972884E+04  0.20855972884E+04  0.25500000000E-02 0.  1.
         -2   -1    0    0    0  501 -0.00000000000E+00 -0.00000000000E+00 -0.30753660307E+03  0.30753660308E+03  0.25500000000E-02 0. -1.
    -200001    2    1    2    0    0  0.28477532116E+03 -0.41749307269E+03  0.10421222077E+04  0.13101879592E+04  0.61251640263E+03 0.  0.
   -5000001    2    3    3    0    0  0.12078018959E+03 -0.15312704153E+03 -0.67457269182E+01  0.21150295167E+03  0.81561318583E+02 0.  0.
     200001    1    1    2    0    0 -0.28477532116E+03  0.41749307269E+03  0.73593847767E+03  0.10829459323E+04  0.61300000000E+03 0. -1.
         13    1    4    4    0    0  0.24069345196E+02 -0.74727815314E+02  0.19242488602E+02  0.80832322071E+02  0.10566000000E+00 0.  1.
    -200003    1    4    4    0    0  0.96710844389E+02 -0.78399226219E+02 -0.25988215520E+02  0.13067062960E+03  0.30000000000E+02 0.  1.
    -200000    1    3    3    0    0  0.16399513158E+03 -0.26436603116E+03  0.10488679346E+04  0.10986850076E+04  0.10100000000E+03 0.  1.
<mgrwt>
<rscale>  0 0.16017459E+04</rscale>
<asrwt>0</asrwt>
<pdfrwt beam="1">  1        2 0.29794248E+00 0.16017459E+04</pdfrwt>
<pdfrwt beam="2">  1       -2 0.43933799E-01 0.16017459E+04</pdfrwt>
<totfact> 0.34206215E+01</totfact>
</mgrwt>
</event>
<event>
 8    2  0.4480234E-052  0.1278056E+04  0.7818608E-02  0.9047150E-01
         -2   -1    0    0    0  501 -0.00000000000E+00  0.00000000000E+00  0.14629310940E+04  0.14629310940E+04  0.25500000000E-02 0. -1.
          2   -1    0    0  501    0  0.00000000000E+00 -0.00000000000E+00 -0.27913623130E+03  0.27913623131E+03  0.25500000000E-02 0.  1.
    -200001    2    1    2    0    0  0.98400824543E+02 -0.93210615133E+02  0.79028348461E+03  0.10011279582E+04  0.59944829766E+03 0.  0.
   -5000001    2    3    3    0    0  0.13529559799E+03 -0.13967428159E+03  0.32189330944E+03  0.51831282503E+03  0.35667783524E+03 0.  0.
     200001    1    1    2    0    0 -0.98400824543E+02  0.93210615133E+02  0.39351137804E+03  0.74093936708E+03  0.61300000000E+03 0. -1.
         13    1    4    4    0    0 -0.13249455560E+02 -0.18721185634E+03  0.35762386834E+02  0.19105702474E+03  0.10566000000E+00 0.  1.
    -200003    1    4    4    0    0  0.14854505355E+03  0.47537574750E+02  0.28613092261E+03  0.32725580028E+03  0.30000000000E+02 0.  1.
    -200000    1    3    3    0    0 -0.36894773445E+02  0.46463666460E+02  0.46839017517E+03  0.48281513315E+03  0.10100000000E+03 0. -1.
<mgrwt>
<rscale>  0 0.12780564E+04</rscale>
<asrwt>0</asrwt>
<pdfrwt beam="1">  1        2 0.39876604E-01 0.12780564E+04</pdfrwt>
<pdfrwt beam="2">  1       -2 0.20899016E+00 0.12780564E+04</pdfrwt>
<totfact> 0.14762727E+01</totfact>
</mgrwt>
</event>
<event>
 8    2  0.4480234E-052  0.2510718E+04  0.7818608E-02  0.8399177E-01
          2   -1    0    0  501    0  0.00000000000E+00  0.00000000000E+00  0.23977828680E+04  0.23977828680E+04  0.25500000000E-02 0.  1.
         -2   -1    0    0    0  501 -0.00000000000E+00 -0.00000000000E+00 -0.65724291429E+03  0.65724291430E+03  0.25500000000E-02 0. -1.
    -200001    2    1    2    0    0  0.38320487962E+03  0.36199990849E+03 -0.30130183200E+03  0.85894363644E+03  0.60754544118E+03 0.  0.
   -5000001    2    3    3    0    0  0.42033138969E+03  0.36157581055E+02 -0.28328625246E+03  0.51532006157E+03  0.85544241185E+02 0.  0.
     200001    1    1    2    0    0 -0.38320487962E+03 -0.36199990849E+03  0.20418417857E+04  0.21960821459E+04  0.61300000000E+03 0.  1.
         13    1    4    4    0    0  0.18691191940E+03  0.29411399670E+02 -0.84652843243E+02  0.20728533734E+03  0.10566000000E+00 0.  1.
    -200003    1    4    4    0    0  0.23341947029E+03  0.67461813851E+01 -0.19863340922E+03  0.30803472423E+03  0.30000000000E+02 0.  1.
    -200000    1    3    3    0    0 -0.37126510071E+02  0.32584232743E+03 -0.18015579546E+02  0.34362357487E+03  0.10100000000E+03 0. -1.
<mgrwt>
<rscale>  0 0.25107177E+04</rscale>
<asrwt>0</asrwt>
<pdfrwt beam="1">  1        2 0.34254041E+00 0.25107177E+04</pdfrwt>
<pdfrwt beam="2">  1       -2 0.93891845E-01 0.25107177E+04</pdfrwt>
<totfact> 0.42826649E+00</totfact>
</mgrwt>
</event>
<event>
 8    2  0.4480234E-052  0.1372159E+04  0.7818608E-02  0.8974221E-01
         -2   -1    0    0    0  501 -0.00000000000E+00  0.00000000000E+00  0.89147012374E+03  0.89147012375E+03  0.25500000000E-02 0. -1.
          2   -1    0    0  501    0  0.00000000000E+00 -0.00000000000E+00 -0.52800997672E+03  0.52800997673E+03  0.25500000000E-02 0.  1.
    -200001    2    1    2    0    0  0.29061083071E+03 -0.56319950022E+02  0.26876910774E+03  0.73219414498E+03  0.61338800198E+03 0.  0.
   -5000001    2    3    3    0    0 -0.15118083802E+02 -0.23523249234E+03 -0.43833949287E+02  0.24907765983E+03  0.67493581937E+02 0.  0.
     200001    1    1    2    0    0 -0.29061083071E+03  0.56319950022E+02  0.94691039286E+02  0.68728595549E+03  0.61300000000E+03 0. -1.
         13    1    4    4    0    0  0.10231736626E+02 -0.14575481843E+03 -0.13385197265E+02  0.14672535636E+03  0.10566000000E+00 0.  1.
    -200003    1    4    4    0    0 -0.25349820428E+02 -0.89477673916E+02 -0.30448752023E+02  0.10235230347E+03  0.30000000000E+02 0.  1.
    -200000    1    3    3    0    0  0.30572891451E+03  0.17891254232E+03  0.31260305702E+03  0.48311648516E+03  0.10100000000E+03 0. -1.
<mgrwt>
<rscale>  0 0.13721591E+04</rscale>
<asrwt>0</asrwt>
<pdfrwt beam="1">  1        2 0.75429997E-01 0.13721591E+04</pdfrwt>
<pdfrwt beam="2">  1       -2 0.12735287E+00 0.13721591E+04</pdfrwt>
<totfact> 0.28164003E+01</totfact>
</mgrwt>
</event>
<event>
 8    2  0.4480234E-052  0.1289565E+04  0.7818608E-02  0.9037882E-01
          2   -1    0    0  501    0  0.00000000000E+00  0.00000000000E+00  0.31284017621E+04  0.31284017621E+04  0.25500000000E-02 0.  1.
         -2   -1    0    0    0  501 -0.00000000000E+00 -0.00000000000E+00 -0.13289347729E+03  0.13289347731E+03  0.25500000000E-02 0. -1.
    -200001    2    1    2    0    0 -0.41031918241E+02  0.17220945035E+03  0.17438386010E+04  0.18563803984E+04  0.61142080775E+03 0.  0.
   -5000001    2    3    3    0    0 -0.23279599124E+03  0.29020276071E+03  0.11226997630E+04  0.11880164728E+04  0.11187835327E+03 0.  0.
     200001    1    1    2    0    0  0.41031918241E+02 -0.17220945035E+03  0.12516696838E+04  0.14049148410E+04  0.61300000000E+03 0. -1.
         13    1    4    4    0    0 -0.17415147067E+03  0.21167323386E+03  0.67089033894E+03  0.72472625916E+03  0.10566000000E+00 0.  1.
    -200003    1    4    4    0    0 -0.58644520568E+02  0.78529526854E+02  0.45180942406E+03  0.46329021363E+03  0.30000000000E+02 0.  1.
    -200000    1    3    3    0    0  0.19176407300E+03 -0.11799331037E+03  0.62113883801E+03  0.66836392562E+03  0.10100000000E+03 0. -1.
<mgrwt>
<rscale>  0 0.12895646E+04</rscale>
<asrwt>0</asrwt>
<pdfrwt beam="1">  1        2 0.44691456E+00 0.12895646E+04</pdfrwt>
<pdfrwt beam="2">  1       -2 0.18984781E-01 0.12895646E+04</pdfrwt>
<totfact> 0.46341507E+01</totfact>
</mgrwt>
</event>
<event>
 8    2  0.4480234E-052  0.1377990E+04  0.7818608E-02  0.8969906E-01
         -2   -1    0    0    0  501 -0.00000000000E+00  0.00000000000E+00  0.24696426193E+03  0.24696426195E+03  0.25500000000E-02 0.  1.
          2   -1    0    0  501    0  0.00000000000E+00 -0.00000000000E+00 -0.19221979741E+04  0.19221979741E+04  0.25500000000E-02 0. -1.
    -200001    2    1    2    0    0  0.93027512332E+02 -0.18540876484E+03 -0.12093725416E+04  0.13717751542E+04  0.61331443900E+03 0.  0.
   -5000001    2    3    3    0    0 -0.10459734992E+03  0.14899157537E+03 -0.19965339988E+03  0.28521502290E+03  0.91362104091E+02 0.  0.
     200001    1    1    2    0    0 -0.93027512332E+02  0.18540876484E+03 -0.46586117060E+03  0.79738708192E+03  0.61300000000E+03 0.  1.
         13    1    4    4    0    0 -0.61827931906E+02  0.13133367867E+03 -0.16640907089E+03  0.22082395331E+03  0.10566000000E+00 0.  1.
    -200003    1    4    4    0    0 -0.42769418012E+02  0.17657896694E+02 -0.33244328992E+02  0.64391069589E+02  0.30000000000E+02 0.  1.
    -200000    1    3    3    0    0  0.19762486225E+03 -0.33440034021E+03 -0.10097191417E+04  0.10865601313E+04  0.10100000000E+03 0. -1.
<mgrwt>
<rscale>  0 0.13779901E+04</rscale>
<asrwt>0</asrwt>
<pdfrwt beam="1">  1        2 0.27459970E+00 0.13779901E+04</pdfrwt>
<pdfrwt beam="2">  1       -2 0.35280610E-01 0.13779901E+04</pdfrwt>
<totfact> 0.64767054E+01</totfact>
</mgrwt>
</event>
<event>
 8    2  0.4480234E-052  0.1978535E+04  0.7818608E-02  0.8616723E-01
          2   -1    0    0  501    0  0.00000000000E+00  0.00000000000E+00  0.15447439157E+04  0.15447439157E+04  0.25500000000E-02 0.  1.
         -2   -1    0    0    0  501 -0.00000000000E+00 -0.00000000000E+00 -0.63353543328E+03  0.63353543328E+03  0.25500000000E-02 0. -1.
    -200001    2    1    2    0    0 -0.35902350813E+03  0.34691757561E+03 -0.19833974728E+03  0.81588588244E+03  0.61406956784E+03 0.  0.
   -5000001    2    3    3    0    0 -0.11290504583E+03  0.31635732679E+03 -0.35753180820E+03  0.50435524421E+03  0.11711409350E+03 0.  0.
     200001    1    1    2    0    0  0.35902350813E+03 -0.34691757561E+03  0.11095482297E+04  0.13623934666E+04  0.61300000000E+03 0.  1.
         13    1    4    4    0    0 -0.23107119347E+02  0.67370499670E+02 -0.15214166418E+03  0.16798756005E+03  0.10566000000E+00 0.  1.
    -200003    1    4    4    0    0 -0.89797926485E+02  0.24898682712E+03 -0.20539014403E+03  0.33636768416E+03  0.30000000000E+02 0.  1.
    -200000    1    3    3    0    0 -0.24611846230E+03  0.30560248819E+02  0.15919206092E+03  0.31153063822E+03  0.10100000000E+03 0.  1.
<mgrwt>
<rscale>  0 0.19785348E+04</rscale>
<asrwt>0</asrwt>
<pdfrwt beam="1">  1        2 0.22067770E+00 0.19785348E+04</pdfrwt>
<pdfrwt beam="2">  1       -2 0.90505063E-01 0.19785348E+04</pdfrwt>
<totfact> 0.13490344E+01</totfact>
</mgrwt>
</event>
<event>
 8    2  0.4480234E-052  0.1742436E+04  0.7818608E-02  0.8737525E-01
         -2   -1    0    0    0  501 -0.00000000000E+00  0.00000000000E+00  0.32466611244E+03  0.32466611245E+03  0.25500000000E-02 0. -1.
          2   -1    0    0  501    0  0.00000000000E+00 -0.00000000000E+00 -0.23378510119E+04  0.23378510119E+04  0.25500000000E-02 0.  1.
    -200001    2    1    2    0    0  0.69396413810E+02 -0.30938659814E+03 -0.19403248236E+03  0.71685002900E+03  0.61293509485E+03 0.  0.
   -5000001    2    3    3    0    0  0.13295073518E+03  0.21899267805E+02  0.15364895519E+03  0.22200373088E+03  0.86730497396E+02 0.  0.
     200001    1    1    2    0    0 -0.69396413810E+02  0.30938659814E+03 -0.18191524171E+04  0.19456670954E+04  0.61300000000E+03 0.  1.
         13    1    4    4    0    0  0.98146647673E+02  0.45904963985E+02  0.10134059614E+03  0.14835753354E+03  0.10566000000E+00 0.  1.
    -200003    1    4    4    0    0  0.34804087508E+02 -0.24005696180E+02  0.52308359050E+02  0.73646197341E+02  0.30000000000E+02 0.  1.
    -200000    1    3    3    0    0 -0.63554321371E+02 -0.33128586595E+03 -0.34768143755E+03  0.49484629812E+03  0.10100000000E+03 0.  1.
<mgrwt>
<rscale>  0 0.17424362E+04</rscale>
<asrwt>0</asrwt>
<pdfrwt beam="1">  1        2 0.33397871E+00 0.17424362E+04</pdfrwt>
<pdfrwt beam="2">  1       -2 0.46380874E-01 0.17424362E+04</pdfrwt>
<totfact> 0.22477454E+01</totfact>
</mgrwt>
</event>
<event>
 8    2  0.4480234E-052  0.1424925E+04  0.7818608E-02  0.8935972E-01
         -2   -1    0    0    0  501 -0.00000000000E+00  0.00000000000E+00  0.16603644236E+03  0.16603644238E+03  0.25500000000E-02 0.  1.
          2   -1    0    0  501    0  0.00000000000E+00 -0.00000000000E+00 -0.30571767454E+04  0.30571767454E+04  0.25500000000E-02 0. -1.
    -200001    2    1    2    0    0 -0.31021447961E+03  0.13989496227E+03 -0.17192032257E+04  0.18575598141E+04  0.61568263565E+03 0.  0.
   -5000001    2    3    3    0    0  0.93290922159E+02 -0.15267074016E+03 -0.45478217374E+03  0.49470512773E+03  0.76777514897E+02 0.  0.
     200001    1    1    2    0    0  0.31021447961E+03 -0.13989496227E+03 -0.11719370774E+04  0.13656533737E+04  0.61300000000E+03 0. -1.
         13    1    4    4    0    0  0.61060736029E+02 -0.76307255904E+02 -0.31157807365E+03  0.32654573635E+03  0.10566000000E+00 0.  1.
    -200003    1    4    4    0    0  0.32230186130E+02 -0.76363484255E+02 -0.14320410009E+03  0.16815939138E+03  0.30000000000E+02 0.  1.
    -200000    1    3    3    0    0 -0.40350540177E+03  0.29256570243E+03 -0.12644210520E+04  0.13628546864E+04  0.10100000000E+03 0. -1.
<mgrwt>
<rscale>  0 0.14249249E+04</rscale>
<asrwt>0</asrwt>
<pdfrwt beam="1">  1        2 0.43673950E+00 0.14249249E+04</pdfrwt>
<pdfrwt beam="2">  1       -2 0.23719494E-01 0.14249249E+04</pdfrwt>
<totfact> 0.33833974E+01</totfact>
</mgrwt>
</event>
<event>
 8    2  0.4480234E-052  0.1722367E+04  0.7818608E-02  0.8748710E-01
         -2   -1    0    0    0  501 -0.00000000000E+00  0.00000000000E+00  0.38011701058E+03  0.38011701059E+03  0.25500000000E-02 0.  1.
          2   -1    0    0  501    0  0.00000000000E+00 -0.00000000000E+00 -0.19510754036E+04  0.19510754036E+04  0.25500000000E-02 0. -1.
    -200001    2    1    2    0    0 -0.44866326052E+03  0.28588335756E+03 -0.11750501009E+04  0.14281196645E+04  0.61298859777E+03 0.  0.
   -5000001    2    3    3    0    0  0.82979348055E+02 -0.52336668077E+02 -0.37584304174E+03  0.40539312606E+03  0.11602109981E+03 0.  0.
     200001    1    1    2    0    0  0.44866326052E+03 -0.28588335756E+03 -0.39590829209E+03  0.90307274968E+03  0.61300000000E+03 0.  1.
         13    1    4    4    0    0  0.79061419784E+02 -0.76417919619E+02 -0.31135269217E+03  0.33019829894E+03  0.10566000000E+00 0.  1.
    -200003    1    4    4    0    0  0.39179282712E+01  0.24081251542E+02 -0.64490349570E+02  0.75194827119E+02  0.30000000000E+02 0.  1.
    -200000    1    3    3    0    0 -0.53164260857E+03  0.33822002563E+03 -0.79920705919E+03  0.10227265385E+04  0.10100000000E+03 0. -1.
<mgrwt>
<rscale>  0 0.17223669E+04</rscale>
<asrwt>0</asrwt>
<pdfrwt beam="1">  1        2 0.27872505E+00 0.17223669E+04</pdfrwt>
<pdfrwt beam="2">  1       -2 0.54302431E-01 0.17223669E+04</pdfrwt>
<totfact> 0.25847956E+01</totfact>
</mgrwt>
</event>
<event>
 8    2  0.4480234E-052  0.2613055E+04  0.7818608E-02  0.8363780E-01
          2   -1    0    0  501    0  0.00000000000E+00  0.00000000000E+00  0.14394617784E+04  0.14394617784E+04  0.25500000000E-02 0.  1.
         -2   -1    0    0    0  501 -0.00000000000E+00 -0.00000000000E+00 -0.11858696600E+04  0.11858696600E+04  0.25500000000E-02 0. -1.
    -200001    2    1    2    0    0  0.62853710929E+03  0.74606967697E+03 -0.49133611816E+03  0.12533380207E+04  0.61462683992E+03 0.  0.
   -5000001    2    3    3    0    0  0.49232585324E+03  0.69845936823E+03 -0.59913180266E+03  0.10468406663E+04  0.81769363060E+02 0.  0.
     200001    1    1    2    0    0 -0.62853710929E+03 -0.74606967697E+03  0.74492823651E+03  0.13719934177E+04  0.61300000000E+03 0.  1.
         13    1    4    4    0    0  0.12843139317E+03  0.24082941177E+03 -0.19627258545E+03  0.33617907027E+03  0.10566000000E+00 0.  1.
    -200003    1    4    4    0    0  0.36389446007E+03  0.45762995646E+03 -0.40285921722E+03  0.71066159599E+03  0.30000000000E+02 0.  1.
    -200000    1    3    3    0    0  0.13621125605E+03  0.47610308745E+02  0.10779568451E+03  0.20649735439E+03  0.10100000000E+03 0.  1.
<mgrwt>
<rscale>  0 0.26130550E+04</rscale>
<asrwt>0</asrwt>
<pdfrwt beam="1">  1        2 0.20563740E+00 0.26130550E+04</pdfrwt>
<pdfrwt beam="2">  1       -2 0.16940995E+00 0.26130550E+04</pdfrwt>
<totfact> 0.30148776E+00</totfact>
</mgrwt>
</event>
<event>
 8    2  0.4480234E-052  0.1620808E+04  0.7818608E-02  0.8807866E-01
         -2   -1    0    0    0  501 -0.00000000000E+00  0.00000000000E+00  0.47356147936E+03  0.47356147937E+03  0.25500000000E-02 0. -1.
          2   -1    0    0  501    0  0.00000000000E+00 -0.00000000000E+00 -0.13868416416E+04  0.13868416417E+04  0.25500000000E-02 0.  1.
    -200001    2    1    2    0    0  0.30994924484E+03 -0.29744614129E+02  0.35822897376E+02  0.68843089682E+03  0.61294415999E+03 0.  0.
   -5000001    2    3    3    0    0 -0.76016153611E+02 -0.14216527909E+03  0.17556160046E+03  0.25101164729E+03  0.78711811905E+02 0.  0.
     200001    1    1    2    0    0 -0.30994924484E+03  0.29744614129E+02 -0.94910305966E+03  0.11719722242E+04  0.61300000000E+03 0.  1.
         13    1    4    4    0    0 -0.11123820349E+02 -0.63833628833E+02  0.31289516562E+02  0.71954962024E+02  0.10566000000E+00 0.  1.
    -200003    1    4    4    0    0 -0.64892333262E+02 -0.78331650256E+02  0.14427208390E+03  0.17905668527E+03  0.30000000000E+02 0.  1.
    -200000    1    3    3    0    0  0.38596539846E+03  0.11242066496E+03 -0.13973870308E+03  0.43741924952E+03  0.10100000000E+03 0. -1.
<mgrwt>
<rscale>  0 0.16208082E+04</rscale>
<asrwt>0</asrwt>
<pdfrwt beam="1">  1        2 0.19812023E+00 0.16208082E+04</pdfrwt>
<pdfrwt beam="2">  1       -2 0.67651640E-01 0.16208082E+04</pdfrwt>
<totfact> 0.32316915E+01</totfact>
</mgrwt>
</event>
<event>
 8    2  0.4480234E-052  0.1459080E+04  0.7818608E-02  0.8912130E-01
         -2   -1    0    0    0  501 -0.00000000000E+00  0.00000000000E+00  0.11163360994E+04  0.11163360994E+04  0.25500000000E-02 0. -1.
          2   -1    0    0  501    0  0.00000000000E+00 -0.00000000000E+00 -0.47676369727E+03  0.47676369728E+03  0.25500000000E-02 0.  1.
    -200001    2    1    2    0    0  0.55743549871E+02 -0.36128533537E+03  0.15523462538E+03  0.73055326526E+03  0.61316869421E+03 0.  0.
   -5000001    2    3    3    0    0  0.72508439177E+02  0.88618654836E+01 -0.18915224723E+03  0.21471091547E+03  0.70613017080E+02 0.  0.
     200001    1    1    2    0    0 -0.55743549871E+02  0.36128533537E+03  0.48433777679E+03  0.86254653146E+03  0.61300000000E+03 0. -1.
         13    1    4    4    0    0  0.39651086287E+02  0.32450139910E+02 -0.94655190084E+02  0.10763287787E+03  0.10566000000E+00 0.  1.
    -200003    1    4    4    0    0  0.32857352889E+02 -0.23588274426E+02 -0.94497057143E+02  0.10707803761E+03  0.30000000000E+02 0.  1.
    -200000    1    3    3    0    0 -0.16764889305E+02 -0.37014720085E+03  0.34438687260E+03  0.51584234979E+03  0.10100000000E+03 0.  1.
<mgrwt>
<rscale>  0 0.14590799E+04</rscale>
<asrwt>0</asrwt>
<pdfrwt beam="1">  1        2 0.68109100E-01 0.14590799E+04</pdfrwt>
<pdfrwt beam="2">  1       -2 0.15947658E+00 0.14590799E+04</pdfrwt>
<totfact> 0.17480554E+01</totfact>
</mgrwt>
</event>
<event>
 8    2  0.4480234E-052  0.1597807E+04  0.7818608E-02  0.8821896E-01
         -2   -1    0    0    0  501 -0.00000000000E+00  0.00000000000E+00  0.68105715250E+03  0.68105715250E+03  0.25500000000E-02 0. -1.
          2   -1    0    0  501    0  0.00000000000E+00 -0.00000000000E+00 -0.93714162550E+03  0.93714162550E+03  0.25500000000E-02 0.  1.
    -200001    2    1    2    0    0  0.35027144976E+03  0.33762926483E+03 -0.29428480550E+03  0.83467349162E+03  0.61105865666E+03 0.  0.
   -5000001    2    3    3    0    0 -0.82404419408E+02  0.31325691029E+03 -0.14481956683E+03  0.36526612377E+03  0.86753985805E+02 0.  0.
     200001    1    1    2    0    0 -0.35027144976E+03 -0.33762926483E+03  0.38200332501E+02  0.78352528638E+03  0.61300000000E+03 0. -1.
         13    1    4    4    0    0  0.55323230223E+01  0.12626776591E+02  0.74812588804E+01  0.15685103875E+02  0.10566000000E+00 0.  1.
    -200003    1    4    4    0    0 -0.87936742430E+02  0.30063013370E+03 -0.15230082571E+03  0.34958101989E+03  0.30000000000E+02 0.  1.
    -200000    1    3    3    0    0  0.43267586917E+03  0.24372354546E+02 -0.14946523867E+03  0.46940736786E+03  0.10100000000E+03 0. -1.
<mgrwt>
<rscale>  0 0.15978073E+04</rscale>
<asrwt>0</asrwt>
<pdfrwt beam="1">  1        2 0.13387737E+00 0.15978073E+04</pdfrwt>
<pdfrwt beam="2">  1       -2 0.97293880E-01 0.15978073E+04</pdfrwt>
<totfact> 0.26069335E+01</totfact>
</mgrwt>
</event>
<event>
 8    2  0.4480234E-052  0.1368383E+04  0.7818608E-02  0.8977028E-01
          2   -1    0    0  501    0  0.00000000000E+00  0.00000000000E+00  0.20077986535E+04  0.20077986535E+04  0.25500000000E-02 0.  1.
         -2   -1    0    0    0  501 -0.00000000000E+00 -0.00000000000E+00 -0.23314996441E+03  0.23314996443E+03  0.25500000000E-02 0. -1.
    -200001    2    1    2    0    0 -0.10002996472E+03  0.24328787041E+02  0.13542041634E+04  0.14905217508E+04  0.61415656779E+03 0.  0.
   -5000001    2    3    3    0    0  0.49513953036E+02 -0.24409912355E+03  0.85616949918E+03  0.89667290364E+03  0.94657652269E+02 0.  0.
     200001    1    1    2    0    0  0.10002996472E+03 -0.24328787041E+02  0.42044452572E+03  0.75042686714E+03  0.61300000000E+03 0. -1.
         13    1    4    4    0    0  0.33789346222E+02 -0.19095386409E+03  0.73427821241E+03  0.75945348937E+03  0.10566000000E+00 0.  1.
    -200003    1    4    4    0    0  0.15724606814E+02 -0.53145259463E+02  0.12189128676E+03  0.13721941427E+03  0.30000000000E+02 0. -1.
    -200000    1    3    3    0    0 -0.14954391776E+03  0.26842791059E+03  0.49803466418E+03  0.59384884714E+03  0.10100000000E+03 0. -1.
<mgrwt>
<rscale>  0 0.13683833E+04</rscale>
<asrwt>0</asrwt>
<pdfrwt beam="1">  1        2 0.28682839E+00 0.13683833E+04</pdfrwt>
<pdfrwt beam="2">  1       -2 0.33307137E-01 0.13683833E+04</pdfrwt>
<totfact> 0.65357533E+01</totfact>
</mgrwt>
</event>
<event>
 8    2  0.4480234E-052  0.1456228E+04  0.7818608E-02  0.8914094E-01
          2   -1    0    0  501    0  0.00000000000E+00  0.00000000000E+00  0.12763629644E+04  0.12763629644E+04  0.25500000000E-02 0.  1.
         -2   -1    0    0    0  501 -0.00000000000E+00 -0.00000000000E+00 -0.41535987040E+03  0.41535987041E+03  0.25500000000E-02 0. -1.
    -200001    2    1    2    0    0  0.21674660135E+03 -0.31856311287E+03  0.52246901633E+03  0.89245074857E+03  0.61239931378E+03 0.  0.
   -5000001    2    3    3    0    0  0.51697012051E+01 -0.22491524579E+03  0.58095302832E+03  0.63330583285E+03  0.11382558238E+03 0.  0.
     200001    1    1    2    0    0 -0.21674660135E+03  0.31856311287E+03  0.33853407765E+03  0.79927208622E+03  0.61300000000E+03 0. -1.
         13    1    4    4    0    0  0.46983859443E+02 -0.53103910384E+02  0.20123714099E+03  0.21336332024E+03  0.10566000000E+00 0.  1.
    -200003    1    4    4    0    0 -0.41814158238E+02 -0.17181133541E+03  0.37971588734E+03  0.41994251261E+03  0.30000000000E+02 0.  1.
    -200000    1    3    3    0    0  0.21157690014E+03 -0.93647867081E+02 -0.58484011996E+02  0.25914491572E+03  0.10100000000E+03 0.  1.
<mgrwt>
<rscale>  0 0.14562279E+04</rscale>
<asrwt>0</asrwt>
<pdfrwt beam="1">  1        2 0.18233757E+00 0.14562279E+04</pdfrwt>
<pdfrwt beam="2">  1       -2 0.59337124E-01 0.14562279E+04</pdfrwt>
<totfact> 0.49804177E+01</totfact>
</mgrwt>
</event>
<event>
 8    2  0.4480234E-052  0.1263316E+04  0.7818608E-02  0.9059172E-01
         -2   -1    0    0    0  501 -0.00000000000E+00  0.00000000000E+00  0.28329991033E+03  0.28329991034E+03  0.25500000000E-02 0. -1.
          2   -1    0    0  501    0  0.00000000000E+00 -0.00000000000E+00 -0.14083736449E+04  0.14083736449E+04  0.25500000000E-02 0.  1.
    -200001    2    1    2    0    0  0.20950953008E+02  0.11040765998E+03 -0.38697103286E+03  0.72565420136E+03  0.60348872887E+03 0.  0.
   -5000001    2    3    3    0    0  0.47277403432E+02 -0.56223388538E+02  0.69753595398E+02  0.22840439053E+03  0.20471145363E+03 0.  0.
     200001    1    1    2    0    0 -0.20950953008E+02 -0.11040765998E+03 -0.73810270173E+03  0.96601935390E+03  0.61300000000E+03 0.  1.
         13    1    4    4    0    0  0.42011455757E+02 -0.17718520018E+02  0.13742961709E+03  0.14479578441E+03  0.10566000000E+00 0.  1.
    -200003    1    4    4    0    0  0.52659476747E+01 -0.38504868519E+02 -0.67676021690E+02  0.83608606114E+02  0.30000000000E+02 0.  1.
    -200000    1    3    3    0    0 -0.26326450424E+02  0.16663104852E+03 -0.45672462826E+03  0.49724981084E+03  0.10100000000E+03 0.  1.
<mgrwt>
<rscale>  0 0.12633165E+04</rscale>
<asrwt>0</asrwt>
<pdfrwt beam="1">  1        2 0.20119623E+00 0.12633165E+04</pdfrwt>
<pdfrwt beam="2">  1       -2 0.40471417E-01 0.12633165E+04</pdfrwt>
<totfact> 0.92960078E+01</totfact>
</mgrwt>
</event>
<event>
 8    2  0.4480234E-052  0.2185830E+04  0.7818608E-02  0.8524349E-01
          2   -1    0    0  501    0  0.00000000000E+00  0.00000000000E+00  0.15096171314E+04  0.15096171314E+04  0.25500000000E-02 0. -1.
         -2   -1    0    0    0  501 -0.00000000000E+00 -0.00000000000E+00 -0.79123606911E+03  0.79123606911E+03  0.25500000000E-02 0.  1.
    -200001    2    1    2    0    0 -0.21329048377E+02  0.88893948250E+03  0.53540720464E+03  0.12054460779E+04  0.61300166393E+03 0.  0.
   -5000001    2    3    3    0    0 -0.72161725403E+02 -0.57932794658E+02  0.61669346502E+02  0.14065519297E+03  0.86123467769E+02 0.  0.
     200001    1    1    2    0    0  0.21329048377E+02 -0.88893948250E+03  0.18297385769E+03  0.10954071227E+04  0.61300000000E+03 0. -1.
         13    1    4    4    0    0 -0.23367057454E+02 -0.23562083219E+02 -0.17135628970E+02  0.37347450836E+02  0.10566000000E+00 0.  1.
    -200003    1    4    4    0    0 -0.48794667949E+02 -0.34370711439E+02  0.78804975472E+02  0.10330774213E+03  0.30000000000E+02 0. -1.
    -200000    1    3    3    0    0  0.50832677027E+02  0.94687227716E+03  0.47373785814E+03  0.10647908849E+04  0.10100000000E+03 0.  1.
<mgrwt>
<rscale>  0 0.21858303E+04</rscale>
<asrwt>0</asrwt>
<pdfrwt beam="1">  1        2 0.21565959E+00 0.21858303E+04</pdfrwt>
<pdfrwt beam="2">  1       -2 0.11303373E+00 0.21858303E+04</pdfrwt>
<totfact> 0.81709673E+00</totfact>
</mgrwt>
</event>
<event>
 8    2  0.4480234E-052  0.1294742E+04  0.7818608E-02  0.9033745E-01
         -2   -1    0    0    0  501 -0.00000000000E+00  0.00000000000E+00  0.34368131479E+03  0.34368131480E+03  0.25500000000E-02 0. -1.
          2   -1    0    0  501    0  0.00000000000E+00 -0.00000000000E+00 -0.12194123809E+04  0.12194123810E+04  0.25500000000E-02 0.  1.
    -200001    2    1    2    0    0 -0.14792307411E+03  0.98913142894E+02 -0.30755080398E+03  0.70853951022E+03  0.61300546068E+03 0.  0.
   -5000001    2    3    3    0    0  0.17943054307E+03  0.55928041788E+02 -0.27242860930E+03  0.36149098601E+03  0.14537922877E+03 0.  0.
     200001    1    1    2    0    0  0.14792307411E+03 -0.98913142894E+02 -0.56818026217E+03  0.85455418553E+03  0.61300000000E+03 0.  1.
         13    1    4    4    0    0  0.57309351802E+02  0.21514300354E+02 -0.20652230138E+03  0.21540357253E+03  0.10566000000E+00 0.  1.
    -200003    1    4    4    0    0  0.12212119127E+03  0.34413741434E+02 -0.65906307916E+02  0.14608741349E+03  0.30000000000E+02 0.  1.
    -200000    1    3    3    0    0 -0.32735361718E+03  0.42985101106E+02 -0.35122194683E+02  0.34704852421E+03  0.10100000000E+03 0. -1.
<mgrwt>
<rscale>  0 0.12947421E+04</rscale>
<asrwt>0</asrwt>
<pdfrwt beam="1">  1        2 0.17420177E+00 0.12947421E+04</pdfrwt>
<pdfrwt beam="2">  1       -2 0.49097331E-01 0.12947421E+04</pdfrwt>
<totfact> 0.80256275E+01</totfact>
</mgrwt>
</event>
<event>
 8    2  0.4480234E-052  0.1869029E+04  0.7818608E-02  0.8670428E-01
          2   -1    0    0  501    0  0.00000000000E+00  0.00000000000E+00  0.22792373416E+04  0.22792373416E+04  0.25500000000E-02 0.  1.
         -2   -1    0    0    0  501 -0.00000000000E+00 -0.00000000000E+00 -0.38316199725E+03  0.38316199725E+03  0.25500000000E-02 0. -1.
    -200001    2    1    2    0    0 -0.64968191747E+03 -0.16292817914E+03  0.63306964851E+03  0.11068979492E+04  0.61303646276E+03 0.  0.
   -5000001    2    3    3    0    0 -0.45891457525E+03  0.66465262809E+02  0.90065637130E+02  0.47914968244E+03  0.80326711940E+02 0.  0.
     200001    1    1    2    0    0  0.64968191747E+03  0.16292817914E+03  0.12630056959E+04  0.15555013896E+04  0.61300000000E+03 0. -1.
         13    1    4    4    0    0 -0.22007648651E+03  0.51904442471E+02  0.15128261114E+02  0.22661996054E+03  0.10566000000E+00 0.  1.
    -200003    1    4    4    0    0 -0.23883808874E+03  0.14560820338E+02  0.74937376016E+02  0.25252972190E+03  0.30000000000E+02 0. -1.
    -200000    1    3    3    0    0 -0.19076734222E+03 -0.22939344195E+03  0.54300401138E+03  0.62774826678E+03  0.10100000000E+03 0.  1.
<mgrwt>
<rscale>  0 0.18690288E+04</rscale>
<asrwt>0</asrwt>
<pdfrwt beam="1">  1        2 0.32560535E+00 0.18690288E+04</pdfrwt>
<pdfrwt beam="2">  1       -2 0.54737426E-01 0.18690288E+04</pdfrwt>
<totfact> 0.17014270E+01</totfact>
</mgrwt>
</event>
<event>
 8    2  0.4480234E-052  0.1584284E+04  0.7818608E-02  0.8830261E-01
         -2   -1    0    0    0  501 -0.00000000000E+00  0.00000000000E+00  0.20170134949E+03  0.20170134950E+03  0.25500000000E-02 0. -1.
          2   -1    0    0  501    0  0.00000000000E+00 -0.00000000000E+00 -0.31109810401E+04  0.31109810401E+04  0.25500000000E-02 0.  1.
    -200001    2    1    2    0    0  0.30500814021E+03 -0.37253271011E+03 -0.11616532271E+04  0.13991051527E+04  0.61338929117E+03 0.  0.
   -5000001    2    3    3    0    0  0.26001606097E+02 -0.41549401606E+03 -0.84939013411E+03  0.96620844545E+03  0.19693602828E+03 0.  0.
     200001    1    1    2    0    0 -0.30500814021E+03  0.37253271011E+03 -0.17476264635E+04  0.19135772369E+04  0.61300000000E+03 0. -1.
         13    1    4    4    0    0  0.10548219558E+03 -0.17627829479E+03 -0.41563545937E+03  0.46363064723E+03  0.10566000000E+00 0.  1.
    -200003    1    4    4    0    0 -0.79480589486E+02 -0.23921572126E+03 -0.43375467474E+03  0.50257779822E+03  0.30000000000E+02 0.  1.
    -200000    1    3    3    0    0  0.27900653411E+03  0.42961305942E+02 -0.31226309296E+03  0.43289670721E+03  0.10100000000E+03 0.  1.
<mgrwt>
<rscale>  0 0.15842842E+04</rscale>
<asrwt>0</asrwt>
<pdfrwt beam="1">  1        2 0.44442583E+00 0.15842842E+04</pdfrwt>
<pdfrwt beam="2">  1       -2 0.28814480E-01 0.15842842E+04</pdfrwt>
<totfact> 0.21806059E+01</totfact>
</mgrwt>
</event>
<event>
 8    2  0.4480234E-052  0.1337367E+04  0.7818608E-02  0.9000447E-01
         -2   -1    0    0    0  501 -0.00000000000E+00  0.00000000000E+00  0.28415642387E+03  0.28415642388E+03  0.25500000000E-02 0.  1.
          2   -1    0    0  501    0  0.00000000000E+00 -0.00000000000E+00 -0.15735612063E+04  0.15735612063E+04  0.25500000000E-02 0. -1.
    -200001    2    1    2    0    0 -0.18663946116E+03  0.17498155402E+03 -0.74863732205E+03  0.10011831715E+04  0.61356097515E+03 0.  0.
   -5000001    2    3    3    0    0 -0.23413107609E+03 -0.94925027709E+01 -0.55202551341E+03  0.70938986381E+03  0.37893844226E+03 0.  0.
     200001    1    1    2    0    0  0.18663946116E+03 -0.17498155402E+03 -0.54076746042E+03  0.85653445871E+03  0.61300000000E+03 0. -1.
         13    1    4    4    0    0 -0.22891413525E+02 -0.45287009378E+02  0.49044783628E+02  0.70571467299E+02  0.10566000000E+00 0.  1.
    -200003    1    4    4    0    0 -0.21123966256E+03  0.35794506607E+02 -0.60107029704E+03  0.63881839651E+03  0.30000000000E+02 0.  1.
    -200000    1    3    3    0    0  0.47491614931E+02  0.18447405679E+03 -0.19661180864E+03  0.29179330769E+03  0.10100000000E+03 0.  1.
<mgrwt>
<rscale>  0 0.13373669E+04</rscale>
<asrwt>0</asrwt>
<pdfrwt beam="1">  1        2 0.22479445E+00 0.13373669E+04</pdfrwt>
<pdfrwt beam="2">  1       -2 0.40593776E-01 0.13373669E+04</pdfrwt>
<totfact> 0.75070975E+01</totfact>
</mgrwt>
</event>
<event>
 8    2  0.4480234E-052  0.1559818E+04  0.7818608E-02  0.8845621E-01
         -2   -1    0    0    0  501 -0.00000000000E+00  0.00000000000E+00  0.79149731622E+03  0.79149731622E+03  0.25500000000E-02 0. -1.
          2   -1    0    0  501    0  0.00000000000E+00 -0.00000000000E+00 -0.76849034785E+03  0.76849034785E+03  0.25500000000E-02 0.  1.
    -200001    2    1    2    0    0 -0.15091862389E+03  0.28025869963E+03 -0.35003807022E+03  0.77496984862E+03  0.61378354972E+03 0.  0.
   -5000001    2    3    3    0    0 -0.19611577816E+03 -0.11541194066E+03 -0.16902710999E+03  0.32601104643E+03  0.16103330088E+03 0.  0.
     200001    1    1    2    0    0  0.15091862389E+03 -0.28025869963E+03  0.37304503859E+03  0.78501781545E+03  0.61300000000E+03 0. -1.
         13    1    4    4    0    0 -0.99111480916E+02 -0.54133083878E+02  0.76840138612E+01  0.11319245404E+03  0.10566000000E+00 0.  1.
    -200003    1    4    4    0    0 -0.97004297243E+02 -0.61278856781E+02 -0.17671112385E+03  0.21281859239E+03  0.30000000000E+02 0.  1.
    -200000    1    3    3    0    0  0.45197154267E+02  0.39567064029E+03 -0.18101096023E+03  0.44895880219E+03  0.10100000000E+03 0. -1.
<mgrwt>
<rscale>  0 0.15598180E+04</rscale>
<asrwt>0</asrwt>
<pdfrwt beam="1">  1        2 0.10978434E+00 0.15598180E+04</pdfrwt>
<pdfrwt beam="2">  1       -2 0.11307104E+00 0.15598180E+04</pdfrwt>
<totfact> 0.23711116E+01</totfact>
</mgrwt>
</event>
<event>
 8    2  0.4480234E-052  0.1266143E+04  0.7818608E-02  0.9056854E-01
         -2   -1    0    0    0  501 -0.00000000000E+00  0.00000000000E+00  0.27449324823E+03  0.27449324825E+03  0.25500000000E-02 0. -1.
          2   -1    0    0  501    0  0.00000000000E+00 -0.00000000000E+00 -0.14600701141E+04  0.14600701141E+04  0.25500000000E-02 0.  1.
    -200001    2    1    2    0    0  0.25479972363E+02  0.15407237541E+03 -0.62609011895E+03  0.89006235831E+03  0.61305353663E+03 0.  0.
   -5000001    2    3    3    0    0  0.24590339109E+03  0.75226420694E+01 -0.15206210918E+03  0.33782431008E+03  0.17457752301E+03 0.  0.
     200001    1    1    2    0    0 -0.25479972363E+02 -0.15407237541E+03 -0.55948674694E+03  0.84450100406E+03  0.61300000000E+03 0. -1.
         13    1    4    4    0    0  0.24958280512E+03  0.31356261314E+02 -0.16054197753E+03  0.29841000226E+03  0.10566000000E+00 0.  1.
    -200003    1    4    4    0    0 -0.36794140292E+01 -0.23833619245E+02  0.84798683502E+01  0.39414307823E+02  0.30000000000E+02 0.  1.
    -200000    1    3    3    0    0 -0.22042341873E+03  0.14654973334E+03 -0.47402800977E+03  0.55223804823E+03  0.10100000000E+03 0.  1.
<mgrwt>
<rscale>  0 0.12661428E+04</rscale>
<asrwt>0</asrwt>
<pdfrwt beam="1">  1        2 0.20858144E+00 0.12661428E+04</pdfrwt>
<pdfrwt beam="2">  1       -2 0.39213322E-01 0.12661428E+04</pdfrwt>
<totfact> 0.92725180E+01</totfact>
</mgrwt>
</event>
<event>
 8    2  0.4480234E-052  0.1687572E+04  0.7818608E-02  0.8768485E-01
         -2   -1    0    0    0  501 -0.00000000000E+00  0.00000000000E+00  0.26467579433E+03  0.26467579434E+03  0.25500000000E-02 0. -1.
          2   -1    0    0  501    0  0.00000000000E+00 -0.00000000000E+00 -0.26899874208E+04  0.26899874208E+04  0.25500000000E-02 0.  1.
    -200001    2    1    2    0    0 -0.32460650722E+03 -0.46217487562E+03 -0.10267371574E+04  0.13265494151E+04  0.62174686188E+03 0.  0.
   -5000001    2    3    3    0    0 -0.28034945956E+03 -0.31506587346E+03 -0.19891546809E+03  0.47855796821E+03  0.10764776539E+03 0.  0.
     200001    1    1    2    0    0  0.32460650722E+03  0.46217487562E+03 -0.13985744690E+04  0.16281138000E+04  0.61300000000E+03 0.  1.
         13    1    4    4    0    0 -0.10978043945E+03 -0.10447773446E+03 -0.12395358493E+03  0.19578519930E+03  0.10566000000E+00 0.  1.
    -200003    1    4    4    0    0 -0.17056902011E+03 -0.21058813900E+03 -0.74961883159E+02  0.28277276891E+03  0.30000000000E+02 0.  1.
    -200000    1    3    3    0    0 -0.44257047656E+02 -0.14710900216E+03 -0.82782168931E+03  0.84799144694E+03  0.10100000000E+03 0.  1.
<mgrwt>
<rscale>  0 0.16875717E+04</rscale>
<asrwt>0</asrwt>
<pdfrwt beam="1">  1        2 0.38428390E+00 0.16875717E+04</pdfrwt>
<pdfrwt beam="2">  1       -2 0.37810829E-01 0.16875717E+04</pdfrwt>
<totfact> 0.22028888E+01</totfact>
</mgrwt>
</event>
<event>
 8    2  0.4480234E-052  0.1535477E+04  0.7818608E-02  0.8861198E-01
         -2   -1    0    0    0  501 -0.00000000000E+00  0.00000000000E+00  0.33078316717E+03  0.33078316718E+03  0.25500000000E-02 0. -1.
          2   -1    0    0  501    0  0.00000000000E+00 -0.00000000000E+00 -0.17819005449E+04  0.17819005449E+04  0.25500000000E-02 0.  1.
    -200001    2    1    2    0    0 -0.77868462946E+02 -0.20302768930E+02 -0.13472949615E+04  0.14857676140E+04  0.62114892701E+03 0.  0.
   -5000001    2    3    3    0    0 -0.11799377823E+03  0.85844455368E+02 -0.13210362740E+04  0.13315995472E+04  0.82028742567E+02 0.  0.
     200001    1    1    2    0    0  0.77868462946E+02  0.20302768930E+02 -0.10382241624E+03  0.62691609810E+03  0.61300000000E+03 0. -1.
         13    1    4    4    0    0 -0.24095632248E+02 -0.13258447084E+02 -0.23578859785E+03  0.23738715204E+03  0.10566000000E+00 0.  1.
    -200003    1    4    4    0    0 -0.93898145986E+02  0.99102902452E+02 -0.10852476761E+04  0.10942123951E+04  0.30000000000E+02 0.  1.
    -200000    1    3    3    0    0  0.40125315289E+02 -0.10614722430E+03 -0.26258687502E+02  0.15416806680E+03  0.10100000000E+03 0. -1.
<mgrwt>
<rscale>  0 0.15354774E+04</rscale>
<asrwt>0</asrwt>
<pdfrwt beam="1">  1        2 0.25455722E+00 0.15354774E+04</pdfrwt>
<pdfrwt beam="2">  1       -2 0.47254739E-01 0.15354774E+04</pdfrwt>
<totfact> 0.42594493E+01</totfact>
</mgrwt>
</event>
<event>
 8    2  0.4480234E-052  0.1539347E+04  0.7818608E-02  0.8858701E-01
          2   -1    0    0  501    0  0.00000000000E+00  0.00000000000E+00  0.79054005180E+03  0.79054005181E+03  0.25500000000E-02 0.  1.
         -2   -1    0    0    0  501 -0.00000000000E+00 -0.00000000000E+00 -0.74935762414E+03  0.74935762415E+03  0.25500000000E-02 0. -1.
    -200001    2    1    2    0    0 -0.74735934632E+02  0.70257424102E+02  0.47249450126E+03  0.78337889205E+03  0.61636829024E+03 0.  0.
   -5000001    2    3    3    0    0 -0.13230379541E+03  0.23065182337E+03  0.49675982540E+03  0.58380377369E+03  0.15281349461E+03 0.  0.
     200001    1    1    2    0    0  0.74735934632E+02 -0.70257424102E+02 -0.43131207360E+03  0.75651878391E+03  0.61300000000E+03 0. -1.
         13    1    4    4    0    0 -0.74745634668E+02  0.16512591538E+02  0.79680847836E+02  0.11049264345E+03  0.10566000000E+00 0.  1.
    -200003    1    4    4    0    0 -0.57558160743E+02  0.21413923184E+03  0.41707897757E+03  0.47331113024E+03  0.30000000000E+02 0.  1.
    -200000    1    3    3    0    0  0.57567860779E+02 -0.16039439927E+03 -0.24265324139E+02  0.19957511836E+03  0.10100000000E+03 0. -1.
<mgrwt>
<rscale>  0 0.15393469E+04</rscale>
<asrwt>0</asrwt>
<pdfrwt beam="1">  1        2 0.11293429E+00 0.15393469E+04</pdfrwt>
<pdfrwt beam="2">  1       -2 0.10705109E+00 0.15393469E+04</pdfrwt>
<totfact> 0.26149231E+01</totfact>
</mgrwt>
</event>
<event>
 8    2  0.4480234E-052  0.2849580E+04  0.7818608E-02  0.8288039E-01
          2   -1    0    0  501    0  0.00000000000E+00  0.00000000000E+00  0.23253397252E+04  0.23253397252E+04  0.25500000000E-02 0.  1.
         -2   -1    0    0    0  501 -0.00000000000E+00 -0.00000000000E+00 -0.87300194313E+03  0.87300194314E+03  0.25500000000E-02 0. -1.
    -200001    2    1    2    0    0 -0.46214364774E+03  0.59830005947E+03 -0.44139921089E+03  0.10691285482E+04  0.61372866724E+03 0.  0.
   -5000001    2    3    3    0    0 -0.47088753940E+03  0.68760906053E+03 -0.39786314975E+03  0.92718157952E+03  0.82639582455E+02 0.  0.
     200001    1    1    2    0    0  0.46214364774E+03 -0.59830005947E+03  0.18937369930E+04  0.21292131201E+04  0.61300000000E+03 0.  1.
         13    1    4    4    0    0 -0.18257615966E+03  0.20610599260E+03 -0.13802526837E+03  0.30800116905E+03  0.10566000000E+00 0.  1.
    -200003    1    4    4    0    0 -0.28831137973E+03  0.48150306793E+03 -0.25983788139E+03  0.61918041047E+03  0.30000000000E+02 0.  1.
    -200000    1    3    3    0    0  0.87438916587E+01 -0.89309001059E+02 -0.43536061134E+02  0.14194696873E+03  0.10100000000E+03 0. -1.
<mgrwt>
<rscale>  0 0.28495797E+04</rscale>
<asrwt>0</asrwt>
<pdfrwt beam="1">  1        2 0.33219139E+00 0.28495797E+04</pdfrwt>
<pdfrwt beam="2">  1       -2 0.12471456E+00 0.28495797E+04</pdfrwt>
<totfact> 0.22914973E+00</totfact>
</mgrwt>
</event>
<event>
 8    2  0.4480234E-052  0.1347414E+04  0.7818608E-02  0.8992788E-01
         -2   -1    0    0    0  501 -0.00000000000E+00  0.00000000000E+00  0.18505321248E+03  0.18505321250E+03  0.25500000000E-02 0. -1.
          2   -1    0    0  501    0  0.00000000000E+00 -0.00000000000E+00 -0.24527067184E+04  0.24527067184E+04  0.25500000000E-02 0.  1.
    -200001    2    1    2    0    0 -0.14993702147E+03  0.27644272077E+02 -0.67390524957E+03  0.92339479452E+03  0.61258823444E+03 0.  0.
   -5000001    2    3    3    0    0  0.25238499995E+02 -0.20212189384E+03 -0.54607395700E+03  0.59170096932E+03  0.10209323544E+03 0.  0.
     200001    1    1    2    0    0  0.14993702147E+03 -0.27644272077E+02 -0.15937482563E+04  0.17143651363E+04  0.61300000000E+03 0.  1.
         13    1    4    4    0    0 -0.25957870120E+02 -0.95706926718E+02 -0.31826417681E+03  0.33335525232E+03  0.10566000000E+00 0.  1.
    -200003    1    4    4    0    0  0.51196370115E+02 -0.10641496713E+03 -0.22780978019E+03  0.25834571700E+03  0.30000000000E+02 0.  1.
    -200000    1    3    3    0    0 -0.17517552146E+03  0.22976616592E+03 -0.12783129256E+03  0.33169382520E+03  0.10100000000E+03 0. -1.
<mgrwt>
<rscale>  0 0.13474142E+04</rscale>
<asrwt>0</asrwt>
<pdfrwt beam="1">  1        2 0.35038665E+00 0.13474142E+04</pdfrwt>
<pdfrwt beam="2">  1       -2 0.26436175E-01 0.13474142E+04</pdfrwt>
<totfact> 0.59281093E+01</totfact>
</mgrwt>
</event>
<event>
 8    2  0.4480234E-052  0.1496891E+04  0.7818608E-02  0.8886523E-01
         -2   -1    0    0    0  501 -0.00000000000E+00  0.00000000000E+00  0.60572659669E+03  0.60572659670E+03  0.25500000000E-02 0. -1.
          2   -1    0    0  501    0  0.00000000000E+00 -0.00000000000E+00 -0.92479179684E+03  0.92479179684E+03  0.25500000000E-02 0.  1.
    -200001    2    1    2    0    0  0.19930360886E+03  0.27941218486E+03 -0.42314895327E+03  0.82031030768E+03  0.61323801797E+03 0.  0.
   -5000001    2    3    3    0    0 -0.18623025967E+02 -0.11453310274E+03  0.52819143115E+02  0.15741398354E+03  0.92329039936E+02 0.  0.
     200001    1    1    2    0    0 -0.19930360886E+03 -0.27941218486E+03  0.10408375312E+03  0.71020808586E+03  0.61300000000E+03 0.  1.
         13    1    4    4    0    0 -0.49137829264E+02 -0.51482769457E+02  0.34261179923E+02  0.78986336980E+02  0.10566000000E+00 0.  1.
    -200003    1    4    4    0    0  0.30514803297E+02 -0.63050333280E+02  0.18557963191E+02  0.78427646559E+02  0.30000000000E+02 0. -1.
    -200000    1    3    3    0    0  0.21792663482E+03  0.39394528760E+03 -0.47596809638E+03  0.66289632414E+03  0.10100000000E+03 0.  1.
<mgrwt>
<rscale>  0 0.14968914E+04</rscale>
<asrwt>0</asrwt>
<pdfrwt beam="1">  1        2 0.13211311E+00 0.14968914E+04</pdfrwt>
<pdfrwt beam="2">  1       -2 0.86532372E-01 0.14968914E+04</pdfrwt>
<totfact> 0.35101986E+01</totfact>
</mgrwt>
</event>
<event>
 8    2  0.4480234E-052  0.1334821E+04  0.7818608E-02  0.9002399E-01
         -2   -1    0    0    0  501 -0.00000000000E+00  0.00000000000E+00  0.31800334181E+03  0.31800334182E+03  0.25500000000E-02 0. -1.
          2   -1    0    0  501    0  0.00000000000E+00 -0.00000000000E+00 -0.14007288605E+04  0.14007288605E+04  0.25500000000E-02 0.  1.
    -200001    2    1    2    0    0  0.25091704343E+03 -0.75337527129E+02 -0.59929814043E+03  0.89526020176E+03  0.61130799279E+03 0.  0.
   -5000001    2    3    3    0    0  0.19476591259E+03  0.23200649747E+03 -0.41105074295E+03  0.51677455922E+03  0.79576731542E+02 0.  0.
     200001    1    1    2    0    0 -0.25091704343E+03  0.75337527129E+02 -0.48342737830E+03  0.82347200060E+03  0.61300000000E+03 0. -1.
         13    1    4    4    0    0  0.19769826386E+02  0.19823186238E+02 -0.83208122133E+02  0.87791841882E+02  0.10566000000E+00 0.  1.
    -200003    1    4    4    0    0  0.17499608620E+03  0.21218331123E+03 -0.32784262082E+03  0.42898271734E+03  0.30000000000E+02 0.  1.
    -200000    1    3    3    0    0  0.56151130841E+02 -0.30734402460E+03 -0.18824739748E+03  0.37848564254E+03  0.10100000000E+03 0. -1.
<mgrwt>
<rscale>  0 0.13348205E+04</rscale>
<asrwt>0</asrwt>
<pdfrwt beam="1">  1        2 0.20010412E+00 0.13348205E+04</pdfrwt>
<pdfrwt beam="2">  1       -2 0.45429050E-01 0.13348205E+04</pdfrwt>
<totfact> 0.74292467E+01</totfact>
</mgrwt>
</event>
<event>
 8    2  0.4480234E-052  0.1590239E+04  0.7818608E-02  0.8826567E-01
         -2   -1    0    0    0  501 -0.00000000000E+00  0.00000000000E+00  0.29115164908E+03  0.29115164910E+03  0.25500000000E-02 0.  1.
          2   -1    0    0  501    0  0.00000000000E+00 -0.00000000000E+00 -0.21714294496E+04  0.21714294496E+04  0.25500000000E-02 0. -1.
    -200001    2    1    2    0    0 -0.28831939601E+03 -0.24164658869E+03 -0.41546296666E+03  0.83071938721E+03  0.61315909492E+03 0.  0.
   -5000001    2    3    3    0    0 -0.35285132935E+03 -0.25438536505E+02 -0.19962524290E+02  0.36431624382E+03  0.84715071657E+02 0.  0.
     200001    1    1    2    0    0  0.28831939601E+03  0.24164658869E+03 -0.14648148338E+04  0.16318617115E+04  0.61300000000E+03 0. -1.
         13    1    4    4    0    0 -0.14675805768E+02 -0.17144800933E+02 -0.96770479581E+01  0.24555648947E+02  0.10566000000E+00 0.  1.
    -200003    1    4    4    0    0 -0.33817552359E+03 -0.82937355715E+01 -0.10285476332E+02  0.33976059487E+03  0.30000000000E+02 0.  1.
    -200000    1    3    3    0    0  0.64531933348E+02 -0.21620805219E+03 -0.39550044237E+03  0.46640314340E+03  0.10100000000E+03 0. -1.
<mgrwt>
<rscale>  0 0.15902393E+04</rscale>
<asrwt>0</asrwt>
<pdfrwt beam="1">  1        2 0.31020420E+00 0.15902393E+04</pdfrwt>
<pdfrwt beam="2">  1       -2 0.41593094E-01 0.15902393E+04</pdfrwt>
<totfact> 0.34462508E+01</totfact>
</mgrwt>
</event>
<event>
 8    2  0.4480234E-052  0.1267783E+04  0.7818608E-02  0.9055511E-01
          2   -1    0    0  501    0  0.00000000000E+00  0.00000000000E+00  0.92040428294E+03  0.92040428294E+03  0.25500000000E-02 0.  1.
         -2   -1    0    0    0  501 -0.00000000000E+00 -0.00000000000E+00 -0.43656698216E+03  0.43656698217E+03  0.25500000000E-02 0. -1.
    -200001    2    1    2    0    0 -0.13141683280E+03 -0.43146836800E+01  0.11173577907E+03  0.62791876844E+03  0.60374505795E+03 0.  0.
   -5000001    2    3    3    0    0  0.80446244814E+02 -0.52111902206E+02 -0.20243690111E+03  0.23285420319E+03  0.63664215669E+02 0.  0.
     200001    1    1    2    0    0  0.13141683280E+03  0.43146836800E+01  0.37210152171E+03  0.72905249667E+03  0.61300000000E+03 0.  1.
         13    1    4    4    0    0  0.70730924306E+02 -0.35177673683E+02 -0.13163635956E+03  0.15352027456E+03  0.10566000000E+00 0.  1.
    -200003    1    4    4    0    0  0.97153205074E+01 -0.16934228523E+02 -0.70800541544E+02  0.79333928626E+02  0.30000000000E+02 0.  1.
    -200000    1    3    3    0    0 -0.21186307761E+03  0.47797218526E+02  0.31417268018E+03  0.39506456526E+03  0.10100000000E+03 0.  1.
<mgrwt>
<rscale>  0 0.12677825E+04</rscale>
<asrwt>0</asrwt>
<pdfrwt beam="1">  1        2 0.13148633E+00 0.12677825E+04</pdfrwt>
<pdfrwt beam="2">  1       -2 0.62366712E-01 0.12677825E+04</pdfrwt>
<totfact> 0.73977991E+01</totfact>
</mgrwt>
</event>
<event>
 8    2  0.4480234E-052  0.1643658E+04  0.7818608E-02  0.8794167E-01
         -2   -1    0    0    0  501 -0.00000000000E+00  0.00000000000E+00  0.32217175921E+03  0.32217175922E+03  0.25500000000E-02 0. -1.
          2   -1    0    0  501    0  0.00000000000E+00 -0.00000000000E+00 -0.20964055432E+04  0.20964055432E+04  0.25500000000E-02 0.  1.
    -200001    2    1    2    0    0 -0.23411243269E+03  0.93189620701E+02 -0.17283236211E+03  0.68544474819E+03  0.61357195249E+03 0.  0.
   -5000001    2    3    3    0    0 -0.30996258433E+03  0.18323688830E+03 -0.25372760134E+03  0.51049676839E+03  0.25802459948E+03 0.  0.
     200001    1    1    2    0    0  0.23411243269E+03 -0.93189620701E+02 -0.16014014219E+04  0.17331325542E+04  0.61300000000E+03 0.  1.
         13    1    4    4    0    0 -0.28202659349E+03  0.21153614311E+03 -0.12765987296E+03  0.37494478741E+03  0.10566000000E+00 0.  1.
    -200003    1    4    4    0    0 -0.27935990836E+02 -0.28299254810E+02 -0.12606772839E+03  0.13555198098E+03  0.30000000000E+02 0.  1.
    -200000    1    3    3    0    0  0.75850151643E+02 -0.90047267596E+02  0.80895239236E+02  0.17494797980E+03  0.10100000000E+03 0.  1.
<mgrwt>
<rscale>  0 0.16436577E+04</rscale>
<asrwt>0</asrwt>
<pdfrwt beam="1">  1        2 0.29948650E+00 0.16436577E+04</pdfrwt>
<pdfrwt beam="2">  1       -2 0.46024538E-01 0.16436577E+04</pdfrwt>
<totfact> 0.30674089E+01</totfact>
</mgrwt>
</event>
<event>
 8    2  0.4480234E-052  0.1274653E+04  0.7818608E-02  0.9049911E-01
         -2   -1    0    0    0  501 -0.00000000000E+00  0.00000000000E+00  0.22682839592E+03  0.22682839594E+03  0.25500000000E-02 0.  1.
          2   -1    0    0  501    0  0.00000000000E+00 -0.00000000000E+00 -0.17907147006E+04  0.17907147007E+04  0.25500000000E-02 0. -1.
    -200001    2    1    2    0    0  0.14840623680E+03  0.79116199554E+02 -0.72724955847E+03  0.96682247276E+03  0.61446724029E+03 0.  0.
   -5000001    2    3    3    0    0 -0.10008406828E+03  0.22324581987E+03 -0.56731470014E+03  0.62287343864E+03  0.79182288115E+02 0.  0.
     200001    1    1    2    0    0 -0.14840623680E+03 -0.79116199554E+02 -0.83663674625E+03  0.10507206238E+04  0.61300000000E+03 0. -1.
         13    1    4    4    0    0 -0.45513564102E+02  0.93872452870E+02 -0.32369225691E+03  0.34008853300E+03  0.10566000000E+00 0.  1.
    -200003    1    4    4    0    0 -0.54570504174E+02  0.12937336700E+03 -0.24362244323E+03  0.28278490564E+03  0.30000000000E+02 0.  1.
    -200000    1    3    3    0    0  0.24849030508E+03 -0.14412962031E+03 -0.15993485833E+03  0.34394903413E+03  0.10100000000E+03 0.  1.
<mgrwt>
<rscale>  0 0.12746528E+04</rscale>
<asrwt>0</asrwt>
<pdfrwt beam="1">  1        2 0.25581638E+00 0.12746528E+04</pdfrwt>
<pdfrwt beam="2">  1       -2 0.32404057E-01 0.12746528E+04</pdfrwt>
<totfact> 0.89629830E+01</totfact>
</mgrwt>
</event>
<event>
 8    2  0.4480234E-052  0.1422678E+04  0.7818608E-02  0.8937564E-01
          2   -1    0    0  501    0  0.00000000000E+00  0.00000000000E+00  0.17747649815E+04  0.17747649815E+04  0.25500000000E-02 0.  1.
         -2   -1    0    0    0  501 -0.00000000000E+00 -0.00000000000E+00 -0.28511009309E+03  0.28511009310E+03  0.25500000000E-02 0. -1.
    -200001    2    1    2    0    0 -0.25342201337E+03  0.20612718166E+03  0.96624601131E+03  0.11901412162E+04  0.61326472930E+03 0.  0.
   -5000001    2    3    3    0    0 -0.27014245657E+02  0.24118065877E+03  0.88886653967E+03  0.92807670853E+03  0.11110702917E+03 0.  0.
     200001    1    1    2    0    0  0.25342201337E+03 -0.20612718166E+03  0.52340887713E+03  0.86973385845E+03  0.61300000000E+03 0. -1.
         13    1    4    4    0    0 -0.27794371685E+02  0.20999180157E+03  0.81849291527E+03  0.84545830609E+03  0.10566000000E+00 0.  1.
    -200003    1    4    4    0    0  0.78012602848E+00  0.31188857203E+02  0.70373624398E+02  0.82618402436E+02  0.30000000000E+02 0. -1.
    -200000    1    3    3    0    0 -0.22640776772E+03 -0.35053477118E+02  0.77379471643E+02  0.26206450766E+03  0.10100000000E+03 0. -1.
<mgrwt>
<rscale>  0 0.14226783E+04</rscale>
<asrwt>0</asrwt>
<pdfrwt beam="1">  1        2 0.25353786E+00 0.14226783E+04</pdfrwt>
<pdfrwt beam="2">  1       -2 0.40730012E-01 0.14226783E+04</pdfrwt>
<totfact> 0.58219008E+01</totfact>
</mgrwt>
</event>
<event>
 8    2  0.4480234E-052  0.1411284E+04  0.7818608E-02  0.8945691E-01
         -2   -1    0    0    0  501 -0.00000000000E+00  0.00000000000E+00  0.59370741924E+03  0.59370741924E+03  0.25500000000E-02 0. -1.
          2   -1    0    0  501    0  0.00000000000E+00 -0.00000000000E+00 -0.83868032824E+03  0.83868032824E+03  0.25500000000E-02 0.  1.
    -200001    2    1    2    0    0  0.28476165218E+03  0.74327846060E+02 -0.31512722493E+03  0.74879104233E+03  0.61218382038E+03 0.  0.
   -5000001    2    3    3    0    0  0.42674059595E+03  0.53602717376E+02 -0.35650653838E+03  0.56851126251E+03  0.10548628418E+03 0.  0.
     200001    1    1    2    0    0 -0.28476165218E+03 -0.74327846060E+02  0.70154315924E+02  0.68359670515E+03  0.61300000000E+03 0.  1.
         13    1    4    4    0    0  0.47091580698E+02  0.18245172051E+02 -0.81111996544E+01  0.51149838706E+02  0.10566000000E+00 0.  1.
    -200003    1    4    4    0    0  0.37964901525E+03  0.35357545325E+02 -0.34839533873E+03  0.51736142380E+03  0.30000000000E+02 0.  1.
    -200000    1    3    3    0    0 -0.14197894376E+03  0.20725128684E+02  0.41379313452E+02  0.18027977982E+03  0.10100000000E+03 0.  1.
<mgrwt>
<rscale>  0 0.14112841E+04</rscale>
<asrwt>0</asrwt>
<pdfrwt beam="1">  1        2 0.11981148E+00 0.14112841E+04</pdfrwt>
<pdfrwt beam="2">  1       -2 0.84815346E-01 0.14112841E+04</pdfrwt>
<totfact> 0.42164222E+01</totfact>
</mgrwt>
</event>
<event>
 8    2  0.4480234E-052  0.1338310E+04  0.7818608E-02  0.8999725E-01
          2   -1    0    0  501    0  0.00000000000E+00  0.00000000000E+00  0.22496186766E+04  0.22496186766E+04  0.25500000000E-02 0. -1.
         -2   -1    0    0    0  501 -0.00000000000E+00 -0.00000000000E+00 -0.19904182802E+03  0.19904182804E+03  0.25500000000E-02 0.  1.
    -200001    2    1    2    0    0  0.18756142580E+03 -0.18256478236E+03  0.92293050748E+03  0.11387504090E+04  0.61354917004E+03 0.  0.
   -5000001    2    3    3    0    0  0.37227222992E+01  0.18827379304E+03  0.36364963187E+03  0.43567572179E+03  0.14869902485E+03 0.  0.
     200001    1    1    2    0    0 -0.18756142580E+03  0.18256478236E+03  0.11276463411E+04  0.13099100957E+04  0.61300000000E+03 0. -1.
         13    1    4    4    0    0 -0.61702959870E+02  0.11872692835E+03  0.15859418211E+03  0.20749810730E+03  0.10566000000E+00 0.  1.
    -200003    1    4    4    0    0  0.65425682169E+02  0.69546864693E+02  0.20505544976E+03  0.22817761449E+03  0.30000000000E+02 0.  1.
    -200000    1    3    3    0    0  0.18383870350E+03 -0.37083857540E+03  0.55928087561E+03  0.70307468716E+03  0.10100000000E+03 0.  1.
<mgrwt>
<rscale>  0 0.13383097E+04</rscale>
<asrwt>0</asrwt>
<pdfrwt beam="1">  1        2 0.32137410E+00 0.13383097E+04</pdfrwt>
<pdfrwt beam="2">  1       -2 0.28434546E-01 0.13383097E+04</pdfrwt>
<totfact> 0.66140132E+01</totfact>
</mgrwt>
</event>
<event>
 8    2  0.4480234E-052  0.1470157E+04  0.7818608E-02  0.8904545E-01
         -2   -1    0    0    0  501 -0.00000000000E+00  0.00000000000E+00  0.48172658644E+03  0.48172658645E+03  0.25500000000E-02 0. -1.
          2   -1    0    0  501    0  0.00000000000E+00 -0.00000000000E+00 -0.11216739702E+04  0.11216739702E+04  0.25500000000E-02 0.  1.
    -200001    2    1    2    0    0  0.42309102677E+02  0.89673488895E+02 -0.75050943768E+03  0.97266736221E+03  0.61072578682E+03 0.  0.
   -5000001    2    3    3    0    0 -0.18817290229E+03  0.23649195847E+03 -0.28371259920E+03  0.42241477836E+03  0.81264496902E+02 0.  0.
     200001    1    1    2    0    0 -0.42309102677E+02 -0.89673488895E+02  0.11056205393E+03  0.63073319443E+03  0.61300000000E+03 0. -1.
         13    1    4    4    0    0 -0.77981577928E+02  0.10186713938E+03 -0.73302196783E+02  0.14775406526E+03  0.10566000000E+00 0.  1.
    -200003    1    4    4    0    0 -0.11019132436E+03  0.13462481908E+03 -0.21041040242E+03  0.27466071310E+03  0.30000000000E+02 0.  1.
    -200000    1    3    3    0    0  0.23048200497E+03 -0.14681846957E+03 -0.46679683848E+03  0.55025258385E+03  0.10100000000E+03 0. -1.
<mgrwt>
<rscale>  0 0.14701567E+04</rscale>
<asrwt>0</asrwt>
<pdfrwt beam="1">  1        2 0.16023914E+00 0.14701567E+04</pdfrwt>
<pdfrwt beam="2">  1       -2 0.68818084E-01 0.14701567E+04</pdfrwt>
<totfact> 0.44397429E+01</totfact>
</mgrwt>
</event>
<event>
 8    2  0.4480234E-052  0.1450120E+04  0.7818608E-02  0.8918317E-01
          2   -1    0    0  501    0  0.00000000000E+00  0.00000000000E+00  0.15177435094E+04  0.15177435094E+04  0.25500000000E-02 0.  1.
         -2   -1    0    0    0  501 -0.00000000000E+00 -0.00000000000E+00 -0.34637749057E+03  0.34637749058E+03  0.25500000000E-02 0. -1.
    -200001    2    1    2    0    0  0.96349830313E+02 -0.77794954537E+02  0.10576916259E+04  0.12284904372E+04  0.61248823176E+03 0.  0.
   -5000001    2    3    3    0    0 -0.17245028695E+03  0.48686290592E+02  0.97470057290E+02  0.21830358853E+03  0.77759811825E+02 0.  0.
     200001    1    1    2    0    0 -0.96349830313E+02  0.77794954537E+02  0.11367439296E+03  0.63563056280E+03  0.61300000000E+03 0. -1.
         13    1    4    4    0    0 -0.29841016631E+02  0.32258764701E+01  0.50212481181E+02  0.58499546862E+02  0.10566000000E+00 0.  1.
    -200003    1    4    4    0    0 -0.14260927032E+03  0.45460414121E+02  0.47257576109E+02  0.15980404167E+03  0.30000000000E+02 0.  1.
    -200000    1    3    3    0    0  0.26880011727E+03 -0.12648124513E+03  0.96022156857E+03  0.10101868486E+04  0.10100000000E+03 0.  1.
<mgrwt>
<rscale>  0 0.14501203E+04</rscale>
<asrwt>0</asrwt>
<pdfrwt beam="1">  1        2 0.21682050E+00 0.14501203E+04</pdfrwt>
<pdfrwt beam="2">  1       -2 0.49482498E-01 0.14501203E+04</pdfrwt>
<totfact> 0.53673577E+01</totfact>
</mgrwt>
</event>
<event>
 8    2  0.4480234E-052  0.1626470E+04  0.7818608E-02  0.8804449E-01
          2   -1    0    0  501    0  0.00000000000E+00  0.00000000000E+00  0.32207689485E+03  0.32207689486E+03  0.25500000000E-02 0.  1.
         -2   -1    0    0    0  501 -0.00000000000E+00 -0.00000000000E+00 -0.20533963921E+04  0.20533963921E+04  0.25500000000E-02 0. -1.
    -200001    2    1    2    0    0  0.15250395257E+03  0.49750981315E+03 -0.69239712134E+03  0.10617373269E+04  0.61408379547E+03 0.  0.
   -5000001    2    3    3    0    0 -0.18312404469E+03  0.18401761305E+03 -0.68899398005E+02  0.28079307591E+03  0.81857967107E+02 0.  0.
     200001    1    1    2    0    0 -0.15250395257E+03 -0.49750981315E+03 -0.10389223759E+04  0.13137359601E+04  0.61300000000E+03 0.  1.
         13    1    4    4    0    0 -0.92721613757E+02  0.43576547812E+02 -0.28868427267E+02  0.10644064277E+03  0.10566000000E+00 0.  1.
    -200003    1    4    4    0    0 -0.90402430935E+02  0.14044106524E+03 -0.40030970738E+02  0.17435243314E+03  0.30000000000E+02 0. -1.
    -200000    1    3    3    0    0  0.33562799726E+03  0.31349220010E+03 -0.62349772333E+03  0.78094425094E+03  0.10100000000E+03 0. -1.
<mgrwt>
<rscale>  0 0.16264705E+04</rscale>
<asrwt>0</asrwt>
<pdfrwt beam="1">  1        2 0.46010986E-01 0.16264705E+04</pdfrwt>
<pdfrwt beam="2">  1       -2 0.29334233E+00 0.16264705E+04</pdfrwt>
<totfact> 0.36982148E+00</totfact>
</mgrwt>
</event>
<event>
 8    2  0.4480234E-052  0.1283756E+04  0.7818608E-02  0.9042547E-01
          2   -1    0    0  501    0  0.00000000000E+00  0.00000000000E+00  0.13331442077E+04  0.13331442077E+04  0.25500000000E-02 0.  1.
         -2   -1    0    0    0  501 -0.00000000000E+00 -0.00000000000E+00 -0.30904947562E+03  0.30904947563E+03  0.25500000000E-02 0. -1.
    -200001    2    1    2    0    0 -0.57635039924E+02  0.17010614897E+03  0.57986609054E+03  0.86414099507E+03  0.61500981835E+03 0.  0.
   -5000001    2    3    3    0    0 -0.55538839737E+02 -0.98612840099E+01  0.64077187298E+03  0.64895924556E+03  0.85893547799E+02 0.  0.
     200001    1    1    2    0    0  0.57635039924E+02 -0.17010614897E+03  0.44422864154E+03  0.77805268826E+03  0.61300000000E+03 0.  1.
         13    1    4    4    0    0 -0.44664142907E+02  0.18382724274E+02  0.48708137578E+03  0.48947021157E+03  0.10566000000E+00 0.  1.
    -200003    1    4    4    0    0 -0.10874696830E+02 -0.28244008284E+02  0.15369049720E+03  0.15948903399E+03  0.30000000000E+02 0.  1.
    -200000    1    3    3    0    0 -0.20962001871E+01  0.17996743298E+03 -0.60905782443E+02  0.21518174951E+03  0.10100000000E+03 0. -1.
<mgrwt>
<rscale>  0 0.12837562E+04</rscale>
<asrwt>0</asrwt>
<pdfrwt beam="1">  1        2 0.19044917E+00 0.12837562E+04</pdfrwt>
<pdfrwt beam="2">  1       -2 0.44149925E-01 0.12837562E+04</pdfrwt>
<totfact> 0.85918924E+01</totfact>
</mgrwt>
</event>
<event>
 8    2  0.4480234E-052  0.1292048E+04  0.7818608E-02  0.9035895E-01
          2   -1    0    0  501    0  0.00000000000E+00  0.00000000000E+00  0.76349181304E+03  0.76349181304E+03  0.25500000000E-02 0.  1.
         -2   -1    0    0    0  501 -0.00000000000E+00 -0.00000000000E+00 -0.54662896494E+03  0.54662896495E+03  0.25500000000E-02 0. -1.
    -200001    2    1    2    0    0  0.30675749410E+02  0.18528571014E+03  0.18872411358E+03  0.66837894176E+03  0.61305939578E+03 0.  0.
   -5000001    2    3    3    0    0  0.73049706970E+02  0.22258825835E+03  0.33600653500E+03  0.48108200095E+03  0.25230479115E+03 0.  0.
     200001    1    1    2    0    0 -0.30675749410E+02 -0.18528571014E+03  0.28138734515E+02  0.64174183623E+03  0.61300000000E+03 0. -1.
         13    1    4    4    0    0  0.95947942597E+02  0.19085992997E+03  0.36570348307E+03  0.42352398899E+03  0.10566000000E+00 0.  1.
    -200003    1    4    4    0    0 -0.22898235628E+02  0.31728328378E+02 -0.29696948071E+02  0.57558011964E+02  0.30000000000E+02 0.  1.
    -200000    1    3    3    0    0 -0.42373957560E+02 -0.37302548203E+02 -0.14728242141E+03  0.18729694081E+03  0.10100000000E+03 0. -1.
<mgrwt>
<rscale>  0 0.12920476E+04</rscale>
<asrwt>0</asrwt>
<pdfrwt beam="1">  1        2 0.10907026E+00 0.12920476E+04</pdfrwt>
<pdfrwt beam="2">  1       -2 0.78089852E-01 0.12920476E+04</pdfrwt>
<totfact> 0.57852517E+01</totfact>
</mgrwt>
</event>
<event>
 8    2  0.4480234E-052  0.2053413E+04  0.7818608E-02  0.8582048E-01
         -2   -1    0    0    0  501 -0.00000000000E+00  0.00000000000E+00  0.80599680043E+03  0.80599680043E+03  0.25500000000E-02 0. -1.
          2   -1    0    0  501    0  0.00000000000E+00 -0.00000000000E+00 -0.13078536892E+04  0.13078536892E+04  0.25500000000E-02 0.  1.
    -200001    2    1    2    0    0  0.68425230132E+02 -0.51999935178E+03  0.40273384615E+03  0.90177180585E+03  0.61312029897E+03 0.  0.
   -5000001    2    3    3    0    0  0.12280701472E+03 -0.47098586852E+03  0.52933556943E+03  0.72403971427E+03  0.84428144392E+02 0.  0.
     200001    1    1    2    0    0 -0.68425230132E+02  0.51999935178E+03 -0.90459073488E+03  0.12120786837E+04  0.61300000000E+03 0.  1.
         13    1    4    4    0    0  0.10473388755E+03 -0.37074926684E+03  0.44380495088E+03  0.58769639411E+03  0.10566000000E+00 0.  1.
    -200003    1    4    4    0    0  0.18073127173E+02 -0.10023660168E+03  0.85530618557E+02  0.13634332016E+03  0.30000000000E+02 0.  1.
    -200000    1    3    3    0    0 -0.54381784590E+02 -0.49013483262E+02 -0.12660172328E+03  0.17773209157E+03  0.10100000000E+03 0.  1.
<mgrwt>
<rscale>  0 0.20534127E+04</rscale>
<asrwt>0</asrwt>
<pdfrwt beam="1">  1        2 0.18683624E+00 0.20534127E+04</pdfrwt>
<pdfrwt beam="2">  1       -2 0.11514240E+00 0.20534127E+04</pdfrwt>
<totfact> 0.10151662E+01</totfact>
</mgrwt>
</event>
<event>
 8    2  0.4480234E-052  0.1299814E+04  0.7818608E-02  0.9029713E-01
          2   -1    0    0  501    0  0.00000000000E+00  0.00000000000E+00  0.92090519983E+03  0.92090519984E+03  0.25500000000E-02 0.  1.
         -2   -1    0    0    0  501 -0.00000000000E+00 -0.00000000000E+00 -0.45865654619E+03  0.45865654620E+03  0.25500000000E-02 0. -1.
    -200001    2    1    2    0    0  0.10322678082E+03 -0.15643783668E+03  0.34413195253E+03  0.72775723539E+03  0.61324972718E+03 0.  0.
   -5000001    2    3    3    0    0  0.25190444808E+03  0.11611130583E+03  0.11817141941E+03  0.33070906910E+03  0.13589083014E+03 0.  0.
     200001    1    1    2    0    0 -0.10322678082E+03  0.15643783668E+03  0.11811670111E+03  0.65180451065E+03  0.61300000000E+03 0. -1.
         13    1    4    4    0    0  0.14896068920E+03  0.10205329683E+03  0.14905943306E+02  0.18118046426E+03  0.10566000000E+00 0.  1.
    -200003    1    4    4    0    0  0.10294375888E+03  0.14058009002E+02  0.10326547611E+03  0.14952860484E+03  0.30000000000E+02 0.  1.
    -200000    1    3    3    0    0 -0.14867766726E+03 -0.27254914251E+03  0.22596053312E+03  0.39704816628E+03  0.10100000000E+03 0.  1.
<mgrwt>
<rscale>  0 0.12998141E+04</rscale>
<asrwt>0</asrwt>
<pdfrwt beam="1">  1        2 0.13155788E+00 0.12998141E+04</pdfrwt>
<pdfrwt beam="2">  1       -2 0.65522364E-01 0.12998141E+04</pdfrwt>
<totfact> 0.66364774E+01</totfact>
</mgrwt>
</event>
<event>
 8    2  0.4480234E-052  0.1318932E+04  0.7818608E-02  0.9014685E-01
          2   -1    0    0  501    0  0.00000000000E+00  0.00000000000E+00  0.11626633186E+04  0.11626633186E+04  0.25500000000E-02 0.  1.
         -2   -1    0    0    0  501 -0.00000000000E+00 -0.00000000000E+00 -0.37405102213E+03  0.37405102213E+03  0.25500000000E-02 0. -1.
    -200001    2    1    2    0    0 -0.23556408146E+03 -0.55646410374E+02  0.41793157690E+03  0.78056610438E+03  0.61321259028E+03 0.  0.
   -5000001    2    3    3    0    0 -0.20601149491E+03 -0.25478496542E+03  0.18696543517E+03  0.45795817189E+03  0.25964109577E+03 0.  0.
     200001    1    1    2    0    0  0.23556408146E+03  0.55646410374E+02  0.37068071955E+03  0.75614823633E+03  0.61300000000E+03 0. -1.
         13    1    4    4    0    0 -0.48269794985E+02 -0.21018750695E+03  0.19551356982E+03  0.29109161502E+03  0.10566000000E+00 0.  1.
    -200003    1    4    4    0    0 -0.15774169992E+03 -0.44597458473E+02 -0.85481346504E+01  0.16686655687E+03  0.30000000000E+02 0.  1.
    -200000    1    3    3    0    0 -0.29552586554E+02  0.19913855505E+03  0.23096614173E+03  0.32260793249E+03  0.10100000000E+03 0.  1.
<mgrwt>
<rscale>  0 0.13189320E+04</rscale>
<asrwt>0</asrwt>
<pdfrwt beam="1">  1        2 0.16609476E+00 0.13189320E+04</pdfrwt>
<pdfrwt beam="2">  1       -2 0.53435861E-01 0.13189320E+04</pdfrwt>
<totfact> 0.72598844E+01</totfact>
</mgrwt>
</event>
<event>
 8    2  0.4480234E-052  0.2435884E+04  0.7818608E-02  0.8426190E-01
         -2   -1    0    0    0  501 -0.00000000000E+00  0.00000000000E+00  0.62883059560E+03  0.62883059561E+03  0.25500000000E-02 0.  1.
          2   -1    0    0  501    0  0.00000000000E+00 -0.00000000000E+00 -0.23589541511E+04  0.23589541511E+04  0.25500000000E-02 0. -1.
    -200001    2    1    2    0    0  0.69153915459E+03  0.77908200113E+03 -0.68121168021E+03  0.13874159489E+04  0.61292617441E+03 0.  0.
   -5000001    2    3    3    0    0  0.21123471736E+03  0.14069601099E+03  0.76658020961E+02  0.28161465178E+03  0.94946756615E+02 0.  0.
     200001    1    1    2    0    0 -0.69153915459E+03 -0.77908200113E+03 -0.10489118753E+04  0.16003687978E+04  0.61300000000E+03 0.  1.
         13    1    4    4    0    0  0.50806847331E+02  0.79287279981E+02  0.45064385105E+02  0.10439644856E+03  0.10566000000E+00 0.  1.
    -200003    1    4    4    0    0  0.16042787003E+03  0.61408731012E+02  0.31593635856E+02  0.17721820322E+03  0.30000000000E+02 0.  1.
    -200000    1    3    3    0    0  0.48030443723E+03  0.63838599013E+03 -0.75786970117E+03  0.11058012971E+04  0.10100000000E+03 0. -1.
<mgrwt>
<rscale>  0 0.24358839E+04</rscale>
<asrwt>0</asrwt>
<pdfrwt beam="1">  1        2 0.33699345E+00 0.24358839E+04</pdfrwt>
<pdfrwt beam="2">  1       -2 0.89832943E-01 0.24358839E+04</pdfrwt>
<totfact> 0.50017211E+00</totfact>
</mgrwt>
</event>
<event>
 8    2  0.4480234E-052  0.1551345E+04  0.7818608E-02  0.8851009E-01
          2   -1    0    0  501    0  0.00000000000E+00  0.00000000000E+00  0.23187625240E+03  0.23187625242E+03  0.25500000000E-02 0.  1.
         -2   -1    0    0    0  501 -0.00000000000E+00 -0.00000000000E+00 -0.25947796092E+04  0.25947796092E+04  0.25500000000E-02 0. -1.
    -200001    2    1    2    0    0 -0.44605311127E+02 -0.78093048536E+02 -0.20319118373E+04  0.21242225595E+04  0.61283571171E+03 0.  0.
   -5000001    2    3    3    0    0 -0.16101958734E+03 -0.29664658923E+03 -0.99718033626E+03  0.10554905009E+04  0.75928044539E+02 0.  0.
     200001    1    1    2    0    0  0.44605311127E+02  0.78093048536E+02 -0.33099151950E+03  0.70243330217E+03  0.61300000000E+03 0.  1.
         13    1    4    4    0    0 -0.24541072824E+01 -0.25389376073E+02 -0.38459984522E+02  0.46150023114E+02  0.10566000000E+00 0.  1.
    -200003    1    4    4    0    0 -0.15856548006E+03 -0.27125721316E+03 -0.95872035174E+03  0.10093404777E+04  0.30000000000E+02 0.  1.
    -200000    1    3    3    0    0  0.11641427621E+03  0.21855354069E+03 -0.10347315010E+04  0.10687320586E+04  0.10100000000E+03 0.  1.
<mgrwt>
<rscale>  0 0.15513449E+04</rscale>
<asrwt>0</asrwt>
<pdfrwt beam="1">  1        2 0.33125180E-01 0.15513449E+04</pdfrwt>
<pdfrwt beam="2">  1       -2 0.37068278E+00 0.15513449E+04</pdfrwt>
<totfact> 0.17778839E+00</totfact>
</mgrwt>
</event>
<event>
 8    2  0.4480234E-052  0.2239834E+04  0.7818608E-02  0.8502029E-01
          2   -1    0    0  501    0  0.00000000000E+00  0.00000000000E+00  0.24508325491E+04  0.24508325491E+04  0.25500000000E-02 0.  1.
         -2   -1    0    0    0  501 -0.00000000000E+00 -0.00000000000E+00 -0.51175011664E+03  0.51175011665E+03  0.25500000000E-02 0. -1.
    -200001    2    1    2    0    0 -0.37252790226E+02  0.87444874881E+02  0.22029023057E+04  0.22884874929E+04  0.61266798527E+03 0.  0.
   -5000001    2    3    3    0    0  0.27020813277E+03  0.30339863333E+02  0.11408981773E+04  0.11768009497E+04  0.96326953697E+02 0.  0.
     200001    1    1    2    0    0  0.37252790226E+02 -0.87444874881E+02 -0.26381987325E+03  0.67409517284E+03  0.61300000000E+03 0. -1.
         13    1    4    4    0    0  0.59991608226E+02  0.28633798693E+02  0.16149719366E+03  0.17464318541E+03  0.10566000000E+00 0.  1.
    -200003    1    4    4    0    0  0.21021652455E+03  0.17060646407E+01  0.97940098363E+03  0.10021577643E+04  0.30000000000E+02 0.  1.
    -200000    1    3    3    0    0 -0.30746092300E+03  0.57105011548E+02  0.10620041284E+04  0.11116865432E+04  0.10100000000E+03 0.  1.
<mgrwt>
<rscale>  0 0.22398338E+04</rscale>
<asrwt>0</asrwt>
<pdfrwt beam="1">  1        2 0.35011894E+00 0.22398338E+04</pdfrwt>
<pdfrwt beam="2">  1       -2 0.73107159E-01 0.22398338E+04</pdfrwt>
<totfact> 0.72358160E+00</totfact>
</mgrwt>
</event>
<event>
 8    2  0.4480234E-052  0.1297749E+04  0.7818608E-02  0.9031352E-01
          2   -1    0    0  501    0  0.00000000000E+00  0.00000000000E+00  0.12406032573E+04  0.12406032573E+04  0.25500000000E-02 0.  1.
         -2   -1    0    0    0  501 -0.00000000000E+00 -0.00000000000E+00 -0.33938171694E+03  0.33938171695E+03  0.25500000000E-02 0. -1.
    -200001    2    1    2    0    0 -0.17103146544E+03 -0.11070778339E+03  0.37530744427E+03  0.74700081359E+03  0.61290012425E+03 0.  0.
   -5000001    2    3    3    0    0  0.10989833730E+03 -0.26979649140E+03  0.22630199609E+03  0.37735991396E+03  0.79499181895E+02 0.  0.
     200001    1    1    2    0    0  0.17103146544E+03  0.11070778339E+03  0.52591409614E+03  0.83298416071E+03  0.61300000000E+03 0.  1.
         13    1    4    4    0    0  0.52292813031E+02 -0.10467606132E+03  0.50056055895E+02  0.12726836215E+03  0.10566000000E+00 0.  1.
    -200003    1    4    4    0    0  0.57605524272E+02 -0.16512043008E+03  0.17624594019E+03  0.25009155182E+03  0.30000000000E+02 0.  1.
    -200000    1    3    3    0    0 -0.28092980275E+03  0.15908870801E+03  0.14900544818E+03  0.36964089962E+03  0.10100000000E+03 0.  1.
<mgrwt>
<rscale>  0 0.12977489E+04</rscale>
<asrwt>0</asrwt>
<pdfrwt beam="1">  1        2 0.17722903E+00 0.12977489E+04</pdfrwt>
<pdfrwt beam="2">  1       -2 0.48483103E-01 0.12977489E+04</pdfrwt>
<totfact> 0.80076296E+01</totfact>
</mgrwt>
</event>
<event>
 8    2  0.4480234E-052  0.1254510E+04  0.7818608E-02  0.9066438E-01
         -2   -1    0    0    0  501 -0.00000000000E+00  0.00000000000E+00  0.20447362630E+03  0.20447362631E+03  0.25500000000E-02 0. -1.
          2   -1    0    0  501    0  0.00000000000E+00 -0.00000000000E+00 -0.19242044837E+04  0.19242044837E+04  0.25500000000E-02 0.  1.
    -200001    2    1    2    0    0  0.40252835062E+02  0.98651749807E+02 -0.72182603015E+03  0.95269532836E+03  0.61257090399E+03 0.  0.
   -5000001    2    3    3    0    0  0.29355120405E+03  0.15721688273E+03 -0.35967345114E+03  0.49558983834E+03  0.73176764060E+02 0.  0.
     200001    1    1    2    0    0 -0.40252835062E+02 -0.98651749807E+02 -0.99790482721E+03  0.11759827816E+04  0.61300000000E+03 0.  1.
         13    1    4    4    0    0  0.58921442511E+01  0.19913635654E+02 -0.20560057201E+02  0.29223233308E+02  0.10566000000E+00 0.  1.
    -200003    1    4    4    0    0  0.28765905980E+03  0.13730324708E+03 -0.33911339394E+03  0.46636660503E+03  0.30000000000E+02 0.  1.
    -200000    1    3    3    0    0 -0.25329836899E+03 -0.58565132922E+02 -0.36215257900E+03  0.45710549002E+03  0.10100000000E+03 0. -1.
<mgrwt>
<rscale>  0 0.12545104E+04</rscale>
<asrwt>0</asrwt>
<pdfrwt beam="1">  1        2 0.27488634E+00 0.12545104E+04</pdfrwt>
<pdfrwt beam="2">  1       -2 0.29210519E-01 0.12545104E+04</pdfrwt>
<totfact> 0.93044363E+01</totfact>
</mgrwt>
</event>
<event>
 8    2  0.4480234E-052  0.1738315E+04  0.7818608E-02  0.8739809E-01
          2   -1    0    0  501    0  0.00000000000E+00  0.00000000000E+00  0.14432232816E+04  0.14432232816E+04  0.25500000000E-02 0.  1.
         -2   -1    0    0    0  501 -0.00000000000E+00 -0.00000000000E+00 -0.52343577648E+03  0.52343577648E+03  0.25500000000E-02 0. -1.
    -200001    2    1    2    0    0 -0.45130270775E+03 -0.39000325192E+03  0.28646022091E+03  0.90239916524E+03  0.61358628142E+03 0.  0.
   -5000001    2    3    3    0    0  0.59652926223E+02 -0.19161077367E+03 -0.84090469846E+02  0.23311294118E+03  0.83649722241E+02 0.  0.
     200001    1    1    2    0    0  0.45130270775E+03  0.39000325192E+03  0.63332728417E+03  0.10642598928E+04  0.61300000000E+03 0. -1.
         13    1    4    4    0    0 -0.15791796033E+02 -0.31454011406E+02 -0.87520937085E+00  0.35206715424E+02  0.10566000000E+00 0.  1.
    -200003    1    4    4    0    0  0.75444722255E+02 -0.16015676226E+03 -0.83215260475E+02  0.19790622575E+03  0.30000000000E+02 0.  1.
    -200000    1    3    3    0    0 -0.51095563397E+03 -0.19839247825E+03  0.37055069075E+03  0.66928622407E+03  0.10100000000E+03 0.  1.
<mgrwt>
<rscale>  0 0.17383149E+04</rscale>
<asrwt>0</asrwt>
<pdfrwt beam="1">  1        2 0.20617476E+00 0.17383149E+04</pdfrwt>
<pdfrwt beam="2">  1       -2 0.74776539E-01 0.17383149E+04</pdfrwt>
<totfact> 0.23976547E+01</totfact>
</mgrwt>
</event>
<event>
 8    2  0.4480234E-052  0.2916206E+04  0.7818608E-02  0.8268072E-01
          2   -1    0    0  501    0  0.00000000000E+00  0.00000000000E+00  0.28718392554E+04  0.28718392554E+04  0.25500000000E-02 0.  1.
         -2   -1    0    0    0  501 -0.00000000000E+00 -0.00000000000E+00 -0.74031450940E+03  0.74031450940E+03  0.25500000000E-02 0. -1.
    -200001    2    1    2    0    0 -0.28987317014E+03  0.16849106363E+03  0.26522197248E+04  0.27407709820E+04  0.60426849502E+03 0.  0.
   -5000001    2    3    3    0    0 -0.44107233085E+03  0.57229741310E+02  0.14181787853E+04  0.14884538064E+04  0.80272176797E+02 0.  0.
     200001    1    1    2    0    0  0.28987317014E+03 -0.16849106363E+03 -0.52069497875E+03  0.87138278281E+03  0.61300000000E+03 0. -1.
         13    1    4    4    0    0 -0.18353617341E+03  0.40333992879E+02  0.49723892450E+03  0.53156271233E+03  0.10566000000E+00 0.  1.
    -200003    1    4    4    0    0 -0.25753615744E+03  0.16895748431E+02  0.92093986076E+03  0.95689109403E+03  0.30000000000E+02 0. -1.
    -200000    1    3    3    0    0  0.15119916071E+03  0.11126132232E+03  0.12340409395E+04  0.12523171756E+04  0.10100000000E+03 0.  1.
<mgrwt>
<rscale>  0 0.29162059E+04</rscale>
<asrwt>0</asrwt>
<pdfrwt beam="1">  1        2 0.41026275E+00 0.29162059E+04</pdfrwt>
<pdfrwt beam="2">  1       -2 0.10575921E+00 0.29162059E+04</pdfrwt>
<totfact> 0.17419945E+00</totfact>
</mgrwt>
</event>
<event>
 8    2  0.4480234E-052  0.1289425E+04  0.7818608E-02  0.9037994E-01
         -2   -1    0    0    0  501 -0.00000000000E+00  0.00000000000E+00  0.48192773923E+03  0.48192773924E+03  0.25500000000E-02 0. -1.
          2   -1    0    0  501    0  0.00000000000E+00 -0.00000000000E+00 -0.86248218081E+03  0.86248218082E+03  0.25500000000E-02 0.  1.
    -200001    2    1    2    0    0 -0.19561975457E+03  0.34752817466E+02 -0.15996115846E+03  0.66330402282E+03  0.61229878962E+03 0.  0.
   -5000001    2    3    3    0    0 -0.18402573783E+03 -0.24845825398E+03 -0.76125672202E+02  0.35093833813E+03  0.14753176963E+03 0.  0.
     200001    1    1    2    0    0  0.19561975457E+03 -0.34752817466E+02 -0.22059328312E+03  0.68110589724E+03  0.61300000000E+03 0. -1.
         13    1    4    4    0    0 -0.78135082189E+02 -0.34987641400E+02 -0.70168447944E+02  0.11069258498E+03  0.10566000000E+00 0.  1.
    -200003    1    4    4    0    0 -0.10589065564E+03 -0.21347061258E+03 -0.59572242576E+01  0.24024575315E+03  0.30000000000E+02 0.  1.
    -200000    1    3    3    0    0 -0.11594016737E+02  0.28321107144E+03 -0.83835486259E+02  0.31236568468E+03  0.10100000000E+03 0. -1.
<mgrwt>
<rscale>  0 0.12894248E+04</rscale>
<asrwt>0</asrwt>
<pdfrwt beam="1">  1        2 0.12321174E+00 0.12894248E+04</pdfrwt>
<pdfrwt beam="2">  1       -2 0.68846820E-01 0.12894248E+04</pdfrwt>
<totfact> 0.65191836E+01</totfact>
</mgrwt>
</event>
<event>
 8    2  0.4480234E-052  0.1494455E+04  0.7818608E-02  0.8888149E-01
         -2   -1    0    0    0  501 -0.00000000000E+00  0.00000000000E+00  0.26525891329E+03  0.26525891330E+03  0.25500000000E-02 0. -1.
          2   -1    0    0  501    0  0.00000000000E+00 -0.00000000000E+00 -0.21049202327E+04  0.21049202327E+04  0.25500000000E-02 0.  1.
    -200001    2    1    2    0    0 -0.10587744490E+03 -0.35818147559E+03 -0.59239348433E+03  0.93109955987E+03  0.61360601962E+03 0.  0.
   -5000001    2    3    3    0    0 -0.21768229834E+03  0.81235032326E+02 -0.14321846666E+03  0.28492126467E+03  0.81755026647E+02 0.  0.
     200001    1    1    2    0    0  0.10587744490E+03  0.35818147559E+03 -0.12472678351E+04  0.14390795861E+04  0.61300000000E+03 0.  1.
         13    1    4    4    0    0 -0.70277895183E+01  0.21643844434E+02 -0.23650017620E+01  0.22879034611E+02  0.10566000000E+00 0.  1.
    -200003    1    4    4    0    0 -0.21065450882E+03  0.59591187892E+02 -0.14085346489E+03  0.26204223006E+03  0.30000000000E+02 0.  1.
    -200000    1    3    3    0    0  0.11180485344E+03 -0.43941650792E+03 -0.44917501767E+03  0.64617829520E+03  0.10100000000E+03 0. -1.
<mgrwt>
<rscale>  0 0.14944549E+04</rscale>
<asrwt>0</asrwt>
<pdfrwt beam="1">  1        2 0.30070288E+00 0.14944549E+04</pdfrwt>
<pdfrwt beam="2">  1       -2 0.37894132E-01 0.14944549E+04</pdfrwt>
<totfact> 0.45066755E+01</totfact>
</mgrwt>
</event>
<event>
 8    2  0.4480234E-052  0.2207019E+04  0.7818608E-02  0.8515512E-01
         -2   -1    0    0    0  501 -0.00000000000E+00  0.00000000000E+00  0.43553515422E+03  0.43553515423E+03  0.25500000000E-02 0. -1.
          2   -1    0    0  501    0  0.00000000000E+00 -0.00000000000E+00 -0.27959461628E+04  0.27959461628E+04  0.25500000000E-02 0.  1.
    -200001    2    1    2    0    0 -0.12786270142E+03 -0.81874380263E+03 -0.17560338486E+04  0.20366043207E+04  0.61433866640E+03 0.  0.
   -5000001    2    3    3    0    0 -0.11014120220E+03  0.31626715868E+02 -0.24161431068E+03  0.29674466918E+03  0.12864132300E+03 0.  0.
     200001    1    1    2    0    0  0.12786270142E+03  0.81874380263E+03 -0.60437715996E+03  0.11948769963E+04  0.61300000000E+03 0. -1.
         13    1    4    4    0    0 -0.80963982692E+02 -0.11950822771E+02 -0.50174523702E+02  0.95997305436E+02  0.10566000000E+00 0.  1.
    -200003    1    4    4    0    0 -0.29177219504E+02  0.43577538639E+02 -0.19143978698E+03  0.20074736375E+03  0.30000000000E+02 0.  1.
    -200000    1    3    3    0    0 -0.17721499225E+02 -0.85037051850E+03 -0.15144195379E+04  0.17398596515E+04  0.10100000000E+03 0.  1.
<mgrwt>
<rscale>  0 0.22070187E+04</rscale>
<asrwt>0</asrwt>
<pdfrwt beam="1">  1        2 0.39942087E+00 0.22070187E+04</pdfrwt>
<pdfrwt beam="2">  1       -2 0.62219309E-01 0.22070187E+04</pdfrwt>
<totfact> 0.67284148E+00</totfact>
</mgrwt>
</event>
<event>
 8    2  0.4480234E-052  0.1295909E+04  0.7818608E-02  0.9032816E-01
         -2   -1    0    0    0  501 -0.00000000000E+00  0.00000000000E+00  0.26425031000E+03  0.26425031001E+03  0.25500000000E-02 0. -1.
          2   -1    0    0  501    0  0.00000000000E+00 -0.00000000000E+00 -0.15888149738E+04  0.15888149738E+04  0.25500000000E-02 0.  1.
    -200001    2    1    2    0    0 -0.33132444164E+02  0.68834804976E+02 -0.38102244656E+03  0.72529008239E+03  0.61239824429E+03 0.  0.
   -5000001    2    3    3    0    0 -0.21196965290E+03 -0.15048722406E+03 -0.63911557992E+02  0.28843173545E+03  0.10738081956E+03 0.  0.
     200001    1    1    2    0    0  0.33132444164E+02 -0.68834804976E+02 -0.94354221726E+03  0.11277752014E+04  0.61300000000E+03 0. -1.
         13    1    4    4    0    0 -0.11514241845E+03 -0.42739269006E+02  0.96847031134E+01  0.12319994432E+03  0.10566000000E+00 0.  1.
    -200003    1    4    4    0    0 -0.96827234451E+02 -0.10774795506E+03 -0.73596261105E+02  0.16523179113E+03  0.30000000000E+02 0.  1.
    -200000    1    3    3    0    0  0.17883720874E+03  0.21932202904E+03 -0.31711088857E+03  0.43685834695E+03  0.10100000000E+03 0.  1.
<mgrwt>
<rscale>  0 0.12959087E+04</rscale>
<asrwt>0</asrwt>
<pdfrwt beam="1">  1        2 0.22697356E+00 0.12959087E+04</pdfrwt>
<pdfrwt beam="2">  1       -2 0.37750045E-01 0.12959087E+04</pdfrwt>
<totfact> 0.85141061E+01</totfact>
</mgrwt>
</event>
<event>
 8    2  0.4480234E-052  0.2075715E+04  0.7818608E-02  0.8572017E-01
         -2   -1    0    0    0  501 -0.00000000000E+00  0.00000000000E+00  0.84657778397E+03  0.84657778397E+03  0.25500000000E-02 0. -1.
          2   -1    0    0  501    0  0.00000000000E+00 -0.00000000000E+00 -0.12723562548E+04  0.12723562548E+04  0.25500000000E-02 0.  1.
    -200001    2    1    2    0    0  0.47034383314E+03  0.69256868893E+03 -0.19400903185E+03  0.10557497730E+04  0.61326451751E+03 0.  0.
   -5000001    2    3    3    0    0  0.45330659594E+03  0.77675818742E+03 -0.18893563199E+03  0.92306639612E+03  0.86687640110E+02 0.  0.
     200001    1    1    2    0    0 -0.47034383314E+03 -0.69256868893E+03 -0.23176943901E+03  0.10631842658E+04  0.61300000000E+03 0.  1.
         13    1    4    4    0    0  0.13114756468E+02  0.56544417663E+01 -0.81704251732E+01  0.16454074281E+02  0.10566000000E+00 0.  1.
    -200003    1    4    4    0    0  0.44019183948E+03  0.77110374566E+03 -0.18076520681E+03  0.90661232183E+03  0.30000000000E+02 0.  1.
    -200000    1    3    3    0    0  0.17037237193E+02 -0.84189498493E+02 -0.50733998598E+01  0.13268337686E+03  0.10100000000E+03 0. -1.
<mgrwt>
<rscale>  0 0.20757153E+04</rscale>
<asrwt>0</asrwt>
<pdfrwt beam="1">  1        2 0.18176518E+00 0.20757153E+04</pdfrwt>
<pdfrwt beam="2">  1       -2 0.12093968E+00 0.20757153E+04</pdfrwt>
<totfact> 0.93954240E+00</totfact>
</mgrwt>
</event>
<event>
 8    2  0.4480234E-052  0.1471724E+04  0.7818608E-02  0.8903477E-01
          2   -1    0    0  501    0  0.00000000000E+00  0.00000000000E+00  0.12479553342E+04  0.12479553343E+04  0.25500000000E-02 0.  1.
         -2   -1    0    0    0  501 -0.00000000000E+00 -0.00000000000E+00 -0.43390423775E+03  0.43390423776E+03  0.25500000000E-02 0. -1.
    -200001    2    1    2    0    0  0.19034308379E+03 -0.36012364164E+03  0.40426930769E+03  0.83947626185E+03  0.61267217519E+03 0.  0.
   -5000001    2    3    3    0    0  0.36179153764E+03 -0.38449864168E+03  0.32988669555E+03  0.62564809265E+03  0.62273443588E+02 0.  0.
     200001    1    1    2    0    0 -0.19034308379E+03  0.36012364164E+03  0.40978178880E+03  0.84238331017E+03  0.61300000000E+03 0.  1.
         13    1    4    4    0    0  0.20256478167E+03 -0.24263019689E+03  0.20414399507E+03  0.37626677384E+03  0.10566000000E+00 0.  1.
    -200003    1    4    4    0    0  0.15922675597E+03 -0.14186844479E+03  0.12574270049E+03  0.24938131881E+03  0.30000000000E+02 0.  1.
    -200000    1    3    3    0    0 -0.17144845384E+03  0.24375000041E+02  0.74382612139E+02  0.21382816920E+03  0.10100000000E+03 0. -1.
<mgrwt>
<rscale>  0 0.14717243E+04</rscale>
<asrwt>0</asrwt>
<pdfrwt beam="1">  1        2 0.17827933E+00 0.14717243E+04</pdfrwt>
<pdfrwt beam="2">  1       -2 0.61986320E-01 0.14717243E+04</pdfrwt>
<totfact> 0.47044982E+01</totfact>
</mgrwt>
</event>
<event>
 8    2  0.4480234E-052  0.1714417E+04  0.7818608E-02  0.8753184E-01
          2   -1    0    0  501    0  0.00000000000E+00  0.00000000000E+00  0.14976985168E+04  0.14976985168E+04  0.25500000000E-02 0.  1.
         -2   -1    0    0    0  501 -0.00000000000E+00 -0.00000000000E+00 -0.49062381927E+03  0.49062381928E+03  0.25500000000E-02 0. -1.
    -200001    2    1    2    0    0  0.11337697573E+03 -0.23275693890E+03 -0.12545070821E+03  0.67477259363E+03  0.61036877516E+03 0.  0.
   -5000001    2    3    3    0    0 -0.72778607475E+02 -0.33930098851E+03 -0.14141421363E+02  0.41286365334E+03  0.22323648883E+03 0.  0.
     200001    1    1    2    0    0 -0.11337697573E+03  0.23275693890E+03  0.11325254057E+04  0.13135497424E+04  0.61300000000E+03 0.  1.
         13    1    4    4    0    0 -0.11447656599E+02 -0.33833405692E+03  0.14453337957E+02  0.33883608583E+03  0.10566000000E+00 0.  1.
    -200003    1    4    4    0    0 -0.61330950875E+02 -0.96693158700E+00 -0.28594759320E+02  0.74027567517E+02  0.30000000000E+02 0.  1.
    -200000    1    3    3    0    0  0.18615558321E+03  0.10654404961E+03 -0.11130928685E+03  0.26190894029E+03  0.10100000000E+03 0.  1.
<mgrwt>
<rscale>  0 0.17144172E+04</rscale>
<asrwt>0</asrwt>
<pdfrwt beam="1">  1        2 0.21395693E+00 0.17144172E+04</pdfrwt>
<pdfrwt beam="2">  1       -2 0.70089119E-01 0.17144172E+04</pdfrwt>
<totfact> 0.25897494E+01</totfact>
</mgrwt>
</event>
<event>
 8    2  0.4480234E-052  0.1495220E+04  0.7818608E-02  0.8887638E-01
          2   -1    0    0  501    0  0.00000000000E+00  0.00000000000E+00  0.17452994551E+04  0.17452994551E+04  0.25500000000E-02 0.  1.
         -2   -1    0    0    0  501 -0.00000000000E+00 -0.00000000000E+00 -0.32024352674E+03  0.32024352675E+03  0.25500000000E-02 0. -1.
    -200001    2    1    2    0    0  0.61989511273E+02 -0.39970420026E+03  0.90752285830E+03  0.11670911880E+04  0.61228911112E+03 0.  0.
   -5000001    2    3    3    0    0 -0.76679416936E+02  0.13767816232E+03  0.20977934370E+03  0.26984212147E+03  0.63026884055E+02 0.  0.
     200001    1    1    2    0    0 -0.61989511273E+02  0.39970420026E+03  0.51753307003E+03  0.89845179380E+03  0.61300000000E+03 0.  1.
         13    1    4    4    0    0 -0.61384495271E+02  0.11060752061E+03  0.15446047844E+03  0.19965001988E+03  0.10566000000E+00 0.  1.
    -200003    1    4    4    0    0 -0.15294921665E+02  0.27070641710E+02  0.55318865262E+02  0.70192101587E+02  0.30000000000E+02 0. -1.
    -200000    1    3    3    0    0  0.13866892821E+03 -0.53738236258E+03  0.69774351460E+03  0.89724906655E+03  0.10100000000E+03 0. -1.
<mgrwt>
<rscale>  0 0.14952202E+04</rscale>
<asrwt>0</asrwt>
<pdfrwt beam="1">  1        2 0.24932849E+00 0.14952202E+04</pdfrwt>
<pdfrwt beam="2">  1       -2 0.45749076E-01 0.14952202E+04</pdfrwt>
<totfact> 0.47632288E+01</totfact>
</mgrwt>
</event>
<event>
 8    2  0.4480234E-052  0.2316311E+04  0.7818608E-02  0.8471518E-01
          2   -1    0    0  501    0  0.00000000000E+00  0.00000000000E+00  0.21626109690E+04  0.21626109690E+04  0.25500000000E-02 0.  1.
         -2   -1    0    0    0  501 -0.00000000000E+00 -0.00000000000E+00 -0.62023345265E+03  0.62023345266E+03  0.25500000000E-02 0. -1.
    -200001    2    1    2    0    0 -0.40435603427E+03 -0.41556128358E+03 -0.18160502291E+03  0.86344874111E+03  0.61348868067E+03 0.  0.
   -5000001    2    3    3    0    0 -0.12068803892E+03 -0.47101492278E+03 -0.22813005725E+03  0.55375822381E+03  0.13484875673E+03 0.  0.
     200001    1    1    2    0    0  0.40435603427E+03  0.41556128358E+03  0.17239825392E+04  0.19193956805E+04  0.61300000000E+03 0.  1.
         13    1    4    4    0    0 -0.24770284745E+01 -0.36783175337E+02 -0.63867949617E+02  0.73744584956E+02  0.10566000000E+00 0.  1.
    -200003    1    4    4    0    0 -0.11821101045E+03 -0.43423174744E+03 -0.16426210764E+03  0.48001363885E+03  0.30000000000E+02 0.  1.
    -200000    1    3    3    0    0 -0.28366799535E+03  0.55453639192E+02  0.46525034347E+02  0.30969051730E+03  0.10100000000E+03 0.  1.
<mgrwt>
<rscale>  0 0.23163106E+04</rscale>
<asrwt>0</asrwt>
<pdfrwt beam="1">  1        2 0.30894442E+00 0.23163106E+04</pdfrwt>
<pdfrwt beam="2">  1       -2 0.88604780E-01 0.23163106E+04</pdfrwt>
<totfact> 0.65923863E+00</totfact>
</mgrwt>
</event>
<event>
 8    2  0.4480234E-052  0.1921903E+04  0.7818608E-02  0.8644030E-01
         -2   -1    0    0    0  501 -0.00000000000E+00  0.00000000000E+00  0.74006882906E+03  0.74006882906E+03  0.25500000000E-02 0. -1.
          2   -1    0    0  501    0  0.00000000000E+00 -0.00000000000E+00 -0.12477586852E+04  0.12477586852E+04  0.25500000000E-02 0.  1.
    -200001    2    1    2    0    0  0.28519665531E+03  0.62787195824E+02 -0.95700680036E+03  0.11736198746E+04  0.61338587354E+03 0.  0.
   -5000001    2    3    3    0    0 -0.22168314174E+02 -0.22551209913E+03 -0.39072462721E+03  0.46055170982E+03  0.89972229629E+02 0.  0.
     200001    1    1    2    0    0 -0.28519665531E+03 -0.62787195824E+02  0.44931694424E+03  0.81420763969E+03  0.61300000000E+03 0. -1.
         13    1    4    4    0    0 -0.17822972327E+02 -0.41812233182E+01 -0.16121343939E+02  0.24393643956E+02  0.10566000000E+00 0.  1.
    -200003    1    4    4    0    0 -0.43453418477E+01 -0.22133087581E+03 -0.37460328327E+03  0.43615806586E+03  0.30000000000E+02 0.  1.
    -200000    1    3    3    0    0  0.30736496948E+03  0.28829929495E+03 -0.56628217315E+03  0.71306816474E+03  0.10100000000E+03 0.  1.
<mgrwt>
<rscale>  0 0.19219025E+04</rscale>
<asrwt>0</asrwt>
<pdfrwt beam="1">  1        2 0.17825124E+00 0.19219025E+04</pdfrwt>
<pdfrwt beam="2">  1       -2 0.10572412E+00 0.19219025E+04</pdfrwt>
<totfact> 0.13625270E+01</totfact>
</mgrwt>
</event>
<event>
 8    2  0.4480234E-052  0.1282157E+04  0.7818608E-02  0.9043836E-01
         -2   -1    0    0    0  501 -0.00000000000E+00  0.00000000000E+00  0.31834649794E+03  0.31834649795E+03  0.25500000000E-02 0. -1.
          2   -1    0    0  501    0  0.00000000000E+00 -0.00000000000E+00 -0.12909875663E+04  0.12909875663E+04  0.25500000000E-02 0.  1.
    -200001    2    1    2    0    0 -0.13950094607E+03 -0.12525554736E+03 -0.48957297638E+03  0.80666772786E+03  0.61309188371E+03 0.  0.
   -5000001    2    3    3    0    0 -0.25784306052E+03  0.12256544608E+03 -0.37180735255E+03  0.49124762229E+03  0.14689515500E+03 0.  0.
     200001    1    1    2    0    0  0.13950094607E+03  0.12525554736E+03 -0.48306809199E+03  0.80266633640E+03  0.61300000000E+03 0.  1.
         13    1    4    4    0    0 -0.10832138477E+03  0.12541738302E+03 -0.16102963252E+03  0.23107054350E+03  0.10566000000E+00 0.  1.
    -200003    1    4    4    0    0 -0.14952167575E+03 -0.28519369355E+01 -0.21077772003E+03  0.26017707878E+03  0.30000000000E+02 0.  1.
    -200000    1    3    3    0    0  0.11834211445E+03 -0.24782099345E+03 -0.11776562383E+03  0.31542010557E+03  0.10100000000E+03 0.  1.
<mgrwt>
<rscale>  0 0.12821566E+04</rscale>
<asrwt>0</asrwt>
<pdfrwt beam="1">  1        2 0.18442679E+00 0.12821566E+04</pdfrwt>
<pdfrwt beam="2">  1       -2 0.45478072E-01 0.12821566E+04</pdfrwt>
<totfact> 0.85454755E+01</totfact>
</mgrwt>
</event>
<event>
 8    2  0.4480234E-052  0.1337521E+04  0.7818608E-02  0.9000329E-01
         -2   -1    0    0    0  501 -0.00000000000E+00  0.00000000000E+00  0.29267719971E+03  0.29267719972E+03  0.25500000000E-02 0. -1.
          2   -1    0    0  501    0  0.00000000000E+00 -0.00000000000E+00 -0.15281010815E+04  0.15281010815E+04  0.25500000000E-02 0.  1.
    -200001    2    1    2    0    0  0.13790652613E+02 -0.14258641283E+03 -0.93146001541E+03  0.11217188422E+04  0.60837022725E+03 0.  0.
   -5000001    2    3    3    0    0  0.13365214176E+03 -0.28045640246E+03 -0.82951593144E+03  0.88940761372E+03  0.80190611393E+02 0.  0.
     200001    1    1    2    0    0 -0.13790652613E+02  0.14258641283E+03 -0.30396386638E+03  0.69905943902E+03  0.61300000000E+03 0. -1.
         13    1    4    4    0    0  0.11804900069E+02 -0.23164353219E+02 -0.14713796701E+03  0.14941731970E+03  0.10566000000E+00 0.  1.
    -200003    1    4    4    0    0  0.12184724169E+03 -0.25729204924E+03 -0.68237796443E+03  0.73999029402E+03  0.30000000000E+02 0.  1.
    -200000    1    3    3    0    0 -0.11986148915E+03  0.13786998962E+03 -0.10194408397E+03  0.23231122848E+03  0.10100000000E+03 0.  1.
<mgrwt>
<rscale>  0 0.13375206E+04</rscale>
<asrwt>0</asrwt>
<pdfrwt beam="1">  1        2 0.21830015E+00 0.13375206E+04</pdfrwt>
<pdfrwt beam="2">  1       -2 0.41811029E-01 0.13375206E+04</pdfrwt>
<totfact> 0.74860730E+01</totfact>
</mgrwt>
</event>
<event>
 8    2  0.4480234E-052  0.1387448E+04  0.7818608E-02  0.8962955E-01
          2   -1    0    0  501    0  0.00000000000E+00  0.00000000000E+00  0.55977673506E+03  0.55977673506E+03  0.25500000000E-02 0.  1.
         -2   -1    0    0    0  501 -0.00000000000E+00 -0.00000000000E+00 -0.85972265828E+03  0.85972265829E+03  0.25500000000E-02 0. -1.
    -200001    2    1    2    0    0 -0.30234898430E+02 -0.28337065742E+03  0.84795122839E+01  0.67645946990E+03  0.61344309738E+03 0.  0.
   -5000001    2    3    3    0    0  0.18942584986E+03  0.90085689357E+02 -0.53296236656E+02  0.22730723464E+03  0.69501842097E+02 0.  0.
     200001    1    1    2    0    0  0.30234898430E+02  0.28337065742E+03 -0.30842543551E+03  0.74303992345E+03  0.61300000000E+03 0. -1.
         13    1    4    4    0    0  0.12525597732E+03  0.79590115111E+02 -0.25958764888E+02  0.15065694446E+03  0.10566000000E+00 0.  1.
    -200003    1    4    4    0    0  0.64169872542E+02  0.10495574247E+02 -0.27337471768E+02  0.76650290172E+02  0.30000000000E+02 0. -1.
    -200000    1    3    3    0    0 -0.21966074829E+03 -0.37345634678E+03  0.61775748940E+02  0.44915223527E+03  0.10100000000E+03 0.  1.
<mgrwt>
<rscale>  0 0.13874476E+04</rscale>
<asrwt>0</asrwt>
<pdfrwt beam="1">  1        2 0.79968106E-01 0.13874476E+04</pdfrwt>
<pdfrwt beam="2">  1       -2 0.12281752E+00 0.13874476E+04</pdfrwt>
<totfact> 0.28792105E+01</totfact>
</mgrwt>
</event>
<event>
 8    2  0.4480234E-052  0.1785020E+04  0.7818608E-02  0.8714306E-01
          2   -1    0    0  501    0  0.00000000000E+00  0.00000000000E+00  0.18765152240E+04  0.18765152240E+04  0.25500000000E-02 0.  1.
         -2   -1    0    0    0  501 -0.00000000000E+00 -0.00000000000E+00 -0.42449671198E+03  0.42449671198E+03  0.25500000000E-02 0. -1.
    -200001    2    1    2    0    0  0.46566802154E+02 -0.19386780270E+03  0.15215842988E+04  0.16526589529E+04  0.61344082363E+03 0.  0.
   -5000001    2    3    3    0    0 -0.25270990073E+03  0.16355010840E+02  0.65211894691E+03  0.70401192979E+03  0.79018327411E+02 0.  0.
     200001    1    1    2    0    0 -0.46566802154E+02  0.19386780270E+03 -0.69565786825E+02  0.64835298309E+03  0.61300000000E+03 0. -1.
         13    1    4    4    0    0 -0.18841265655E+03  0.34076918929E+01  0.40711734648E+03  0.44861507607E+03  0.10566000000E+00 0.  1.
    -200003    1    4    4    0    0 -0.64297244183E+02  0.12947318947E+02  0.24500160043E+03  0.25539685372E+03  0.30000000000E+02 0.  1.
    -200000    1    3    3    0    0  0.29927670288E+03 -0.21022281354E+03  0.86946535193E+03  0.94864702309E+03  0.10100000000E+03 0.  1.
<mgrwt>
<rscale>  0 0.17850205E+04</rscale>
<asrwt>0</asrwt>
<pdfrwt beam="1">  1        2 0.26807360E+00 0.17850205E+04</pdfrwt>
<pdfrwt beam="2">  1       -2 0.60642388E-01 0.17850205E+04</pdfrwt>
<totfact> 0.22296696E+01</totfact>
</mgrwt>
</event>
<event>
 8    2  0.4480234E-052  0.1503726E+04  0.7818608E-02  0.8881979E-01
          2   -1    0    0  501    0  0.00000000000E+00  0.00000000000E+00  0.18682262225E+04  0.18682262225E+04  0.25500000000E-02 0.  1.
         -2   -1    0    0    0  501 -0.00000000000E+00 -0.00000000000E+00 -0.30258553320E+03  0.30258553321E+03  0.25500000000E-02 0. -1.
    -200001    2    1    2    0    0  0.41408562046E+03 -0.13313408448E+03  0.81228455507E+03  0.11066190803E+04  0.61286866852E+03 0.  0.
   -5000001    2    3    3    0    0  0.38181380347E+03  0.79568109080E+02  0.76955244779E+03  0.86514294001E+03  0.64408634801E+02 0.  0.
     200001    1    1    2    0    0 -0.41408562046E+03  0.13313408448E+03  0.75335613424E+03  0.10641926755E+04  0.61300000000E+03 0. -1.
         13    1    4    4    0    0  0.14414713048E+03  0.35316595001E+02  0.34688228937E+03  0.37729695327E+03  0.10566000000E+00 0.  1.
    -200003    1    4    4    0    0  0.23766667300E+03  0.44251514080E+02  0.42267015842E+03  0.48784598673E+03  0.30000000000E+02 0.  1.
    -200000    1    3    3    0    0  0.32271816986E+02 -0.21270219356E+03  0.42732107281E+02  0.24147614025E+03  0.10100000000E+03 0. -1.
<mgrwt>
<rscale>  0 0.15037263E+04</rscale>
<asrwt>0</asrwt>
<pdfrwt beam="1">  1        2 0.26688946E+00 0.15037263E+04</pdfrwt>
<pdfrwt beam="2">  1       -2 0.43226505E-01 0.15037263E+04</pdfrwt>
<totfact> 0.46049172E+01</totfact>
</mgrwt>
</event>
<event>
 8    2  0.4480234E-052  0.2202041E+04  0.7818608E-02  0.8517579E-01
          2   -1    0    0  501    0  0.00000000000E+00  0.00000000000E+00  0.24748978916E+04  0.24748978916E+04  0.25500000000E-02 0.  1.
         -2   -1    0    0    0  501 -0.00000000000E+00 -0.00000000000E+00 -0.48981674263E+03  0.48981674264E+03  0.25500000000E-02 0. -1.
    -200001    2    1    2    0    0 -0.38197852968E+03  0.36866196428E+03 -0.10292344129E+02  0.81085678889E+03  0.61283240669E+03 0.  0.
   -5000001    2    3    3    0    0  0.51691387490E+02  0.30626406210E+03 -0.12999622431E+03  0.34556858338E+03  0.77775010168E+02 0.  0.
     200001    1    1    2    0    0  0.38197852968E+03 -0.36866196428E+03  0.19953734931E+04  0.21538578453E+04  0.61300000000E+03 0.  1.
         13    1    4    4    0    0  0.19904100099E+02  0.13702908122E+02 -0.13218679475E+02  0.27544283306E+02  0.10566000000E+00 0.  1.
    -200003    1    4    4    0    0  0.31787287391E+02  0.29256115398E+03 -0.11677754484E+03  0.31802430007E+03  0.30000000000E+02 0.  1.
    -200000    1    3    3    0    0 -0.43366991717E+03  0.62397902172E+02  0.11970388018E+03  0.46528820551E+03  0.10100000000E+03 0.  1.
<mgrwt>
<rscale>  0 0.22020413E+04</rscale>
<asrwt>0</asrwt>
<pdfrwt beam="1">  1        2 0.35355684E+00 0.22020413E+04</pdfrwt>
<pdfrwt beam="2">  1       -2 0.69973821E-01 0.22020413E+04</pdfrwt>
<totfact> 0.77604202E+00</totfact>
</mgrwt>
</event>
<event>
 8    2  0.4480234E-052  0.1403999E+04  0.7818608E-02  0.8950929E-01
          2   -1    0    0  501    0  0.00000000000E+00  0.00000000000E+00  0.23230456305E+04  0.23230456305E+04  0.25500000000E-02 0.  1.
         -2   -1    0    0    0  501 -0.00000000000E+00 -0.00000000000E+00 -0.21213676655E+03  0.21213676657E+03  0.25500000000E-02 0. -1.
    -200001    2    1    2    0    0 -0.16698207347E+03  0.29426563219E+03  0.10257153586E+04  0.12437145426E+04  0.61665110995E+03 0.  0.
   -5000001    2    3    3    0    0 -0.71378543297E+02 -0.69854424205E+02 -0.12724567109E+02  0.13453379546E+03  0.89235029496E+02 0.  0.
     200001    1    1    2    0    0  0.16698207347E+03 -0.29426563219E+03  0.10851935053E+04  0.12914678545E+04  0.61300000000E+03 0. -1.
         13    1    4    4    0    0 -0.88904904525E+00  0.92200382280E+01 -0.22173999388E+02  0.24031165723E+02  0.10566000000E+00 0.  1.
    -200003    1    4    4    0    0 -0.70489494251E+02 -0.79074462433E+02  0.94494322784E+01  0.11050262974E+03  0.30000000000E+02 0.  1.
    -200000    1    3    3    0    0 -0.95603530173E+02  0.36412005640E+03  0.10384399257E+04  0.11091807471E+04  0.10100000000E+03 0.  1.
<mgrwt>
<rscale>  0 0.14039991E+04</rscale>
<asrwt>0</asrwt>
<pdfrwt beam="1">  1        2 0.33186366E+00 0.14039991E+04</pdfrwt>
<pdfrwt beam="2">  1       -2 0.30305253E-01 0.14039991E+04</pdfrwt>
<totfact> 0.53563897E+01</totfact>
</mgrwt>
</event>
<event>
 8    2  0.4480234E-052  0.1814638E+04  0.7818608E-02  0.8698553E-01
          2   -1    0    0  501    0  0.00000000000E+00  0.00000000000E+00  0.57841250062E+03  0.57841250062E+03  0.25500000000E-02 0.  1.
         -2   -1    0    0    0  501 -0.00000000000E+00 -0.00000000000E+00 -0.14232544534E+04  0.14232544534E+04  0.25500000000E-02 0. -1.
    -200001    2    1    2    0    0  0.17407345859E+03  0.33373528331E+03  0.18659888241E+03  0.74416148492E+03  0.61422826735E+03 0.  0.
   -5000001    2    3    3    0    0 -0.11396855873E+03  0.57256882833E+02  0.28211540241E+03  0.32139332710E+03  0.86240288847E+02 0.  0.
     200001    1    1    2    0    0 -0.17407345859E+03 -0.33373528331E+03 -0.10314408352E+04  0.12575054691E+04  0.61300000000E+03 0. -1.
         13    1    4    4    0    0 -0.20425373869E+01  0.35177468824E+02  0.52154572864E+02  0.62942330005E+02  0.10566000000E+00 0.  1.
    -200003    1    4    4    0    0 -0.11192602134E+03  0.22079414009E+02  0.22996082955E+03  0.25845099710E+03  0.30000000000E+02 0.  1.
    -200000    1    3    3    0    0  0.28804201732E+03  0.27647840048E+03 -0.95516519996E+02  0.42276815782E+03  0.10100000000E+03 0.  1.
<mgrwt>
<rscale>  0 0.18146384E+04</rscale>
<asrwt>0</asrwt>
<pdfrwt beam="1">  1        2 0.82630358E-01 0.18146384E+04</pdfrwt>
<pdfrwt beam="2">  1       -2 0.20332206E+00 0.18146384E+04</pdfrwt>
<totfact> 0.67746624E+00</totfact>
</mgrwt>
</event>
<event>
 8    2  0.4480234E-052  0.1380451E+04  0.7818608E-02  0.8968092E-01
         -2   -1    0    0    0  501 -0.00000000000E+00  0.00000000000E+00  0.18441956823E+03  0.18441956825E+03  0.25500000000E-02 0. -1.
          2   -1    0    0  501    0  0.00000000000E+00 -0.00000000000E+00 -0.25833017511E+04  0.25833017511E+04  0.25500000000E-02 0.  1.
    -200001    2    1    2    0    0 -0.60847593368E+02 -0.62269802518E+02 -0.59008181240E+03  0.85588771305E+03  0.61381371287E+03 0.  0.
   -5000001    2    3    3    0    0 -0.11219610472E+03  0.25104659551E+03 -0.27463219736E+03  0.39707043513E+03  0.81423139183E+02 0.  0.
     200001    1    1    2    0    0  0.60847593368E+02  0.62269802518E+02 -0.18088003705E+04  0.19118336063E+04  0.61300000000E+03 0.  1.
         13    1    4    4    0    0 -0.10723886489E+03  0.18219629461E+03 -0.20708682802E+03  0.29594024636E+03  0.10566000000E+00 0.  1.
    -200003    1    4    4    0    0 -0.49572398309E+01  0.68850300904E+02 -0.67545369333E+02  0.10113018876E+03  0.30000000000E+02 0.  1.
    -200000    1    3    3    0    0  0.51348511357E+02 -0.31331639803E+03 -0.31544961504E+03  0.45881727793E+03  0.10100000000E+03 0.  1.
<mgrwt>
<rscale>  0 0.13804512E+04</rscale>
<asrwt>0</asrwt>
<pdfrwt beam="1">  1        2 0.36904309E+00 0.13804512E+04</pdfrwt>
<pdfrwt beam="2">  1       -2 0.26345654E-01 0.13804512E+04</pdfrwt>
<totfact> 0.50798772E+01</totfact>
</mgrwt>
</event>
<event>
 8    2  0.4480234E-052  0.1308099E+04  0.7818608E-02  0.9023167E-01
          2   -1    0    0  501    0  0.00000000000E+00  0.00000000000E+00  0.11145664524E+04  0.11145664524E+04  0.25500000000E-02 0.  1.
         -2   -1    0    0    0  501 -0.00000000000E+00 -0.00000000000E+00 -0.38380916713E+03  0.38380916714E+03  0.25500000000E-02 0. -1.
    -200001    2    1    2    0    0  0.20366659600E+03 -0.66385236345E+02  0.45151976109E+03  0.79153074488E+03  0.61381083691E+03 0.  0.
   -5000001    2    3    3    0    0  0.35388755538E+03  0.12807812228E+03  0.24916137328E+03  0.45756629826E+03  0.75134014355E+02 0.  0.
     200001    1    1    2    0    0 -0.20366659600E+03  0.66385236345E+02  0.27923752418E+03  0.70684487467E+03  0.61300000000E+03 0. -1.
         13    1    4    4    0    0  0.11035678872E+03  0.72945559348E+02  0.85124152258E+02  0.15730800331E+03  0.10566000000E+00 0.  1.
    -200003    1    4    4    0    0  0.24353076666E+03  0.55132562931E+02  0.16403722102E+03  0.30025829495E+03  0.30000000000E+02 0.  1.
    -200000    1    3    3    0    0 -0.15022095938E+03 -0.19446335862E+03  0.20235838782E+03  0.33396444662E+03  0.10100000000E+03 0.  1.
<mgrwt>
<rscale>  0 0.13080991E+04</rscale>
<asrwt>0</asrwt>
<pdfrwt beam="1">  1        2 0.15922378E+00 0.13080991E+04</pdfrwt>
<pdfrwt beam="2">  1       -2 0.54829880E-01 0.13080991E+04</pdfrwt>
<totfact> 0.73473676E+01</totfact>
</mgrwt>
</event>
<event>
 8    2  0.4480234E-052  0.1635396E+04  0.7818608E-02  0.8799093E-01
          2   -1    0    0  501    0  0.00000000000E+00  0.00000000000E+00  0.17350124828E+04  0.17350124828E+04  0.25500000000E-02 0.  1.
         -2   -1    0    0    0  501 -0.00000000000E+00 -0.00000000000E+00 -0.38537499489E+03  0.38537499490E+03  0.25500000000E-02 0. -1.
    -200001    2    1    2    0    0 -0.29052639812E+03  0.43931011381E+03  0.51433236188E+03  0.95810411394E+03  0.61321020096E+03 0.  0.
   -5000001    2    3    3    0    0  0.13517887640E+03  0.25689133997E+03  0.32380288686E+03  0.44721853903E+03  0.10435335614E+03 0.  0.
     200001    1    1    2    0    0  0.29052639812E+03 -0.43931011381E+03  0.83530512599E+03  0.11622833637E+04  0.61300000000E+03 0.  1.
         13    1    4    4    0    0  0.42241638137E+02  0.31159449161E+02  0.19611000756E+02  0.56034540948E+02  0.10566000000E+00 0.  1.
    -200003    1    4    4    0    0  0.92937238262E+02  0.22573189081E+03  0.30419188610E+03  0.39118399808E+03  0.30000000000E+02 0.  1.
    -200000    1    3    3    0    0 -0.42570527451E+03  0.18241877384E+03  0.19052947503E+03  0.51088557491E+03  0.10100000000E+03 0.  1.
<mgrwt>
<rscale>  0 0.16353965E+04</rscale>
<asrwt>0</asrwt>
<pdfrwt beam="1">  1        2 0.24785893E+00 0.16353965E+04</pdfrwt>
<pdfrwt beam="2">  1       -2 0.55053570E-01 0.16353965E+04</pdfrwt>
<totfact> 0.32701282E+01</totfact>
</mgrwt>
</event>
<event>
 8    2  0.4480234E-052  0.1861142E+04  0.7818608E-02  0.8674444E-01
          2   -1    0    0  501    0  0.00000000000E+00  0.00000000000E+00  0.37483344852E+04  0.37483344852E+04  0.25500000000E-02 0.  1.
         -2   -1    0    0    0  501 -0.00000000000E+00 -0.00000000000E+00 -0.23102599253E+03  0.23102599254E+03  0.25500000000E-02 0. -1.
    -200001    2    1    2    0    0  0.41115619986E+03  0.56192741446E+03  0.19220446645E+04  0.21339750109E+04  0.61219426248E+03 0.  0.
   -5000001    2    3    3    0    0  0.15335262763E+03  0.57526860684E+03  0.10447348665E+04  0.12139129744E+04  0.16632128490E+03 0.  0.
     200001    1    1    2    0    0 -0.41115619986E+03 -0.56192741446E+03  0.15952638282E+04  0.18453854669E+04  0.61300000000E+03 0.  1.
         13    1    4    4    0    0 -0.16304867967E+02  0.24482116086E+03  0.40286903431E+03  0.47170617920E+03  0.10566000000E+00 0.  1.
    -200003    1    4    4    0    0  0.16965749559E+03  0.33044744597E+03  0.64186583216E+03  0.74220679521E+03  0.30000000000E+02 0.  1.
    -200000    1    3    3    0    0  0.25780357223E+03 -0.13341192379E+02  0.87730979806E+03  0.92006203652E+03  0.10100000000E+03 0. -1.
<mgrwt>
<rscale>  0 0.18611423E+04</rscale>
<asrwt>0</asrwt>
<pdfrwt beam="1">  1        2 0.53547629E+00 0.18611423E+04</pdfrwt>
<pdfrwt beam="2">  1       -2 0.33003718E-01 0.18611423E+04</pdfrwt>
<totfact> 0.68151598E+00</totfact>
</mgrwt>
</event>
<event>
 8    2  0.4480234E-052  0.1291995E+04  0.7818608E-02  0.9035937E-01
         -2   -1    0    0    0  501 -0.00000000000E+00  0.00000000000E+00  0.33972829497E+03  0.33972829498E+03  0.25500000000E-02 0. -1.
          2   -1    0    0  501    0  0.00000000000E+00 -0.00000000000E+00 -0.12283724501E+04  0.12283724501E+04  0.25500000000E-02 0.  1.
    -200001    2    1    2    0    0 -0.60868064259E+02  0.98168291630E+01 -0.20907125618E+03  0.65082782148E+03  0.61324120187E+03 0.  0.
   -5000001    2    3    3    0    0 -0.28095868748E+03 -0.13349492990E+03 -0.11612226764E+03  0.35448569287E+03  0.12416539386E+03 0.  0.
     200001    1    1    2    0    0  0.60868064259E+02 -0.98168291630E+01 -0.67957289892E+03  0.91727292358E+03  0.61300000000E+03 0.  1.
         13    1    4    4    0    0 -0.25387523155E+03 -0.76901736060E+02 -0.88193430798E+02  0.27954356119E+03  0.10566000000E+00 0.  1.
    -200003    1    4    4    0    0 -0.27083455929E+02 -0.56593193835E+02 -0.27928836838E+02  0.74942131679E+02  0.30000000000E+02 0.  1.
    -200000    1    3    3    0    0  0.22009062322E+03  0.14331175906E+03 -0.92948988548E+02  0.29634212861E+03  0.10100000000E+03 0. -1.
<mgrwt>
<rscale>  0 0.12919952E+04</rscale>
<asrwt>0</asrwt>
<pdfrwt beam="1">  1        2 0.17548178E+00 0.12919952E+04</pdfrwt>
<pdfrwt beam="2">  1       -2 0.48532614E-01 0.12919952E+04</pdfrwt>
<totfact> 0.81222957E+01</totfact>
</mgrwt>
</event>
<event>
 8    2  0.4480234E-052  0.1751851E+04  0.7818608E-02  0.8732332E-01
          2   -1    0    0  501    0  0.00000000000E+00  0.00000000000E+00  0.45065523439E+03  0.45065523439E+03  0.25500000000E-02 0.  1.
         -2   -1    0    0    0  501 -0.00000000000E+00 -0.00000000000E+00 -0.17025105300E+04  0.17025105300E+04  0.25500000000E-02 0. -1.
    -200001    2    1    2    0    0 -0.97048320954E+02 -0.28610894630E+03 -0.12960353280E+04  0.14683317838E+04  0.62049492344E+03 0.  0.
   -5000001    2    3    3    0    0 -0.60902219038E+02  0.16080985217E+03 -0.59261342487E+03  0.62806615498E+03  0.11707918198E+03 0.  0.
     200001    1    1    2    0    0  0.97048320954E+02  0.28610894630E+03  0.44180032406E+02  0.68483398062E+03  0.61300000000E+03 0.  1.
         13    1    4    4    0    0 -0.13170131980E+02  0.13993150731E+02 -0.25385765226E+03  0.25458393394E+03  0.10566000000E+00 0.  1.
    -200003    1    4    4    0    0 -0.47732087058E+02  0.14681670144E+03 -0.33875577261E+03  0.37348222104E+03  0.30000000000E+02 0.  1.
    -200000    1    3    3    0    0 -0.36146101917E+02 -0.44691879847E+03 -0.70342190315E+03  0.84026562880E+03  0.10100000000E+03 0. -1.
<mgrwt>
<rscale>  0 0.17518508E+04</rscale>
<asrwt>0</asrwt>
<pdfrwt beam="1">  1        2 0.64379320E-01 0.17518508E+04</pdfrwt>
<pdfrwt beam="2">  1       -2 0.24321579E+00 0.17518508E+04</pdfrwt>
<totfact> 0.50819966E+00</totfact>
</mgrwt>
</event>
<event>
 8    2  0.4480234E-052  0.1502064E+04  0.7818608E-02  0.8883082E-01
         -2   -1    0    0    0  501 -0.00000000000E+00  0.00000000000E+00  0.78871569160E+03  0.78871569160E+03  0.25500000000E-02 0. -1.
          2   -1    0    0  501    0  0.00000000000E+00 -0.00000000000E+00 -0.71514845068E+03  0.71514845069E+03  0.25500000000E-02 0.  1.
    -200001    2    1    2    0    0  0.31193801271E+03 -0.21906958883E+03  0.24483300198E+03  0.76197616595E+03  0.61267256352E+03 0.  0.
   -5000001    2    3    3    0    0  0.16869174980E+03 -0.21209204052E+03  0.42499084413E+03  0.51052830633E+03  0.81129488287E+02 0.  0.
     200001    1    1    2    0    0 -0.31193801271E+03  0.21906958883E+03 -0.17126576106E+03  0.74188797634E+03  0.61300000000E+03 0. -1.
         13    1    4    4    0    0  0.14841921385E+03 -0.16952619137E+03  0.36127827610E+03  0.42578092553E+03  0.10566000000E+00 0.  1.
    -200003    1    4    4    0    0  0.20272535947E+02 -0.42565849143E+02  0.63712568027E+02  0.84747380795E+02  0.30000000000E+02 0.  1.
    -200000    1    3    3    0    0  0.14324626292E+03 -0.69775483101E+01 -0.18015784215E+03  0.25144785962E+03  0.10100000000E+03 0.  1.
<mgrwt>
<rscale>  0 0.15020637E+04</rscale>
<asrwt>0</asrwt>
<pdfrwt beam="1">  1        2 0.10216406E+00 0.15020637E+04</pdfrwt>
<pdfrwt beam="2">  1       -2 0.11267367E+00 0.15020637E+04</pdfrwt>
<totfact> 0.26294833E+01</totfact>
</mgrwt>
</event>
<event>
 8    2  0.4480234E-052  0.1751864E+04  0.7818608E-02  0.8732325E-01
          2   -1    0    0  501    0  0.00000000000E+00  0.00000000000E+00  0.59243940378E+03  0.59243940378E+03  0.25500000000E-02 0.  1.
         -2   -1    0    0    0  501 -0.00000000000E+00 -0.00000000000E+00 -0.12950805626E+04  0.12950805626E+04  0.25500000000E-02 0. -1.
    -200001    2    1    2    0    0  0.50173204360E+02 -0.37503263936E+03 -0.88911735904E+03  0.11434035748E+04  0.61128980496E+03 0.  0.
   -5000001    2    3    3    0    0 -0.25457594732E+03 -0.27176138160E+03 -0.50272617152E+03  0.63053307658E+03  0.78582413120E+02 0.  0.
     200001    1    1    2    0    0 -0.50173204360E+02  0.37503263936E+03  0.18647620021E+03  0.74411639161E+03  0.61300000000E+03 0.  1.
         13    1    4    4    0    0 -0.16133733181E+03 -0.19395211518E+03 -0.29620388460E+03  0.38908085283E+03  0.10566000000E+00 0.  1.
    -200003    1    4    4    0    0 -0.93238615504E+02 -0.77809266414E+02 -0.20652228692E+03  0.24145222375E+03  0.30000000000E+02 0.  1.
    -200000    1    3    3    0    0  0.30474915168E+03 -0.10327125776E+03 -0.38639118752E+03  0.51287049819E+03  0.10100000000E+03 0. -1.
<mgrwt>
<rscale>  0 0.17518639E+04</rscale>
<asrwt>0</asrwt>
<pdfrwt beam="1">  1        2 0.84634201E-01 0.17518639E+04</pdfrwt>
<pdfrwt beam="2">  1       -2 0.18501151E+00 0.17518639E+04</pdfrwt>
<totfact> 0.87623042E+00</totfact>
</mgrwt>
</event>
<event>
 8    2  0.4480234E-052  0.1285586E+04  0.7818608E-02  0.9041074E-01
          2   -1    0    0  501    0  0.00000000000E+00  0.00000000000E+00  0.15001549194E+04  0.15001549194E+04  0.25500000000E-02 0.  1.
         -2   -1    0    0    0  501 -0.00000000000E+00 -0.00000000000E+00 -0.27542692651E+03  0.27542692652E+03  0.25500000000E-02 0. -1.
    -200001    2    1    2    0    0 -0.34494589778E+02 -0.76612682561E+02  0.35857226525E+03  0.71113169472E+03  0.60833776636E+03 0.  0.
   -5000001    2    3    3    0    0 -0.25207645264E+02 -0.15377165991E+03 -0.11974626604E+03  0.21612727808E+03  0.89948225810E+02 0.  0.
     200001    1    1    2    0    0  0.34494589778E+02  0.76612682561E+02  0.86615572763E+03  0.10644501512E+04  0.61300000000E+03 0.  1.
         13    1    4    4    0    0 -0.18998120834E+02  0.23114932087E+01 -0.43800539581E+01  0.19633329641E+02  0.10566000000E+00 0.  1.
    -200003    1    4    4    0    0 -0.62095244300E+01 -0.15608315312E+03 -0.11536621208E+03  0.19649394843E+03  0.30000000000E+02 0.  1.
    -200000    1    3    3    0    0 -0.92869445138E+01  0.77158977348E+02  0.47831853129E+03  0.49500441664E+03  0.10100000000E+03 0.  1.
<mgrwt>
<rscale>  0 0.12855863E+04</rscale>
<asrwt>0</asrwt>
<pdfrwt beam="1">  1        2 0.21430785E+00 0.12855863E+04</pdfrwt>
<pdfrwt beam="2">  1       -2 0.39346704E-01 0.12855863E+04</pdfrwt>
<totfact> 0.87571437E+01</totfact>
</mgrwt>
</event>
<event>
 8    2  0.4480234E-052  0.1464522E+04  0.7818608E-02  0.8908394E-01
         -2   -1    0    0    0  501 -0.00000000000E+00  0.00000000000E+00  0.12041569808E+03  0.12041569811E+03  0.25500000000E-02 0. -1.
          2   -1    0    0  501    0  0.00000000000E+00 -0.00000000000E+00 -0.44529572576E+04  0.44529572576E+04  0.25500000000E-02 0.  1.
    -200001    2    1    2    0    0 -0.47800631150E+02  0.33546090855E+03 -0.14973159129E+04  0.16529119666E+04  0.61265333176E+03 0.  0.
   -5000001    2    3    3    0    0  0.97530343171E+02  0.11816362270E+02 -0.10928490296E+04  0.11054986455E+04  0.13474590722E+03 0.  0.
     200001    1    1    2    0    0  0.47800631150E+02 -0.33546090855E+03 -0.28352256466E+04  0.29204609891E+04  0.61300000000E+03 0. -1.
         13    1    4    4    0    0  0.11343128176E+03  0.37320443028E+02 -0.67342271319E+03  0.68392809048E+03  0.10566000000E+00 0.  1.
    -200003    1    4    4    0    0 -0.15900938587E+02 -0.25504080758E+02 -0.41942631643E+03  0.42157055506E+03  0.30000000000E+02 0.  1.
    -200000    1    3    3    0    0 -0.14533097432E+03  0.32364454628E+03 -0.40446688328E+03  0.54741332109E+03  0.10100000000E+03 0. -1.
<mgrwt>
<rscale>  0 0.14645217E+04</rscale>
<asrwt>0</asrwt>
<pdfrwt beam="1">  1        2 0.63613665E+00 0.14645217E+04</pdfrwt>
<pdfrwt beam="2">  1       -2 0.17202245E-01 0.14645217E+04</pdfrwt>
<totfact> 0.73366245E+00</totfact>
</mgrwt>
</event>
<event>
 8    2  0.4480234E-052  0.1502096E+04  0.7818608E-02  0.8883060E-01
          2   -1    0    0  501    0  0.00000000000E+00  0.00000000000E+00  0.12390440033E+04  0.12390440033E+04  0.25500000000E-02 0.  1.
         -2   -1    0    0    0  501 -0.00000000000E+00 -0.00000000000E+00 -0.45524886900E+03  0.45524886900E+03  0.25500000000E-02 0. -1.
    -200001    2    1    2    0    0 -0.95281152638E+02  0.31836172500E+03  0.77466986473E+02  0.70177025877E+03  0.61322726301E+03 0.  0.
   -5000001    2    3    3    0    0 -0.16476878952E+03  0.46134725909E+03 -0.72624370088E+01  0.49524309387E+03  0.72269852366E+02 0.  0.
     200001    1    1    2    0    0  0.95281152638E+02 -0.31836172500E+03  0.70632814787E+03  0.99252261358E+03  0.61300000000E+03 0.  1.
         13    1    4    4    0    0 -0.94872615086E+02  0.29532595852E+03 -0.28008486960E+02  0.31145259892E+03  0.10566000000E+00 0.  1.
    -200003    1    4    4    0    0 -0.69896174432E+02  0.16602130057E+03  0.20746049951E+02  0.18379049494E+03  0.30000000000E+02 0. -1.
    -200000    1    3    3    0    0  0.69487636880E+02 -0.14298553409E+03  0.84729423482E+02  0.20652716490E+03  0.10100000000E+03 0.  1.
<mgrwt>
<rscale>  0 0.15020964E+04</rscale>
<asrwt>0</asrwt>
<pdfrwt beam="1">  1        2 0.17700628E+00 0.15020964E+04</pdfrwt>
<pdfrwt beam="2">  1       -2 0.65035555E-01 0.15020964E+04</pdfrwt>
<totfact> 0.42852051E+01</totfact>
</mgrwt>
</event>
<event>
 8    2  0.4480234E-052  0.1433385E+04  0.7818608E-02  0.8930001E-01
         -2   -1    0    0    0  501 -0.00000000000E+00  0.00000000000E+00  0.96224696995E+03  0.96224696995E+03  0.25500000000E-02 0. -1.
          2   -1    0    0  501    0  0.00000000000E+00 -0.00000000000E+00 -0.53380109780E+03  0.53380109780E+03  0.25500000000E-02 0.  1.
    -200001    2    1    2    0    0  0.31426149963E+03 -0.18939583084E+03  0.15336868369E+03  0.73049759227E+03  0.61275909482E+03 0.  0.
   -5000001    2    3    3    0    0  0.10623041871E+03 -0.70911281725E+02 -0.22445681624E+03  0.27194701992E+03  0.85211545894E+02 0.  0.
     200001    1    1    2    0    0 -0.31426149963E+03  0.18939583084E+03  0.27507718846E+03  0.76555047548E+03  0.61300000000E+03 0.  1.
         13    1    4    4    0    0  0.36757022461E+02 -0.62974399122E+02 -0.77187555626E+02  0.10618278369E+03  0.10566000000E+00 0.  1.
    -200003    1    4    4    0    0  0.69473396254E+02 -0.79368826031E+01 -0.14726926061E+03  0.16576423623E+03  0.30000000000E+02 0. -1.
    -200000    1    3    3    0    0  0.20803108092E+03 -0.11848454912E+03  0.37782549992E+03  0.45855057235E+03  0.10100000000E+03 0. -1.
<mgrwt>
<rscale>  0 0.14333855E+04</rscale>
<asrwt>0</asrwt>
<pdfrwt beam="1">  1        2 0.76257299E-01 0.14333855E+04</pdfrwt>
<pdfrwt beam="2">  1       -2 0.13746385E+00 0.14333855E+04</pdfrwt>
<totfact> 0.22792138E+01</totfact>
</mgrwt>
</event>
<event>
 8    2  0.4480234E-052  0.1265072E+04  0.7818608E-02  0.9057732E-01
         -2   -1    0    0    0  501 -0.00000000000E+00  0.00000000000E+00  0.82362836464E+03  0.82362836465E+03  0.25500000000E-02 0. -1.
          2   -1    0    0  501    0  0.00000000000E+00 -0.00000000000E+00 -0.48577928449E+03  0.48577928450E+03  0.25500000000E-02 0.  1.
    -200001    2    1    2    0    0  0.90573392041E+02  0.59765610022E+02  0.51584437410E+02  0.62421284972E+03  0.61254000692E+03 0.  0.
   -5000001    2    3    3    0    0  0.17775984137E+03 -0.23118151359E+03  0.12679058417E+02  0.30177474062E+03  0.76575336243E+02 0.  0.
     200001    1    1    2    0    0 -0.90573392041E+02 -0.59765610022E+02  0.28626464274E+03  0.68519479943E+03  0.61300000000E+03 0. -1.
         13    1    4    4    0    0  0.10892763696E+03 -0.18002818876E+03  0.33648836611E+01  0.21044408390E+03  0.10566000000E+00 0.  1.
    -200003    1    4    4    0    0  0.68832204404E+02 -0.51153324834E+02  0.93141747560E+01  0.91330656715E+02  0.30000000000E+02 0.  1.
    -200000    1    3    3    0    0 -0.87186449326E+02  0.29094712362E+03  0.38905378993E+02  0.32243810910E+03  0.10100000000E+03 0. -1.
<mgrwt>
<rscale>  0 0.12650717E+04</rscale>
<asrwt>0</asrwt>
<pdfrwt beam="1">  1        2 0.69397041E-01 0.12650717E+04</pdfrwt>
<pdfrwt beam="2">  1       -2 0.11766119E+00 0.12650717E+04</pdfrwt>
<totfact> 0.38055866E+01</totfact>
</mgrwt>
</event>
<event>
 8    2  0.4480234E-052  0.1259711E+04  0.7818608E-02  0.9062139E-01
         -2   -1    0    0    0  501 -0.00000000000E+00  0.00000000000E+00  0.14469369005E+03  0.14469369007E+03  0.25500000000E-02 0. -1.
          2   -1    0    0  501    0  0.00000000000E+00 -0.00000000000E+00 -0.27417774496E+04  0.27417774496E+04  0.25500000000E-02 0.  1.
    -200001    2    1    2    0    0 -0.12622346195E+03 -0.27689086169E+02 -0.11505812730E+04  0.13101344080E+04  0.61311977096E+03 0.  0.
   -5000001    2    3    3    0    0 -0.30520342288E+03  0.71562607883E+02 -0.66212820923E+03  0.77099424011E+03  0.24030817015E+03 0.  0.
     200001    1    1    2    0    0  0.12622346195E+03  0.27689086169E+02 -0.14465024866E+04  0.15763367316E+04  0.61300000000E+03 0. -1.
         13    1    4    4    0    0 -0.58952747902E+02 -0.80238719803E+02 -0.12133543058E+03  0.15695851846E+03  0.10566000000E+00 0.  1.
    -200003    1    4    4    0    0 -0.24625067498E+03  0.15180132769E+03 -0.54079277865E+03  0.61403572165E+03  0.30000000000E+02 0.  1.
    -200000    1    3    3    0    0  0.17897996093E+03 -0.99251694052E+02 -0.48845306375E+03  0.53914016792E+03  0.10100000000E+03 0. -1.
<mgrwt>
<rscale>  0 0.12597109E+04</rscale>
<asrwt>0</asrwt>
<pdfrwt beam="1">  1        2 0.39168246E+00 0.12597109E+04</pdfrwt>
<pdfrwt beam="2">  1       -2 0.20670529E-01 0.12597109E+04</pdfrwt>
<totfact> 0.65312219E+01</totfact>
</mgrwt>
</event>
<event>
 8    2  0.4480234E-052  0.1561997E+04  0.7818608E-02  0.8844241E-01
          2   -1    0    0  501    0  0.00000000000E+00  0.00000000000E+00  0.10614246680E+04  0.10614246680E+04  0.25500000000E-02 0.  1.
         -2   -1    0    0    0  501 -0.00000000000E+00 -0.00000000000E+00 -0.57466025351E+03  0.57466025352E+03  0.25500000000E-02 0. -1.
    -200001    2    1    2    0    0  0.33055243335E+03  0.29830697147E+03  0.44107050699E+03  0.87706654648E+03  0.61355568158E+03 0.  0.
   -5000001    2    3    3    0    0  0.38925185569E+03  0.26229403802E+03  0.14174740058E+03  0.55374337133E+03  0.25734068115E+03 0.  0.
     200001    1    1    2    0    0 -0.33055243335E+03 -0.29830697147E+03  0.45693907464E+02  0.75901837501E+03  0.61300000000E+03 0. -1.
         13    1    4    4    0    0  0.19062689990E+03  0.21736604509E+03  0.18522875119E+03  0.34336032670E+03  0.10566000000E+00 0.  1.
    -200003    1    4    4    0    0  0.19862495580E+03  0.44927992934E+02 -0.43481350612E+02  0.21038304462E+03  0.30000000000E+02 0.  1.
    -200000    1    3    3    0    0 -0.58699422344E+02  0.36012933447E+02  0.29932310641E+03  0.32332317515E+03  0.10100000000E+03 0.  1.
<mgrwt>
<rscale>  0 0.15619969E+04</rscale>
<asrwt>0</asrwt>
<pdfrwt beam="1">  1        2 0.15163209E+00 0.15619969E+04</pdfrwt>
<pdfrwt beam="2">  1       -2 0.82094323E-01 0.15619969E+04</pdfrwt>
<totfact> 0.32380783E+01</totfact>
</mgrwt>
</event>
<event>
 8    2  0.4480234E-052  0.1298126E+04  0.7818608E-02  0.9031053E-01
          2   -1    0    0  501    0  0.00000000000E+00  0.00000000000E+00  0.10602965190E+04  0.10602965190E+04  0.25500000000E-02 0.  1.
         -2   -1    0    0    0  501 -0.00000000000E+00 -0.00000000000E+00 -0.39732531780E+03  0.39732531781E+03  0.25500000000E-02 0. -1.
    -200001    2    1    2    0    0 -0.21350742095E+02  0.14583039572E+03  0.50633538240E+03  0.80798644815E+03  0.61216355854E+03 0.  0.
   -5000001    2    3    3    0    0 -0.19448942212E+02 -0.91675162656E+02 -0.44128239993E+02  0.20001958500E+03  0.17110796596E+03 0.  0.
     200001    1    1    2    0    0  0.21350742095E+02 -0.14583039572E+03  0.15663581883E+03  0.64963538869E+03  0.61300000000E+03 0. -1.
         13    1    4    4    0    0 -0.78938342712E+02 -0.10046855788E+03 -0.25611551537E+02  0.13031176389E+03  0.10566000000E+00 0.  1.
    -200003    1    4    4    0    0  0.59489400500E+02  0.87933952263E+01 -0.18516688457E+02  0.69707821103E+02  0.30000000000E+02 0.  1.
    -200000    1    3    3    0    0 -0.19017998828E+01  0.23750555838E+03  0.55046362240E+03  0.60796686315E+03  0.10100000000E+03 0.  1.
<mgrwt>
<rscale>  0 0.12981258E+04</rscale>
<asrwt>0</asrwt>
<pdfrwt beam="1">  1        2 0.15147093E+00 0.12981258E+04</pdfrwt>
<pdfrwt beam="2">  1       -2 0.56760760E-01 0.12981258E+04</pdfrwt>
<totfact> 0.73687653E+01</totfact>
</mgrwt>
</event>
<event>
 8    2  0.4480234E-052  0.1246284E+04  0.7818608E-02  0.9073282E-01
          2   -1    0    0  501    0  0.00000000000E+00  0.00000000000E+00  0.13254654491E+04  0.13254654491E+04  0.25500000000E-02 0.  1.
         -2   -1    0    0    0  501 -0.00000000000E+00 -0.00000000000E+00 -0.29295824192E+03  0.29295824193E+03  0.25500000000E-02 0. -1.
    -200001    2    1    2    0    0  0.67020027787E+02  0.53883183942E+01  0.63370967433E+03  0.88403333821E+03  0.61270406693E+03 0.  0.
   -5000001    2    3    3    0    0 -0.19760281913E+03  0.69401806182E+02  0.52963768891E+03  0.57556136886E+03  0.83013992661E+02 0.  0.
     200001    1    1    2    0    0 -0.67020027787E+02 -0.53883183942E+01  0.39879753285E+03  0.73439035282E+03  0.61300000000E+03 0.  1.
         13    1    4    4    0    0 -0.17732523806E+03  0.59479516711E+02  0.45704549066E+03  0.49383463291E+03  0.10566000000E+00 0.  1.
    -200003    1    4    4    0    0 -0.20277581069E+02  0.99222894705E+01  0.72592198251E+02  0.81726735951E+02  0.30000000000E+02 0. -1.
    -200000    1    3    3    0    0  0.26462284692E+03 -0.64013487788E+02  0.10407198542E+03  0.30847196935E+03  0.10100000000E+03 0. -1.
<mgrwt>
<rscale>  0 0.12462841E+04</rscale>
<asrwt>0</asrwt>
<pdfrwt beam="1">  1        2 0.18935221E+00 0.12462841E+04</pdfrwt>
<pdfrwt beam="2">  1       -2 0.41851177E-01 0.12462841E+04</pdfrwt>
<totfact> 0.96694233E+01</totfact>
</mgrwt>
</event>
<event>
 8    2  0.4480234E-052  0.1607374E+04  0.7818608E-02  0.8816031E-01
         -2   -1    0    0    0  501 -0.00000000000E+00  0.00000000000E+00  0.48653518749E+03  0.48653518750E+03  0.25500000000E-02 0. -1.
          2   -1    0    0  501    0  0.00000000000E+00 -0.00000000000E+00 -0.13275770257E+04  0.13275770257E+04  0.25500000000E-02 0.  1.
    -200001    2    1    2    0    0 -0.37086180409E+03  0.64240269521E+02 -0.82554736996E+03  0.10946163005E+04  0.61236516494E+03 0.  0.
   -5000001    2    3    3    0    0 -0.24537729404E+03  0.11867191068E+03 -0.87346681684E+03  0.91796285665E+03  0.73610374577E+02 0.  0.
     200001    1    1    2    0    0  0.37086180409E+03 -0.64240269521E+02 -0.15494468299E+02  0.71949591278E+03  0.61300000000E+03 0. -1.
         13    1    4    4    0    0 -0.10378733707E+03  0.65826995150E+02 -0.30102917103E+03  0.32515162247E+03  0.10566000000E+00 0.  1.
    -200003    1    4    4    0    0 -0.14158995698E+03  0.52844915526E+02 -0.57243764581E+03  0.59281123417E+03  0.30000000000E+02 0.  1.
    -200000    1    3    3    0    0 -0.12548451005E+03 -0.54431641155E+02  0.47919446884E+02  0.17665344381E+03  0.10100000000E+03 0. -1.
<mgrwt>
<rscale>  0 0.16073742E+04</rscale>
<asrwt>0</asrwt>
<pdfrwt beam="1">  1        2 0.18965386E+00 0.16073742E+04</pdfrwt>
<pdfrwt beam="2">  1       -2 0.69505027E-01 0.16073742E+04</pdfrwt>
<totfact> 0.32868370E+01</totfact>
</mgrwt>
</event>
<event>
 8    2  0.4480234E-052  0.1483883E+04  0.7818608E-02  0.8895242E-01
          2   -1    0    0  501    0  0.00000000000E+00  0.00000000000E+00  0.22486120334E+04  0.22486120334E+04  0.25500000000E-02 0.  1.
         -2   -1    0    0    0  501 -0.00000000000E+00 -0.00000000000E+00 -0.24480760748E+03  0.24480760749E+03  0.25500000000E-02 0. -1.
    -200001    2    1    2    0    0 -0.22875038902E+03  0.10124954332E+03  0.15666404584E+04  0.17000347753E+04  0.61088272252E+03 0.  0.
   -5000001    2    3    3    0    0 -0.24392787487E+03 -0.20513468549E+03  0.74909476219E+03  0.82101053376E+03  0.10646260599E+03 0.  0.
     200001    1    1    2    0    0  0.22875038902E+03 -0.10124954332E+03  0.43716396747E+03  0.79338486559E+03  0.61300000000E+03 0. -1.
         13    1    4    4    0    0 -0.19805939549E+03 -0.11560767393E+03  0.47384220233E+03  0.52642103139E+03  0.10566000000E+00 0.  1.
    -200003    1    4    4    0    0 -0.45868479381E+02 -0.89527011557E+02  0.27525255986E+03  0.29458950237E+03  0.30000000000E+02 0.  1.
    -200000    1    3    3    0    0  0.15177485849E+02  0.30638422881E+03  0.81754569622E+03  0.87902424150E+03  0.10100000000E+03 0.  1.
<mgrwt>
<rscale>  0 0.14838832E+04</rscale>
<asrwt>0</asrwt>
<pdfrwt beam="1">  1        2 0.32123030E+00 0.14838832E+04</pdfrwt>
<pdfrwt beam="2">  1       -2 0.34972515E-01 0.14838832E+04</pdfrwt>
<totfact> 0.44379081E+01</totfact>
</mgrwt>
</event>
<event>
 8    2  0.4480234E-052  0.1533616E+04  0.7818608E-02  0.8862401E-01
          2   -1    0    0  501    0  0.00000000000E+00  0.00000000000E+00  0.33485119980E+04  0.33485119980E+04  0.25500000000E-02 0.  1.
         -2   -1    0    0    0  501 -0.00000000000E+00 -0.00000000000E+00 -0.17559883056E+03  0.17559883058E+03  0.25500000000E-02 0. -1.
    -200001    2    1    2    0    0  0.35089058088E+03 -0.47813345201E+02  0.90842457364E+03  0.11515409335E+04  0.61269976314E+03 0.  0.
   -5000001    2    3    3    0    0  0.47001245327E+02 -0.51878967119E+02  0.81218383907E+03  0.81713319353E+03  0.56245206306E+02 0.  0.
     200001    1    1    2    0    0 -0.35089058088E+03  0.47813345201E+02  0.22644885938E+04  0.23725698951E+04  0.61300000000E+03 0.  1.
         13    1    4    4    0    0 -0.30207817136E+00 -0.11044249768E+02  0.30895943652E+03  0.30915693633E+03  0.10566000000E+00 0.  1.
    -200003    1    4    4    0    0  0.47303323498E+02 -0.40834717350E+02  0.50322440255E+03  0.50797625720E+03  0.30000000000E+02 0.  1.
    -200000    1    3    3    0    0  0.30388933555E+03  0.40656219177E+01  0.96240734569E+02  0.33440773995E+03  0.10100000000E+03 0. -1.
<mgrwt>
<rscale>  0 0.15336164E+04</rscale>
<asrwt>0</asrwt>
<pdfrwt beam="1">  1        2 0.47835878E+00 0.15336164E+04</pdfrwt>
<pdfrwt beam="2">  1       -2 0.25085551E-01 0.15336164E+04</pdfrwt>
<totfact> 0.20586289E+01</totfact>
</mgrwt>
</event>
<event>
 8    2  0.4480234E-052  0.1308919E+04  0.7818608E-02  0.9022522E-01
          2   -1    0    0  501    0  0.00000000000E+00  0.00000000000E+00  0.54476934837E+03  0.54476934838E+03  0.25500000000E-02 0.  1.
         -2   -1    0    0    0  501 -0.00000000000E+00 -0.00000000000E+00 -0.78623563511E+03  0.78623563512E+03  0.25500000000E-02 0. -1.
    -200001    2    1    2    0    0  0.40228520642E+02 -0.21959773409E+03 -0.65183322847E+02  0.65521937989E+03  0.61255372949E+03 0.  0.
   -5000001    2    3    3    0    0  0.21722586042E+03 -0.34838907742E+02 -0.23419244403E+03  0.33237426958E+03  0.85004295843E+02 0.  0.
     200001    1    1    2    0    0 -0.40228520642E+02  0.21959773409E+03 -0.17628296389E+03  0.67578560361E+03  0.61300000000E+03 0. -1.
         13    1    4    4    0    0 -0.53173488764E+01  0.49001820523E+01 -0.11812196464E+02  0.13850095038E+02  0.10566000000E+00 0.  1.
    -200003    1    4    4    0    0  0.22254320930E+03 -0.39739089794E+02 -0.22238024756E+03  0.31852417455E+03  0.30000000000E+02 0.  1.
    -200000    1    3    3    0    0 -0.17699733978E+03 -0.18475882635E+03  0.16900912118E+03  0.32284511030E+03  0.10100000000E+03 0.  1.
<mgrwt>
<rscale>  0 0.13089188E+04</rscale>
<asrwt>0</asrwt>
<pdfrwt beam="1">  1        2 0.77824193E-01 0.13089188E+04</pdfrwt>
<pdfrwt beam="2">  1       -2 0.11231938E+00 0.13089188E+04</pdfrwt>
<totfact> 0.37245605E+01</totfact>
</mgrwt>
</event>
<event>
 8    2  0.4480234E-052  0.1327568E+04  0.7818608E-02  0.9007984E-01
          2   -1    0    0  501    0  0.00000000000E+00  0.00000000000E+00  0.17298756156E+04  0.17298756156E+04  0.25500000000E-02 0.  1.
         -2   -1    0    0    0  501 -0.00000000000E+00 -0.00000000000E+00 -0.25470587619E+03  0.25470587621E+03  0.25500000000E-02 0. -1.
    -200001    2    1    2    0    0  0.32556210287E+02 -0.25314526146E+03  0.73197004604E+03  0.98795858698E+03  0.61248640071E+03 0.  0.
   -5000001    2    3    3    0    0  0.27372034661E+03 -0.12479388644E+03  0.58560421433E+03  0.66198593044E+03  0.69258458016E+02 0.  0.
     200001    1    1    2    0    0 -0.32556210287E+02  0.25314526146E+03  0.74319969340E+03  0.99662290487E+03  0.61300000000E+03 0. -1.
         13    1    4    4    0    0  0.18134597200E+03 -0.85905270893E+02  0.42953216169E+03  0.47409278229E+03  0.10566000000E+00 0.  1.
    -200003    1    4    4    0    0  0.92374374617E+02 -0.38888615543E+02  0.15607205265E+03  0.18789314815E+03  0.30000000000E+02 0.  1.
    -200000    1    3    3    0    0 -0.24116413633E+03 -0.12835137503E+03  0.14636583170E+03  0.32597265654E+03  0.10100000000E+03 0.  1.
<mgrwt>
<rscale>  0 0.13275684E+04</rscale>
<asrwt>0</asrwt>
<pdfrwt beam="1">  1        2 0.24712510E+00 0.13275684E+04</pdfrwt>
<pdfrwt beam="2">  1       -2 0.36386552E-01 0.13275684E+04</pdfrwt>
<totfact> 0.76987491E+01</totfact>
</mgrwt>
</event>
<event>
 8    2  0.4480234E-052  0.1691296E+04  0.7818608E-02  0.8766344E-01
         -2   -1    0    0    0  501 -0.00000000000E+00  0.00000000000E+00  0.19949970949E+03  0.19949970951E+03  0.25500000000E-02 0. -1.
          2   -1    0    0  501    0  0.00000000000E+00 -0.00000000000E+00 -0.35845691946E+04  0.35845691946E+04  0.25500000000E-02 0.  1.
    -200001    2    1    2    0    0  0.35543041370E+02  0.41614973688E+03 -0.78477008818E+03  0.10800404529E+04  0.61333463729E+03 0.  0.
   -5000001    2    3    3    0    0  0.81496670294E+02 -0.29250091004E+02 -0.55583878201E+03  0.56710450599E+03  0.71787840435E+02 0.  0.
     200001    1    1    2    0    0 -0.35543041370E+02 -0.41614973688E+03 -0.26002993970E+04  0.27040284512E+04  0.61300000000E+03 0.  1.
         13    1    4    4    0    0  0.61585719282E+02 -0.35658405567E+02 -0.43728913087E+03  0.44304189175E+03  0.10566000000E+00 0.  1.
    -200003    1    4    4    0    0  0.19910951012E+02  0.64083145631E+01 -0.11854965114E+03  0.12406261424E+03  0.30000000000E+02 0.  1.
    -200000    1    3    3    0    0 -0.45953628924E+02  0.44539982788E+03 -0.22893130617E+03  0.51293594691E+03  0.10100000000E+03 0. -1.
<mgrwt>
<rscale>  0 0.16912960E+04</rscale>
<asrwt>0</asrwt>
<pdfrwt beam="1">  1        2 0.51208127E+00 0.16912960E+04</pdfrwt>
<pdfrwt beam="2">  1       -2 0.28499961E-01 0.16912960E+04</pdfrwt>
<totfact> 0.11562659E+01</totfact>
</mgrwt>
</event>
<event>
 8    2  0.4480234E-052  0.1562043E+04  0.7818608E-02  0.8844212E-01
          2   -1    0    0  501    0  0.00000000000E+00  0.00000000000E+00  0.78309802585E+03  0.78309802585E+03  0.25500000000E-02 0.  1.
         -2   -1    0    0    0  501 -0.00000000000E+00 -0.00000000000E+00 -0.77895036165E+03  0.77895036165E+03  0.25500000000E-02 0. -1.
    -200001    2    1    2    0    0  0.17170391511E+03 -0.44233392530E+03 -0.93242603182E+02  0.78077033193E+03  0.61299803608E+03 0.  0.
   -5000001    2    3    3    0    0  0.11353720243E+03 -0.19918573361E+03 -0.32733544394E+03  0.42369209446E+03  0.14071547619E+03 0.  0.
     200001    1    1    2    0    0 -0.17170391511E+03  0.44233392530E+03  0.97390267381E+02  0.78127805557E+03  0.61300000000E+03 0.  1.
         13    1    4    4    0    0  0.22259044495E+02  0.18763529651E+02 -0.22268907876E+02  0.36653110766E+02  0.10566000000E+00 0.  1.
    -200003    1    4    4    0    0  0.91278157938E+02 -0.21794926327E+03 -0.30506653606E+03  0.38703898369E+03  0.30000000000E+02 0.  1.
    -200000    1    3    3    0    0  0.58166712673E+02 -0.24314819169E+03  0.23409284075E+03  0.35707823747E+03  0.10100000000E+03 0.  1.
<mgrwt>
<rscale>  0 0.15620429E+04</rscale>
<asrwt>0</asrwt>
<pdfrwt beam="1">  1        2 0.11187115E+00 0.15620429E+04</pdfrwt>
<pdfrwt beam="2">  1       -2 0.11127862E+00 0.15620429E+04</pdfrwt>
<totfact> 0.24060444E+01</totfact>
</mgrwt>
</event>
<event>
 8    2  0.4480234E-052  0.1714239E+04  0.7818608E-02  0.8753285E-01
         -2   -1    0    0    0  501 -0.00000000000E+00  0.00000000000E+00  0.23886380663E+03  0.23886380664E+03  0.25500000000E-02 0. -1.
          2   -1    0    0  501    0  0.00000000000E+00 -0.00000000000E+00 -0.30756195921E+04  0.30756195921E+04  0.25500000000E-02 0.  1.
    -200001    2    1    2    0    0 -0.15652169851E+03 -0.88293515698E+02 -0.25236972694E+04  0.26030978341E+04  0.61218921892E+03 0.  0.
   -5000001    2    3    3    0    0 -0.26513309412E+03 -0.15341546074E+03 -0.94852582278E+03  0.10196195776E+04  0.21468811162E+03 0.  0.
     200001    1    1    2    0    0  0.15652169851E+03  0.88293515698E+02 -0.31305851615E+03  0.71138556462E+03  0.61300000000E+03 0. -1.
         13    1    4    4    0    0  0.23943134425E+02  0.23514291682E+02 -0.96458118774E+02  0.10212920954E+03  0.10566000000E+00 0.  1.
    -200003    1    4    4    0    0 -0.28907622854E+03 -0.17692975242E+03 -0.85206770401E+03  0.91749036802E+03  0.30000000000E+02 0.  1.
    -200000    1    3    3    0    0  0.10861139560E+03  0.65121945040E+02 -0.15751714466E+04  0.15834782566E+04  0.10100000000E+03 0. -1.
<mgrwt>
<rscale>  0 0.17142394E+04</rscale>
<asrwt>0</asrwt>
<pdfrwt beam="1">  1        2 0.43937420E+00 0.17142394E+04</pdfrwt>
<pdfrwt beam="2">  1       -2 0.34123403E-01 0.17142394E+04</pdfrwt>
<totfact> 0.16432637E+01</totfact>
</mgrwt>
</event>
<event>
 8    2  0.4480234E-052  0.1601887E+04  0.7818608E-02  0.8819389E-01
          2   -1    0    0  501    0  0.00000000000E+00  0.00000000000E+00  0.14575620499E+04  0.14575620499E+04  0.25500000000E-02 0. -1.
         -2   -1    0    0    0  501 -0.00000000000E+00 -0.00000000000E+00 -0.44012589726E+03  0.44012589726E+03  0.25500000000E-02 0.  1.
    -200001    2    1    2    0    0  0.17606206769E+03  0.46795377926E+03  0.36118086700E+03  0.86986569056E+03  0.61338088470E+03 0.  0.
   -5000001    2    3    3    0    0 -0.68780225473E+02 -0.81695749475E+02  0.20016385516E+03  0.23884284544E+03  0.74668741816E+02 0.  0.
     200001    1    1    2    0    0 -0.17606206769E+03 -0.46795377926E+03  0.65625528560E+03  0.10278222566E+04  0.61300000000E+03 0. -1.
         13    1    4    4    0    0 -0.27791971561E+02 -0.47853675675E+02  0.42495136165E+02  0.69772600070E+02  0.10566000000E+00 0.  1.
    -200003    1    4    4    0    0 -0.40988253912E+02 -0.33842073800E+02  0.15766871900E+03  0.16907024537E+03  0.30000000000E+02 0.  1.
    -200000    1    3    3    0    0  0.24484229317E+03  0.54964952874E+03  0.16101701183E+03  0.63102284512E+03  0.10100000000E+03 0.  1.
<mgrwt>
<rscale>  0 0.16018874E+04</rscale>
<asrwt>0</asrwt>
<pdfrwt beam="1">  1        2 0.20822315E+00 0.16018874E+04</pdfrwt>
<pdfrwt beam="2">  1       -2 0.62875130E-01 0.16018874E+04</pdfrwt>
<totfact> 0.34694082E+01</totfact>
</mgrwt>
</event>
<event>
 8    2  0.4480234E-052  0.1696812E+04  0.7818608E-02  0.8763185E-01
         -2   -1    0    0    0  501 -0.00000000000E+00  0.00000000000E+00  0.35868398786E+03  0.35868398787E+03  0.25500000000E-02 0. -1.
          2   -1    0    0  501    0  0.00000000000E+00 -0.00000000000E+00 -0.20067606542E+04  0.20067606542E+04  0.25500000000E-02 0.  1.
    -200001    2    1    2    0    0  0.14545059466E+03 -0.11926356225E+03 -0.49449525167E+02  0.64301687601E+03  0.61289948159E+03 0.  0.
   -5000001    2    3    3    0    0  0.57083497922E+02  0.18775509565E+03 -0.18558438531E+03  0.28135004006E+03  0.78776768747E+02 0.  0.
     200001    1    1    2    0    0 -0.14545059466E+03  0.11926356225E+03 -0.15986271412E+04  0.17224277660E+04  0.61300000000E+03 0.  1.
         13    1    4    4    0    0  0.66061670509E+01  0.12532879675E+03 -0.10343380559E+03  0.16263305949E+03  0.10566000000E+00 0.  1.
    -200003    1    4    4    0    0  0.50477330871E+02  0.62426298896E+02 -0.82150579725E+02  0.11871698057E+03  0.30000000000E+02 0.  1.
    -200000    1    3    3    0    0  0.88367096740E+02 -0.30701865790E+03  0.13613486014E+03  0.36166683595E+03  0.10100000000E+03 0. -1.
<mgrwt>
<rscale>  0 0.16968122E+04</rscale>
<asrwt>0</asrwt>
<pdfrwt beam="1">  1        2 0.28668009E+00 0.16968122E+04</pdfrwt>
<pdfrwt beam="2">  1       -2 0.51240571E-01 0.16968122E+04</pdfrwt>
<totfact> 0.27325466E+01</totfact>
</mgrwt>
</event>
<event>
 8    2  0.4480234E-052  0.1379795E+04  0.7818608E-02  0.8968575E-01
          2   -1    0    0  501    0  0.00000000000E+00  0.00000000000E+00  0.17418415624E+04  0.17418415625E+04  0.25500000000E-02 0.  1.
         -2   -1    0    0    0  501 -0.00000000000E+00 -0.00000000000E+00 -0.27325038731E+03  0.27325038732E+03  0.25500000000E-02 0. -1.
    -200001    2    1    2    0    0  0.28039856672E+03  0.27217970297E+02  0.94508494370E+03  0.11611645826E+04  0.61298732684E+03 0.  0.
   -5000001    2    3    3    0    0  0.20206292551E+03 -0.27307268844E+03  0.50332771394E+03  0.61192747306E+03  0.75619611429E+02 0.  0.
     200001    1    1    2    0    0 -0.28039856672E+03 -0.27217970297E+02  0.52350623144E+03  0.85392736722E+03  0.61300000000E+03 0.  1.
         13    1    4    4    0    0  0.89603524755E+02 -0.11046858006E+03  0.15571164844E+03  0.21089861890E+03  0.10566000000E+00 0.  1.
    -200003    1    4    4    0    0  0.11245940075E+03 -0.16260410838E+03  0.34761606550E+03  0.40102885416E+03  0.30000000000E+02 0.  1.
    -200000    1    3    3    0    0  0.78335641208E+02  0.30029065873E+03  0.44175722976E+03  0.54923710950E+03  0.10100000000E+03 0. -1.
<mgrwt>
<rscale>  0 0.13797955E+04</rscale>
<asrwt>0</asrwt>
<pdfrwt beam="1">  1        2 0.24883450E+00 0.13797955E+04</pdfrwt>
<pdfrwt beam="2">  1       -2 0.39035771E-01 0.13797955E+04</pdfrwt>
<totfact> 0.65998406E+01</totfact>
</mgrwt>
</event>
<event>
 8    2  0.4480234E-052  0.2389121E+04  0.7818608E-02  0.8443588E-01
          2   -1    0    0  501    0  0.00000000000E+00  0.00000000000E+00  0.11693658796E+04  0.11693658796E+04  0.25500000000E-02 0.  1.
         -2   -1    0    0    0  501 -0.00000000000E+00 -0.00000000000E+00 -0.12202978102E+04  0.12202978102E+04  0.25500000000E-02 0. -1.
    -200001    2    1    2    0    0  0.54534196374E+03 -0.56959130931E+03  0.62980016988E+03  0.11809464733E+04  0.61331411338E+03 0.  0.
   -5000001    2    3    3    0    0  0.29775278847E+03 -0.83869932759E+02 -0.28772926874E+02  0.32004858203E+03  0.76891643731E+02 0.  0.
     200001    1    1    2    0    0 -0.54534196374E+03  0.56959130931E+03 -0.68073210044E+03  0.12087172166E+04  0.61300000000E+03 0. -1.
         13    1    4    4    0    0  0.49256303508E+02 -0.41150617071E+01 -0.29080910609E+02  0.57348301579E+02  0.10566000000E+00 0.  1.
    -200003    1    4    4    0    0  0.24849648497E+03 -0.79754871052E+02  0.30798373465E+00  0.26270028045E+03  0.30000000000E+02 0.  1.
    -200000    1    3    3    0    0  0.24758917526E+03 -0.48572137655E+03  0.65857309676E+03  0.86089789123E+03  0.10100000000E+03 0.  1.
<mgrwt>
<rscale>  0 0.23891209E+04</rscale>
<asrwt>0</asrwt>
<pdfrwt beam="1">  1        2 0.16705227E+00 0.23891209E+04</pdfrwt>
<pdfrwt beam="2">  1       -2 0.17432826E+00 0.23891209E+04</pdfrwt>
<totfact> 0.39994847E+00</totfact>
</mgrwt>
</event>
<event>
 8    2  0.4480234E-052  0.1512780E+04  0.7818608E-02  0.8875999E-01
          2   -1    0    0  501    0  0.00000000000E+00  0.00000000000E+00  0.64397729693E+03  0.64397729694E+03  0.25500000000E-02 0.  1.
         -2   -1    0    0    0  501 -0.00000000000E+00 -0.00000000000E+00 -0.88842503612E+03  0.88842503613E+03  0.25500000000E-02 0. -1.
    -200001    2    1    2    0    0 -0.42063639043E+03  0.13710013086E+03 -0.14132606186E+03  0.76942494207E+03  0.61344133125E+03 0.  0.
   -5000001    2    3    3    0    0 -0.54339939887E+03  0.12823000278E+03 -0.20378672524E+03  0.59839345409E+03  0.69425184229E+02 0.  0.
     200001    1    1    2    0    0  0.42063639043E+03 -0.13710013086E+03 -0.10312167733E+03  0.76297739100E+03  0.61300000000E+03 0. -1.
         13    1    4    4    0    0 -0.32651036791E+03  0.10213882216E+03 -0.12238103192E+03  0.36334348417E+03  0.10566000000E+00 0.  1.
    -200003    1    4    4    0    0 -0.21688903095E+03  0.26091180618E+02 -0.81405693318E+02  0.23504996992E+03  0.30000000000E+02 0. -1.
    -200000    1    3    3    0    0  0.12276300843E+03  0.88701280814E+01  0.62460663383E+02  0.17103148799E+03  0.10100000000E+03 0.  1.
<mgrwt>
<rscale>  0 0.15127796E+04</rscale>
<asrwt>0</asrwt>
<pdfrwt beam="1">  1        2 0.91996757E-01 0.15127796E+04</pdfrwt>
<pdfrwt beam="2">  1       -2 0.12691786E+00 0.15127796E+04</pdfrwt>
<totfact> 0.22243815E+01</totfact>
</mgrwt>
</event>
<event>
 8    2  0.4480234E-052  0.1381157E+04  0.7818608E-02  0.8967572E-01
          2   -1    0    0  501    0  0.00000000000E+00  0.00000000000E+00  0.55404382522E+03  0.55404382522E+03  0.25500000000E-02 0.  1.
         -2   -1    0    0    0  501 -0.00000000000E+00 -0.00000000000E+00 -0.86075972597E+03  0.86075972598E+03  0.25500000000E-02 0. -1.
    -200001    2    1    2    0    0 -0.66114883242E+01 -0.12149091483E+03 -0.45502906858E+03  0.77248778001E+03  0.61227621450E+03 0.  0.
   -5000001    2    3    3    0    0 -0.18992286397E+03 -0.23078769277E+03 -0.68766624799E+02  0.31977537507E+03  0.90519547206E+02 0.  0.
     200001    1    1    2    0    0  0.66114883242E+01  0.12149091483E+03  0.14831316783E+03  0.64231577119E+03  0.61300000000E+03 0.  1.
         13    1    4    4    0    0 -0.41523367149E+02 -0.26353867460E+02  0.15862233755E+02  0.51675312995E+02  0.10566000000E+00 0.  1.
    -200003    1    4    4    0    0 -0.14839949682E+03 -0.20443382531E+03 -0.84628858553E+02  0.26810006208E+03  0.30000000000E+02 0.  1.
    -200000    1    3    3    0    0  0.18331137564E+03  0.10929677794E+03 -0.38626244378E+03  0.45271240494E+03  0.10100000000E+03 0. -1.
<mgrwt>
<rscale>  0 0.13811569E+04</rscale>
<asrwt>0</asrwt>
<pdfrwt beam="1">  1        2 0.79149118E-01 0.13811569E+04</pdfrwt>
<pdfrwt beam="2">  1       -2 0.12296568E+00 0.13811569E+04</pdfrwt>
<totfact> 0.29065830E+01</totfact>
</mgrwt>
</event>
<event>
 8    2  0.4480234E-052  0.1402664E+04  0.7818608E-02  0.8951892E-01
          2   -1    0    0  501    0  0.00000000000E+00  0.00000000000E+00  0.29243667818E+03  0.29243667820E+03  0.25500000000E-02 0.  1.
         -2   -1    0    0    0  501 -0.00000000000E+00 -0.00000000000E+00 -0.16819601314E+04  0.16819601314E+04  0.25500000000E-02 0. -1.
    -200001    2    1    2    0    0  0.25469079334E+03 -0.22357844533E+03 -0.65190022370E+03  0.95718898906E+03  0.61349990847E+03 0.  0.
   -5000001    2    3    3    0    0  0.44072643792E+03 -0.19433967805E+03 -0.43965632845E+03  0.65600360158E+03  0.70960091524E+02 0.  0.
     200001    1    1    2    0    0 -0.25469079334E+03  0.22357844533E+03 -0.73762322951E+03  0.10172078205E+04  0.61300000000E+03 0. -1.
         13    1    4    4    0    0  0.45981100297E+02 -0.43164133138E+02 -0.54244307636E+02  0.83185696180E+02  0.10566000000E+00 0.  1.
    -200003    1    4    4    0    0  0.39474533762E+03 -0.15117554491E+03 -0.38541202082E+03  0.57281790540E+03  0.30000000000E+02 0.  1.
    -200000    1    3    3    0    0 -0.18603564458E+03 -0.29238767277E+02 -0.21224389525E+03  0.30118538748E+03  0.10100000000E+03 0. -1.
<mgrwt>
<rscale>  0 0.14026644E+04</rscale>
<asrwt>0</asrwt>
<pdfrwt beam="1">  1        2 0.41776669E-01 0.14026644E+04</pdfrwt>
<pdfrwt beam="2">  1       -2 0.24028001E+00 0.14026644E+04</pdfrwt>
<totfact> 0.88307561E+00</totfact>
</mgrwt>
</event>
<event>
 8    2  0.4480234E-052  0.2604270E+04  0.7818608E-02  0.8366752E-01
          2   -1    0    0  501    0  0.00000000000E+00  0.00000000000E+00  0.14366235557E+04  0.14366235557E+04  0.25500000000E-02 0.  1.
         -2   -1    0    0    0  501 -0.00000000000E+00 -0.00000000000E+00 -0.11802365590E+04  0.11802365590E+04  0.25500000000E-02 0. -1.
    -200001    2    1    2    0    0 -0.10833865537E+03 -0.85139671726E+03  0.89566079142E+03  0.13835500892E+04  0.61268993911E+03 0.  0.
   -5000001    2    3    3    0    0 -0.24694484399E+03 -0.25433278264E+03  0.56867295065E+03  0.68153935878E+03  0.12425800765E+03 0.  0.
     200001    1    1    2    0    0  0.10833865537E+03  0.85139671726E+03 -0.63927379473E+03  0.12333100255E+04  0.61300000000E+03 0. -1.
         13    1    4    4    0    0 -0.19372919256E+03 -0.19871167655E+03  0.34294512019E+03  0.44116742522E+03  0.10566000000E+00 0.  1.
    -200003    1    4    4    0    0 -0.53215651426E+02 -0.55621106092E+02  0.22572783046E+03  0.24037193356E+03  0.30000000000E+02 0.  1.
    -200000    1    3    3    0    0  0.13860618861E+03 -0.59706393462E+03  0.32698784078E+03  0.70201073038E+03  0.10100000000E+03 0.  1.
<mgrwt>
<rscale>  0 0.26042701E+04</rscale>
<asrwt>0</asrwt>
<pdfrwt beam="1">  1        2 0.20523194E+00 0.26042701E+04</pdfrwt>
<pdfrwt beam="2">  1       -2 0.16860522E+00 0.26042701E+04</pdfrwt>
<totfact> 0.30679680E+00</totfact>
</mgrwt>
</event>
<event>
 8    2  0.4480234E-052  0.2149782E+04  0.7818608E-02  0.8539626E-01
          2   -1    0    0  501    0  0.00000000000E+00  0.00000000000E+00  0.57720603160E+03  0.57720603161E+03  0.25500000000E-02 0.  1.
         -2   -1    0    0    0  501 -0.00000000000E+00 -0.00000000000E+00 -0.20016946674E+04  0.20016946674E+04  0.25500000000E-02 0. -1.
    -200001    2    1    2    0    0 -0.17658614417E+03 -0.83221179615E+03 -0.10097540055E+04  0.14512779990E+04  0.60236661494E+03 0.  0.
   -5000001    2    3    3    0    0 -0.28523828148E+02  0.70999502953E+02 -0.17349431284E+03  0.20739521762E+03  0.84011674855E+02 0.  0.
     200001    1    1    2    0    0  0.17658614417E+03  0.83221179615E+03 -0.41473463026E+03  0.11276227000E+04  0.61300000000E+03 0. -1.
         13    1    4    4    0    0  0.24598390865E+02  0.10131651069E+02 -0.52391051930E+02  0.58758528512E+02  0.10566000000E+00 0.  1.
    -200003    1    4    4    0    0 -0.53122219013E+02  0.60867851884E+02 -0.12110326091E+03  0.14863668911E+03  0.30000000000E+02 0.  1.
    -200000    1    3    3    0    0 -0.14806231602E+03 -0.90321129910E+03 -0.83625969269E+03  0.12438827814E+04  0.10100000000E+03 0.  1.
<mgrwt>
<rscale>  0 0.21497816E+04</rscale>
<asrwt>0</asrwt>
<pdfrwt beam="1">  1        2 0.82458006E-01 0.21497816E+04</pdfrwt>
<pdfrwt beam="2">  1       -2 0.28595638E+00 0.21497816E+04</pdfrwt>
<totfact> 0.20278347E+00</totfact>
</mgrwt>
</event>
<event>
 8    2  0.4480234E-052  0.1347782E+04  0.7818608E-02  0.8992509E-01
          2   -1    0    0  501    0  0.00000000000E+00  0.00000000000E+00  0.10806513242E+04  0.10806513243E+04  0.25500000000E-02 0.  1.
         -2   -1    0    0    0  501 -0.00000000000E+00 -0.00000000000E+00 -0.42023668921E+03  0.42023668922E+03  0.25500000000E-02 0. -1.
    -200001    2    1    2    0    0 -0.19798117965E+02 -0.18286469071E+03  0.97150513325E+02  0.64832310017E+03  0.61404654498E+03 0.  0.
   -5000001    2    3    3    0    0 -0.10995639731E+03 -0.10038528844E+03  0.32782969438E+03  0.36842088207E+03  0.78064219605E+02 0.  0.
     200001    1    1    2    0    0  0.19798117965E+02  0.18286469071E+03  0.56326412171E+03  0.85256491330E+03  0.61300000000E+03 0.  1.
         13    1    4    4    0    0 -0.93286867021E+02 -0.51777226602E+02  0.23602058664E+03  0.25901553860E+03  0.10566000000E+00 0.  1.
    -200003    1    4    4    0    0 -0.16669530284E+02 -0.48608061841E+02  0.91809107739E+02  0.10940534347E+03  0.30000000000E+02 0.  1.
    -200000    1    3    3    0    0  0.90158279340E+02 -0.82479402267E+02 -0.23067918105E+03  0.27990221811E+03  0.10100000000E+03 0. -1.
<mgrwt>
<rscale>  0 0.13477824E+04</rscale>
<asrwt>0</asrwt>
<pdfrwt beam="1">  1        2 0.15437876E+00 0.13477824E+04</pdfrwt>
<pdfrwt beam="2">  1       -2 0.60033813E-01 0.13477824E+04</pdfrwt>
<totfact> 0.63468300E+01</totfact>
</mgrwt>
</event>
<event>
 8    2  0.4480234E-052  0.1533313E+04  0.7818608E-02  0.8862598E-01
          2   -1    0    0  501    0  0.00000000000E+00  0.00000000000E+00  0.66315310163E+03  0.66315310164E+03  0.25500000000E-02 0.  1.
         -2   -1    0    0    0  501 -0.00000000000E+00 -0.00000000000E+00 -0.88631410467E+03  0.88631410468E+03  0.25500000000E-02 0. -1.
    -200001    2    1    2    0    0 -0.43749542042E+03 -0.75329661474E+01 -0.25646516875E+03  0.79558581251E+03  0.61296281601E+03 0.  0.
   -5000001    2    3    3    0    0 -0.84877092523E+01 -0.15978107659E+03  0.10051205951E+03  0.20833727494E+03  0.87748004978E+02 0.  0.
     200001    1    1    2    0    0  0.43749542042E+03  0.75329661474E+01  0.33304165709E+02  0.75388139380E+03  0.61300000000E+03 0. -1.
         13    1    4    4    0    0 -0.16365580753E+02  0.16545084553E+01  0.18065985451E+02  0.24432777697E+02  0.10566000000E+00 0.  1.
    -200003    1    4    4    0    0  0.78778715011E+01 -0.16143558505E+03  0.82446074059E+02  0.18390449724E+03  0.30000000000E+02 0.  1.
    -200000    1    3    3    0    0 -0.42900771117E+03  0.15224811044E+03 -0.35697722826E+03  0.58724853757E+03  0.10100000000E+03 0. -1.
<mgrwt>
<rscale>  0 0.15333127E+04</rscale>
<asrwt>0</asrwt>
<pdfrwt beam="1">  1        2 0.94736158E-01 0.15333127E+04</pdfrwt>
<pdfrwt beam="2">  1       -2 0.12661630E+00 0.15333127E+04</pdfrwt>
<totfact> 0.21562639E+01</totfact>
</mgrwt>
</event>
<event>
 8    2  0.4480234E-052  0.1438988E+04  0.7818608E-02  0.8926071E-01
         -2   -1    0    0    0  501 -0.00000000000E+00  0.00000000000E+00  0.21896521275E+03  0.21896521276E+03  0.25500000000E-02 0. -1.
          2   -1    0    0  501    0  0.00000000000E+00 -0.00000000000E+00 -0.23641714658E+04  0.23641714658E+04  0.25500000000E-02 0.  1.
    -200001    2    1    2    0    0  0.17191260754E+02 -0.27342539230E+03 -0.15372240931E+04  0.16773396310E+04  0.61266086918E+03 0.  0.
   -5000001    2    3    3    0    0 -0.11613379817E+03 -0.43000705570E+01 -0.48148777359E+02  0.15492368712E+03  0.90429499531E+02 0.  0.
     200001    1    1    2    0    0 -0.17191260754E+02  0.27342539230E+03 -0.60798215993E+03  0.90579704758E+03  0.61300000000E+03 0.  1.
         13    1    4    4    0    0 -0.68903750205E+02 -0.21396231405E+02 -0.61625670120E+02  0.94885509391E+02  0.10566000000E+00 0.  1.
    -200003    1    4    4    0    0 -0.47230047968E+02  0.17096160848E+02  0.13476892760E+02  0.60038177731E+02  0.30000000000E+02 0.  1.
    -200000    1    3    3    0    0  0.13332505893E+03 -0.26912532174E+03 -0.14890753157E+04  0.15224159438E+04  0.10100000000E+03 0. -1.
<mgrwt>
<rscale>  0 0.14389876E+04</rscale>
<asrwt>0</asrwt>
<pdfrwt beam="1">  1        2 0.33773877E+00 0.14389876E+04</pdfrwt>
<pdfrwt beam="2">  1       -2 0.31280746E-01 0.14389876E+04</pdfrwt>
<totfact> 0.47925616E+01</totfact>
</mgrwt>
</event>
<event>
 8    2  0.4480234E-052  0.1338609E+04  0.7818608E-02  0.8999496E-01
         -2   -1    0    0    0  501 -0.00000000000E+00  0.00000000000E+00  0.88913831923E+03  0.88913831923E+03  0.25500000000E-02 0. -1.
          2   -1    0    0  501    0  0.00000000000E+00 -0.00000000000E+00 -0.50382290568E+03  0.50382290569E+03  0.25500000000E-02 0.  1.
    -200001    2    1    2    0    0 -0.24315613804E+03 -0.13730182978E+02  0.31068243443E+03  0.72914460344E+03  0.61303739875E+03 0.  0.
   -5000001    2    3    3    0    0 -0.71305661597E+02  0.18749179028E+03  0.35764405813E+03  0.44203963505E+03  0.16508209424E+03 0.  0.
     200001    1    1    2    0    0  0.24315613804E+03  0.13730182978E+02  0.74632979114E+02  0.66381662149E+03  0.61300000000E+03 0. -1.
         13    1    4    4    0    0 -0.34130772217E+02  0.77029289108E+02  0.24376719264E+02  0.87707790981E+02  0.10566000000E+00 0.  1.
    -200003    1    4    4    0    0 -0.37174889380E+02  0.11046250117E+03  0.33326733886E+03  0.35433184406E+03  0.30000000000E+02 0.  1.
    -200000    1    3    3    0    0 -0.17185047644E+03 -0.20122197326E+03 -0.46961623697E+02  0.28710496839E+03  0.10100000000E+03 0. -1.
<mgrwt>
<rscale>  0 0.13386086E+04</rscale>
<asrwt>0</asrwt>
<pdfrwt beam="1">  1        2 0.71974701E-01 0.13386086E+04</pdfrwt>
<pdfrwt beam="2">  1       -2 0.12701976E+00 0.13386086E+04</pdfrwt>
<totfact> 0.29996079E+01</totfact>
</mgrwt>
</event>
<event>
 8    2  0.4480234E-052  0.1840583E+04  0.7818608E-02  0.8685011E-01
          2   -1    0    0  501    0  0.00000000000E+00  0.00000000000E+00  0.37733227548E+03  0.37733227549E+03  0.25500000000E-02 0.  1.
         -2   -1    0    0    0  501 -0.00000000000E+00 -0.00000000000E+00 -0.22445368745E+04  0.22445368745E+04  0.25500000000E-02 0. -1.
    -200001    2    1    2    0    0  0.15207774068E+03  0.54003058136E+03 -0.14968314395E+04  0.17120856894E+04  0.61316586768E+03 0.  0.
   -5000001    2    3    3    0    0  0.37338089697E+03  0.32575789922E+03 -0.83214705209E+03  0.97256273216E+03  0.88758371776E+02 0.  0.
     200001    1    1    2    0    0 -0.15207774068E+03 -0.54003058136E+03 -0.37037315951E+03  0.90978346067E+03  0.61300000000E+03 0.  1.
         13    1    4    4    0    0  0.17497064287E+03  0.19209688771E+03 -0.38355602822E+03  0.46328304316E+03  0.10566000000E+00 0.  1.
    -200003    1    4    4    0    0  0.19841025410E+03  0.13366101151E+03 -0.44859102387E+03  0.50927968900E+03  0.30000000000E+02 0.  1.
    -200000    1    3    3    0    0 -0.22130315629E+03  0.21427268215E+03 -0.66468438746E+03  0.73952295720E+03  0.10100000000E+03 0.  1.
<mgrwt>
<rscale>  0 0.18405827E+04</rscale>
<asrwt>0</asrwt>
<pdfrwt beam="1">  1        2 0.53904612E-01 0.18405827E+04</pdfrwt>
<pdfrwt beam="2">  1       -2 0.32064812E+00 0.18405827E+04</pdfrwt>
<totfact> 0.20718852E+00</totfact>
</mgrwt>
</event>
<event>
 8    2  0.4480234E-052  0.1848159E+04  0.7818608E-02  0.8681100E-01
          2   -1    0    0  501    0  0.00000000000E+00  0.00000000000E+00  0.15025224508E+04  0.15025224508E+04  0.25500000000E-02 0.  1.
         -2   -1    0    0    0  501 -0.00000000000E+00 -0.00000000000E+00 -0.56832642947E+03  0.56832642948E+03  0.25500000000E-02 0. -1.
    -200001    2    1    2    0    0  0.55863609623E+03  0.37320377648E+03  0.64640738958E+03  0.11169376458E+04  0.61510311694E+03 0.  0.
   -5000001    2    3    3    0    0  0.36288161566E+02  0.75123612974E+02 -0.91365813589E+02  0.15974934245E+03  0.10105321679E+03 0.  0.
     200001    1    1    2    0    0 -0.55863609623E+03 -0.37320377648E+03  0.28778863178E+03  0.95391123453E+03  0.61300000000E+03 0. -1.
         13    1    4    4    0    0  0.51139985720E+02  0.67261102572E+02 -0.92580917017E+02  0.12534189810E+03  0.10566000000E+00 0.  1.
    -200003    1    4    4    0    0 -0.14851824154E+02  0.78625104018E+01  0.12151034288E+01  0.34407444352E+02  0.30000000000E+02 0.  1.
    -200000    1    3    3    0    0  0.52234793466E+03  0.29808016351E+03  0.73777320317E+03  0.95718830334E+03  0.10100000000E+03 0.  1.
<mgrwt>
<rscale>  0 0.18481593E+04</rscale>
<asrwt>0</asrwt>
<pdfrwt beam="1">  1        2 0.21464606E+00 0.18481593E+04</pdfrwt>
<pdfrwt beam="2">  1       -2 0.81189490E-01 0.18481593E+04</pdfrwt>
<totfact> 0.18385984E+01</totfact>
</mgrwt>
</event>
<event>
 8    2  0.4480234E-052  0.1822250E+04  0.7818608E-02  0.8694556E-01
          2   -1    0    0  501    0  0.00000000000E+00  0.00000000000E+00  0.13050776093E+04  0.13050776093E+04  0.25500000000E-02 0.  1.
         -2   -1    0    0    0  501 -0.00000000000E+00 -0.00000000000E+00 -0.63609148965E+03  0.63609148965E+03  0.25500000000E-02 0. -1.
    -200001    2    1    2    0    0 -0.54855897984E+03 -0.15293596978E+03  0.71900046920E+03  0.11029705543E+04  0.61259775027E+03 0.  0.
   -5000001    2    3    3    0    0 -0.59685181224E+03 -0.54454994546E+01  0.69064671325E+03  0.91564577753E+03  0.71781391388E+02 0.  0.
     200001    1    1    2    0    0  0.54855897984E+03  0.15293596978E+03 -0.50014349523E+02  0.83819854472E+03  0.61300000000E+03 0. -1.
         13    1    4    4    0    0 -0.20483166651E+03 -0.28946353992E+01  0.28216986285E+03  0.34868930753E+03  0.10566000000E+00 0.  1.
    -200003    1    4    4    0    0 -0.39202014573E+03 -0.25508640555E+01  0.40847685039E+03  0.56695647000E+03  0.30000000000E+02 0.  1.
    -200000    1    3    3    0    0  0.48292832402E+02 -0.14749047033E+03  0.28353755949E+02  0.18732477673E+03  0.10100000000E+03 0.  1.
<mgrwt>
<rscale>  0 0.18222500E+04</rscale>
<asrwt>0</asrwt>
<pdfrwt beam="1">  1        2 0.18643966E+00 0.18222500E+04</pdfrwt>
<pdfrwt beam="2">  1       -2 0.90870214E-01 0.18222500E+04</pdfrwt>
<totfact> 0.18228462E+01</totfact>
</mgrwt>
</event>
<event>
 8    2  0.4480234E-052  0.1298360E+04  0.7818608E-02  0.9030867E-01
         -2   -1    0    0    0  501 -0.00000000000E+00  0.00000000000E+00  0.62035508125E+03  0.62035508125E+03  0.25500000000E-02 0. -1.
          2   -1    0    0  501    0  0.00000000000E+00 -0.00000000000E+00 -0.67934393936E+03  0.67934393936E+03  0.25500000000E-02 0.  1.
    -200001    2    1    2    0    0  0.65202804264E+02 -0.64179270901E+02  0.16380639398E+03  0.64108144656E+03  0.61301101289E+03 0.  0.
   -5000001    2    3    3    0    0  0.32022737579E+03 -0.58398230740E+02  0.61901054790E+02  0.34840987182E+03  0.10771152511E+03 0.  0.
     200001    1    1    2    0    0 -0.65202804264E+02  0.64179270901E+02 -0.22279525209E+03  0.65861757405E+03  0.61300000000E+03 0.  1.
         13    1    4    4    0    0  0.17674409324E+03  0.51695818056E+01  0.65586262726E+02  0.18859153771E+03  0.10566000000E+00 0.  1.
    -200003    1    4    4    0    0  0.14348328254E+03 -0.63567812546E+02 -0.36852079362E+01  0.15981833411E+03  0.30000000000E+02 0.  1.
    -200000    1    3    3    0    0 -0.25502457152E+03 -0.57810401609E+01  0.10190533919E+03  0.29267157474E+03  0.10100000000E+03 0. -1.
<mgrwt>
<rscale>  0 0.12983597E+04</rscale>
<asrwt>0</asrwt>
<pdfrwt beam="1">  1        2 0.97049134E-01 0.12983597E+04</pdfrwt>
<pdfrwt beam="2">  1       -2 0.88622155E-01 0.12983597E+04</pdfrwt>
<totfact> 0.50215947E+01</totfact>
</mgrwt>
</event>
<event>
 8    2  0.4480234E-052  0.1292151E+04  0.7818608E-02  0.9035813E-01
         -2   -1    0    0    0  501 -0.00000000000E+00  0.00000000000E+00  0.38851153285E+03  0.38851153286E+03  0.25500000000E-02 0. -1.
          2   -1    0    0  501    0  0.00000000000E+00 -0.00000000000E+00 -0.10743911770E+04  0.10743911770E+04  0.25500000000E-02 0.  1.
    -200001    2    1    2    0    0 -0.17336905142E+02 -0.90053637200E+02 -0.54861872693E+03  0.82806431683E+03  0.61343115296E+03 0.  0.
   -5000001    2    3    3    0    0 -0.28985544432E+03  0.71124738134E+01 -0.32438553399E+03  0.44834187591E+03  0.10824831242E+03 0.  0.
     200001    1    1    2    0    0  0.17336905142E+02  0.90053637200E+02 -0.13726091721E+03  0.63483839302E+03  0.61300000000E+03 0. -1.
         13    1    4    4    0    0 -0.54067994664E+02  0.43015153474E+02 -0.70626299938E+02  0.98801502430E+02  0.10566000000E+00 0.  1.
    -200003    1    4    4    0    0 -0.23578744966E+03 -0.35902679661E+02 -0.25375923405E+03  0.34954037348E+03  0.30000000000E+02 0.  1.
    -200000    1    3    3    0    0  0.27251853918E+03 -0.97166111013E+02 -0.22423319294E+03  0.37972244093E+03  0.10100000000E+03 0.  1.
<mgrwt>
<rscale>  0 0.12921507E+04</rscale>
<asrwt>0</asrwt>
<pdfrwt beam="1">  1        2 0.15348445E+00 0.12921507E+04</pdfrwt>
<pdfrwt beam="2">  1       -2 0.55501648E-01 0.12921507E+04</pdfrwt>
<totfact> 0.75759199E+01</totfact>
</mgrwt>
</event>
<event>
 8    2  0.4480234E-052  0.1567523E+04  0.7818608E-02  0.8840752E-01
         -2   -1    0    0    0  501 -0.00000000000E+00  0.00000000000E+00  0.28355035256E+03  0.28355035257E+03  0.25500000000E-02 0.  1.
          2   -1    0    0  501    0  0.00000000000E+00 -0.00000000000E+00 -0.21663962681E+04  0.21663962681E+04  0.25500000000E-02 0. -1.
    -200001    2    1    2    0    0 -0.44070138485E+03 -0.12253486447E+03 -0.12113846222E+04  0.14321736734E+04  0.61191194173E+03 0.  0.
   -5000001    2    3    3    0    0 -0.46825675963E+03 -0.23295624856E+03 -0.58490024674E+03  0.78747540804E+03  0.66904506240E+02 0.  0.
     200001    1    1    2    0    0  0.44070138485E+03  0.12253486447E+03 -0.67146129334E+03  0.10177729472E+04  0.61300000000E+03 0.  1.
         13    1    4    4    0    0 -0.10240057594E+02 -0.85617592332E+01 -0.31934880270E+02  0.34612284562E+02  0.10566000000E+00 0.  1.
    -200003    1    4    4    0    0 -0.45801670203E+03 -0.22439448933E+03 -0.55296536647E+03  0.75286312348E+03  0.30000000000E+02 0.  1.
    -200000    1    3    3    0    0  0.27555374779E+02  0.11042138410E+03 -0.62648437543E+03  0.64469826539E+03  0.10100000000E+03 0.  1.
<mgrwt>
<rscale>  0 0.15675234E+04</rscale>
<asrwt>0</asrwt>
<pdfrwt beam="1">  1        2 0.30948517E+00 0.15675234E+04</pdfrwt>
<pdfrwt beam="2">  1       -2 0.40507194E-01 0.15675234E+04</pdfrwt>
<totfact> 0.36583978E+01</totfact>
</mgrwt>
</event>
<event>
 8    2  0.4480234E-052  0.1497530E+04  0.7818608E-02  0.8886097E-01
         -2   -1    0    0    0  501 -0.00000000000E+00  0.00000000000E+00  0.18618650568E+03  0.18618650570E+03  0.25500000000E-02 0. -1.
          2   -1    0    0  501    0  0.00000000000E+00 -0.00000000000E+00 -0.30112211823E+04  0.30112211823E+04  0.25500000000E-02 0.  1.
    -200001    2    1    2    0    0 -0.28861109625E+03 -0.18372671013E+03 -0.19679124085E+04  0.20894909712E+04  0.61338519890E+03 0.  0.
   -5000001    2    3    3    0    0  0.11812140598E+03 -0.23834983792E+03 -0.79502681009E+03  0.84278465395E+03  0.86342529434E+02 0.  0.
     200001    1    1    2    0    0  0.28861109625E+03  0.18372671013E+03 -0.85712226809E+03  0.11079167168E+04  0.61300000000E+03 0. -1.
         13    1    4    4    0    0  0.86839951235E+02 -0.13594868719E+03 -0.56014966780E+03  0.58291584656E+03  0.10566000000E+00 0.  1.
    -200003    1    4    4    0    0  0.31281454749E+02 -0.10240115073E+03 -0.23487714229E+03  0.25986880739E+03  0.30000000000E+02 0.  1.
    -200000    1    3    3    0    0 -0.40673250223E+03  0.54623127789E+02 -0.11728855984E+04  0.12467063172E+04  0.10100000000E+03 0. -1.
<mgrwt>
<rscale>  0 0.14975296E+04</rscale>
<asrwt>0</asrwt>
<pdfrwt beam="1">  1        2 0.43017443E+00 0.14975296E+04</pdfrwt>
<pdfrwt beam="2">  1       -2 0.26598074E-01 0.14975296E+04</pdfrwt>
<totfact> 0.28972585E+01</totfact>
</mgrwt>
</event>
<event>
 8    2  0.4480234E-052  0.1660632E+04  0.7818608E-02  0.8784142E-01
         -2   -1    0    0    0  501 -0.00000000000E+00  0.00000000000E+00  0.14022113885E+04  0.14022113885E+04  0.25500000000E-02 0. -1.
          2   -1    0    0  501    0  0.00000000000E+00 -0.00000000000E+00 -0.49166936642E+03  0.49166936643E+03  0.25500000000E-02 0.  1.
    -200001    2    1    2    0    0 -0.47183048150E+03 -0.25830174664E+03  0.63027187154E+03  0.10315211125E+04  0.61436908932E+03 0.  0.
   -5000001    2    3    3    0    0 -0.51767193979E+03 -0.37108576077E+03  0.41433729447E+03  0.76384516156E+03  0.78071493882E+02 0.  0.
     200001    1    1    2    0    0  0.47183048150E+03  0.25830174664E+03  0.28027015053E+03  0.86235964242E+03  0.61300000000E+03 0.  1.
         13    1    4    4    0    0 -0.32674353555E+02 -0.44686556490E+02  0.24453749560E+02  0.60518581797E+02  0.10566000000E+00 0.  1.
    -200003    1    4    4    0    0 -0.48499758624E+03 -0.32639920428E+03  0.38988354491E+03  0.70332657976E+03  0.30000000000E+02 0.  1.
    -200000    1    3    3    0    0  0.45841458295E+02  0.11278401413E+03  0.21593457707E+03  0.26767595095E+03  0.10100000000E+03 0. -1.
<mgrwt>
<rscale>  0 0.16606317E+04</rscale>
<asrwt>0</asrwt>
<pdfrwt beam="1">  1        2 0.70238480E-01 0.16606317E+04</pdfrwt>
<pdfrwt beam="2">  1       -2 0.20031592E+00 0.16606317E+04</pdfrwt>
<totfact> 0.86613343E+00</totfact>
</mgrwt>
</event>
<event>
 8    2  0.4480234E-052  0.1309471E+04  0.7818608E-02  0.9022088E-01
          2   -1    0    0  501    0  0.00000000000E+00  0.00000000000E+00  0.16098269153E+04  0.16098269153E+04  0.25500000000E-02 0.  1.
         -2   -1    0    0    0  501 -0.00000000000E+00 -0.00000000000E+00 -0.26628846796E+03  0.26628846797E+03  0.25500000000E-02 0. -1.
    -200001    2    1    2    0    0 -0.73901001040E+02 -0.10426021451E+03  0.95040697300E+03  0.11367555883E+04  0.61041649952E+03 0.  0.
   -5000001    2    3    3    0    0 -0.14929213693E+03 -0.26330597451E+03  0.85728877407E+03  0.91348137097E+03  0.88803122708E+02 0.  0.
     200001    1    1    2    0    0  0.73901001040E+02  0.10426021451E+03  0.39313147429E+03  0.73935979493E+03  0.61300000000E+03 0. -1.
         13    1    4    4    0    0 -0.82249513583E+02 -0.14691463948E+03  0.35877948335E+03  0.39632262441E+03  0.10566000000E+00 0.  1.
    -200003    1    4    4    0    0 -0.67042623347E+02 -0.11639133503E+03  0.49850929072E+03  0.51715874656E+03  0.30000000000E+02 0.  1.
    -200000    1    3    3    0    0  0.75391135889E+02  0.15904576001E+03  0.93118198931E+02  0.22327421732E+03  0.10100000000E+03 0.  1.
<mgrwt>
<rscale>  0 0.13094706E+04</rscale>
<asrwt>0</asrwt>
<pdfrwt beam="1">  1        2 0.22997528E+00 0.13094706E+04</pdfrwt>
<pdfrwt beam="2">  1       -2 0.38041209E-01 0.13094706E+04</pdfrwt>
<totfact> 0.81703767E+01</totfact>
</mgrwt>
</event>
<event>
 8    2  0.4480234E-052  0.1742196E+04  0.7818608E-02  0.8737658E-01
         -2   -1    0    0    0  501 -0.00000000000E+00  0.00000000000E+00  0.35326872791E+03  0.35326872792E+03  0.25500000000E-02 0. -1.
          2   -1    0    0  501    0  0.00000000000E+00 -0.00000000000E+00 -0.21479736365E+04  0.21479736365E+04  0.25500000000E-02 0.  1.
    -200001    2    1    2    0    0 -0.16814272042E+03  0.27528977216E+03 -0.16558594652E+04  0.17947697958E+04  0.61259417100E+03 0.  0.
   -5000001    2    3    3    0    0 -0.30193880752E+03  0.19327795600E+03 -0.12180702525E+04  0.13188625300E+04  0.35662279957E+03 0.  0.
     200001    1    1    2    0    0  0.16814272042E+03 -0.27528977216E+03 -0.13884544341E+03  0.70647256864E+03  0.61300000000E+03 0. -1.
         13    1    4    4    0    0 -0.34804354222E+03  0.24105343743E+03 -0.11147472016E+04  0.11924354916E+04  0.10566000000E+00 0.  1.
    -200003    1    4    4    0    0  0.46104734699E+02 -0.47775481426E+02 -0.10332305098E+03  0.12642703845E+03  0.30000000000E+02 0.  1.
    -200000    1    3    3    0    0  0.13379608711E+03  0.82011816154E+02 -0.43778921268E+03  0.47590726581E+03  0.10100000000E+03 0. -1.
<mgrwt>
<rscale>  0 0.17421962E+04</rscale>
<asrwt>0</asrwt>
<pdfrwt beam="1">  1        2 0.30685337E+00 0.17421962E+04</pdfrwt>
<pdfrwt beam="2">  1       -2 0.50466962E-01 0.17421962E+04</pdfrwt>
<totfact> 0.23756578E+01</totfact>
</mgrwt>
</event>
<event>
 8    2  0.4480234E-052  0.2157082E+04  0.7818608E-02  0.8536507E-01
         -2   -1    0    0    0  501 -0.00000000000E+00  0.00000000000E+00  0.34135650624E+03  0.34135650624E+03  0.25500000000E-02 0. -1.
          2   -1    0    0  501    0  0.00000000000E+00 -0.00000000000E+00 -0.34077281223E+04  0.34077281223E+04  0.25500000000E-02 0.  1.
    -200001    2    1    2    0    0  0.69994924601E+03 -0.42843116662E+03 -0.21200217115E+04  0.23545132416E+04  0.61299130173E+03 0.  0.
   -5000001    2    3    3    0    0  0.21300721426E+03 -0.37657874955E+02 -0.17051467320E+03  0.30497792835E+03  0.13094309501E+03 0.  0.
     200001    1    1    2    0    0 -0.69994924601E+03  0.42843116662E+03 -0.94634990459E+03  0.13945713870E+04  0.61300000000E+03 0.  1.
         13    1    4    4    0    0  0.94212250654E+01 -0.38241228548E+02 -0.27627196253E+01  0.39481575784E+02  0.10566000000E+00 0.  1.
    -200003    1    4    4    0    0  0.20358598920E+03  0.58335359322E+00 -0.16775195358E+03  0.26549635257E+03  0.30000000000E+02 0.  1.
    -200000    1    3    3    0    0  0.48694203174E+03 -0.39077329167E+03 -0.19495070383E+04  0.20495353132E+04  0.10100000000E+03 0.  1.
<mgrwt>
<rscale>  0 0.21570815E+04</rscale>
<asrwt>0</asrwt>
<pdfrwt beam="1">  1        2 0.48681828E+00 0.21570815E+04</pdfrwt>
<pdfrwt beam="2">  1       -2 0.48765217E-01 0.21570815E+04</pdfrwt>
<totfact> 0.50247411E+00</totfact>
</mgrwt>
</event>
<event>
 8    2  0.4480234E-052  0.1321934E+04  0.7818608E-02  0.9012350E-01
          2   -1    0    0  501    0  0.00000000000E+00  0.00000000000E+00  0.10314598297E+04  0.10314598297E+04  0.25500000000E-02 0.  1.
         -2   -1    0    0    0  501 -0.00000000000E+00 -0.00000000000E+00 -0.42355254504E+03  0.42355254505E+03  0.25500000000E-02 0. -1.
    -200001    2    1    2    0    0 -0.11312174435E+03  0.16944329815E+03  0.45765498751E+03  0.79179874919E+03  0.61317991755E+03 0.  0.
   -5000001    2    3    3    0    0 -0.96007632116E+02 -0.18655360028E+03  0.25322458314E+03  0.36869181853E+03  0.16670709746E+03 0.  0.
     200001    1    1    2    0    0  0.11312174435E+03 -0.16944329815E+03  0.15025229715E+03  0.66321362556E+03  0.61300000000E+03 0. -1.
         13    1    4    4    0    0 -0.13926799508E+03 -0.13855917515E+03  0.17822234400E+03  0.26524975879E+03  0.10566000000E+00 0.  1.
    -200003    1    4    4    0    0  0.43260362967E+02 -0.47994425132E+02  0.75002239143E+02  0.10344205974E+03  0.30000000000E+02 0.  1.
    -200000    1    3    3    0    0 -0.17114112232E+02  0.35599689844E+03  0.20443040437E+03  0.42310693065E+03  0.10100000000E+03 0.  1.
<mgrwt>
<rscale>  0 0.13219341E+04</rscale>
<asrwt>0</asrwt>
<pdfrwt beam="1">  1        2 0.14735140E+00 0.13219341E+04</pdfrwt>
<pdfrwt beam="2">  1       -2 0.60507507E-01 0.13219341E+04</pdfrwt>
<totfact> 0.66952740E+01</totfact>
</mgrwt>
</event>
<event>
 8    2  0.4480234E-052  0.1418805E+04  0.7818608E-02  0.8940318E-01
          2   -1    0    0  501    0  0.00000000000E+00  0.00000000000E+00  0.11053707878E+04  0.11053707878E+04  0.25500000000E-02 0.  1.
         -2   -1    0    0    0  501 -0.00000000000E+00 -0.00000000000E+00 -0.45527893322E+03  0.45527893322E+03  0.25500000000E-02 0. -1.
    -200001    2    1    2    0    0  0.13079659099E+03  0.28899743156E+03  0.50464423262E+03  0.85527657556E+03  0.61335548870E+03 0.  0.
   -5000001    2    3    3    0    0  0.19867027470E+03  0.32298476274E+03  0.58565868945E+03  0.70518887508E+03  0.10249982439E+03 0.  0.
     200001    1    1    2    0    0 -0.13079659099E+03 -0.28899743156E+03  0.14544762200E+03  0.70537314551E+03  0.61300000000E+03 0. -1.
         13    1    4    4    0    0  0.13327186133E+02 -0.55171989565E+01  0.20692448461E+02  0.25223837176E+02  0.10566000000E+00 0.  1.
    -200003    1    4    4    0    0  0.18534308857E+03  0.32850196170E+03  0.56496624099E+03  0.67996503790E+03  0.30000000000E+02 0.  1.
    -200000    1    3    3    0    0 -0.67873683707E+02 -0.33987331178E+02 -0.81014456822E+02  0.15008770048E+03  0.10100000000E+03 0.  1.
<mgrwt>
<rscale>  0 0.14188052E+04</rscale>
<asrwt>0</asrwt>
<pdfrwt beam="1">  1        2 0.15791011E+00 0.14188052E+04</pdfrwt>
<pdfrwt beam="2">  1       -2 0.65039848E-01 0.14188052E+04</pdfrwt>
<totfact> 0.51473667E+01</totfact>
</mgrwt>
</event>
<event>
 8    2  0.4480234E-052  0.1567905E+04  0.7818608E-02  0.8840512E-01
         -2   -1    0    0    0  501 -0.00000000000E+00  0.00000000000E+00  0.12647118335E+04  0.12647118335E+04  0.25500000000E-02 0. -1.
          2   -1    0    0  501    0  0.00000000000E+00 -0.00000000000E+00 -0.48594562365E+03  0.48594562366E+03  0.25500000000E-02 0.  1.
    -200001    2    1    2    0    0  0.38360406043E+03 -0.16716064145E+03  0.67212398751E+03  0.10008332652E+04  0.61222693093E+03 0.  0.
   -5000001    2    3    3    0    0  0.20375564636E+03 -0.24475549704E+03  0.69532224534E+03  0.77923549262E+03  0.14937640820E+03 0.  0.
     200001    1    1    2    0    0 -0.38360406043E+03  0.16716064145E+03  0.10664222233E+03  0.74982419194E+03  0.61300000000E+03 0.  1.
         13    1    4    4    0    0  0.13424846332E+03 -0.23140005705E+03  0.46550419601E+03  0.53690111191E+03  0.10566000000E+00 0.  1.
    -200003    1    4    4    0    0  0.69507183044E+02 -0.13355439997E+02  0.22981804934E+03  0.24233438071E+03  0.30000000000E+02 0.  1.
    -200000    1    3    3    0    0  0.17984841407E+03  0.77594855590E+02 -0.23198257831E+02  0.22159777261E+03  0.10100000000E+03 0.  1.
<mgrwt>
<rscale>  0 0.15679046E+04</rscale>
<asrwt>0</asrwt>
<pdfrwt beam="1">  1        2 0.69420805E-01 0.15679046E+04</pdfrwt>
<pdfrwt beam="2">  1       -2 0.18067312E+00 0.15679046E+04</pdfrwt>
<totfact> 0.11977862E+01</totfact>
</mgrwt>
</event>
<event>
 8    2  0.4480234E-052  0.1500755E+04  0.7818608E-02  0.8883951E-01
          2   -1    0    0  501    0  0.00000000000E+00  0.00000000000E+00  0.74818517593E+03  0.74818517593E+03  0.25500000000E-02 0.  1.
         -2   -1    0    0    0  501 -0.00000000000E+00 -0.00000000000E+00 -0.75257616523E+03  0.75257616524E+03  0.25500000000E-02 0. -1.
    -200001    2    1    2    0    0  0.21521932250E+03  0.12786174085E+03  0.35074072419E+03  0.74939224713E+03  0.61310823098E+03 0.  0.
   -5000001    2    3    3    0    0 -0.65804335333E+02 -0.80683781711E+02  0.35881811286E+03  0.38506852370E+03  0.93205400312E+02 0.  0.
     200001    1    1    2    0    0 -0.21521932250E+03 -0.12786174085E+03 -0.35513171350E+03  0.75136909404E+03  0.61300000000E+03 0. -1.
         13    1    4    4    0    0 -0.44273899181E+02 -0.62648442327E+02  0.11783315565E+03  0.14060465572E+03  0.10566000000E+00 0.  1.
    -200003    1    4    4    0    0 -0.21530436152E+02 -0.18035339384E+02  0.24098495721E+03  0.24446386798E+03  0.30000000000E+02 0.  1.
    -200000    1    3    3    0    0  0.28102365784E+03  0.20854552256E+03 -0.80773886688E+01  0.36432372343E+03  0.10100000000E+03 0. -1.
<mgrwt>
<rscale>  0 0.15007549E+04</rscale>
<asrwt>0</asrwt>
<pdfrwt beam="1">  1        2 0.10688360E+00 0.15007549E+04</pdfrwt>
<pdfrwt beam="2">  1       -2 0.10751088E+00 0.15007549E+04</pdfrwt>
<totfact> 0.27841636E+01</totfact>
</mgrwt>
</event>
<event>
 8    2  0.4480234E-052  0.1757205E+04  0.7818608E-02  0.8729395E-01
          2   -1    0    0  501    0  0.00000000000E+00  0.00000000000E+00  0.12604045793E+04  0.12604045793E+04  0.25500000000E-02 0.  1.
         -2   -1    0    0    0  501 -0.00000000000E+00 -0.00000000000E+00 -0.61245575331E+03  0.61245575332E+03  0.25500000000E-02 0. -1.
    -200001    2    1    2    0    0  0.11730511372E+03  0.54505823830E+03  0.63532843854E+03  0.10441400861E+04  0.61297416076E+03 0.  0.
   -5000001    2    3    3    0    0  0.23109555046E+02  0.23815203479E+02  0.47594778522E+03  0.48184986098E+03  0.67466872002E+02 0.  0.
     200001    1    1    2    0    0 -0.11730511372E+03 -0.54505823830E+03  0.12620387472E+02  0.82872024654E+03  0.61300000000E+03 0. -1.
         13    1    4    4    0    0  0.28453340605E+02  0.13438888189E+02  0.36423174811E+03  0.36558853073E+03  0.10566000000E+00 0.  1.
    -200003    1    4    4    0    0 -0.53437855587E+01  0.10376315290E+02  0.11171603711E+03  0.11626133025E+03  0.30000000000E+02 0. -1.
    -200000    1    3    3    0    0  0.94195558671E+02  0.52124303482E+03  0.15938065332E+03  0.56229022513E+03  0.10100000000E+03 0. -1.
<mgrwt>
<rscale>  0 0.17572046E+04</rscale>
<asrwt>0</asrwt>
<pdfrwt beam="1">  1        2 0.18005780E+00 0.17572046E+04</pdfrwt>
<pdfrwt beam="2">  1       -2 0.87493679E-01 0.17572046E+04</pdfrwt>
<totfact> 0.21168019E+01</totfact>
</mgrwt>
</event>
<event>
 8    2  0.4480234E-052  0.1475515E+04  0.7818608E-02  0.8900901E-01
         -2   -1    0    0    0  501 -0.00000000000E+00  0.00000000000E+00  0.29178381301E+03  0.29178381302E+03  0.25500000000E-02 0. -1.
          2   -1    0    0  501    0  0.00000000000E+00 -0.00000000000E+00 -0.18653740888E+04  0.18653740888E+04  0.25500000000E-02 0.  1.
    -200001    2    1    2    0    0 -0.56033436773E+02 -0.20330128922E+03 -0.13017209188E+04  0.14541976558E+04  0.61297823075E+03 0.  0.
   -5000001    2    3    3    0    0 -0.10417511418E+03 -0.38639210931E+03 -0.10290079886E+04  0.11071915870E+04  0.82851994779E+02 0.  0.
     200001    1    1    2    0    0  0.56033436773E+02  0.20330128922E+03 -0.27186935696E+03  0.70296024602E+03  0.61300000000E+03 0. -1.
         13    1    4    4    0    0 -0.70942049704E+02 -0.31056231612E+03 -0.84900604219E+03  0.90680372598E+03  0.10566000000E+00 0.  1.
    -200003    1    4    4    0    0 -0.33233064479E+02 -0.75829793187E+02 -0.18000194642E+03  0.20038786097E+03  0.30000000000E+02 0. -1.
    -200000    1    3    3    0    0  0.48141677410E+02  0.18309082009E+03 -0.27271293019E+03  0.34700606882E+03  0.10100000000E+03 0.  1.
<mgrwt>
<rscale>  0 0.14755148E+04</rscale>
<asrwt>0</asrwt>
<pdfrwt beam="1">  1        2 0.26648201E+00 0.14755148E+04</pdfrwt>
<pdfrwt beam="2">  1       -2 0.41683403E-01 0.14755148E+04</pdfrwt>
<totfact> 0.49754034E+01</totfact>
</mgrwt>
</event>
<event>
 8    2  0.4480234E-052  0.1410037E+04  0.7818608E-02  0.8946585E-01
          2   -1    0    0  501    0  0.00000000000E+00  0.00000000000E+00  0.33698043542E+04  0.33698043542E+04  0.25500000000E-02 0.  1.
         -2   -1    0    0    0  501 -0.00000000000E+00 -0.00000000000E+00 -0.14750137387E+03  0.14750137389E+03  0.25500000000E-02 0. -1.
    -200001    2    1    2    0    0  0.20125604088E+03  0.12969665948E+03  0.98394464327E+03  0.11842085885E+04  0.61390365913E+03 0.  0.
   -5000001    2    3    3    0    0  0.14246026107E+03 -0.69524627062E+01  0.99064744433E+03  0.10042756737E+04  0.82728513965E+02 0.  0.
     200001    1    1    2    0    0 -0.20125604088E+03 -0.12969665948E+03  0.22383583370E+04  0.23330971395E+04  0.61300000000E+03 0.  1.
         13    1    4    4    0    0  0.23122597047E+02  0.11734291447E+01  0.41119190238E+03  0.41184320217E+03  0.10566000000E+00 0.  1.
    -200003    1    4    4    0    0  0.11933766402E+03 -0.81258918509E+01  0.57945554195E+03  0.59243247148E+03  0.30000000000E+02 0.  1.
    -200000    1    3    3    0    0  0.58795779818E+02  0.13664912219E+03 -0.67028010585E+01  0.17993291489E+03  0.10100000000E+03 0. -1.
<mgrwt>
<rscale>  0 0.14100366E+04</rscale>
<asrwt>0</asrwt>
<pdfrwt beam="1">  1        2 0.48140052E+00 0.14100366E+04</pdfrwt>
<pdfrwt beam="2">  1       -2 0.21071629E-01 0.14100366E+04</pdfrwt>
<totfact> 0.27656690E+01</totfact>
</mgrwt>
</event>
<event>
 8    2  0.4480234E-052  0.1286369E+04  0.7818608E-02  0.9040445E-01
         -2   -1    0    0    0  501 -0.00000000000E+00  0.00000000000E+00  0.14325416882E+03  0.14325416884E+03  0.25500000000E-02 0. -1.
          2   -1    0    0  501    0  0.00000000000E+00 -0.00000000000E+00 -0.28877770768E+04  0.28877770768E+04  0.25500000000E-02 0.  1.
    -200001    2    1    2    0    0  0.15417736218E+02 -0.16622163774E+02 -0.18252725389E+04  0.19259048981E+04  0.61398357670E+03 0.  0.
   -5000001    2    3    3    0    0  0.22424260630E+03  0.16528945983E+03 -0.76081583424E+03  0.82138294667E+03  0.13499577562E+03 0.  0.
     200001    1    1    2    0    0 -0.15417736218E+02  0.16622163774E+02 -0.91925036909E+03  0.11051263475E+04  0.61300000000E+03 0. -1.
         13    1    4    4    0    0 -0.95961428575E+01  0.28291232160E+00 -0.10215214213E+03  0.10260232601E+03  0.10566000000E+00 0.  1.
    -200003    1    4    4    0    0  0.23383874915E+03  0.16500654751E+03 -0.65866369211E+03  0.71878062066E+03  0.30000000000E+02 0.  1.
    -200000    1    3    3    0    0 -0.20882487008E+03 -0.18191162361E+03 -0.10644567047E+04  0.11045219515E+04  0.10100000000E+03 0.  1.
<mgrwt>
<rscale>  0 0.12863687E+04</rscale>
<asrwt>0</asrwt>
<pdfrwt beam="1">  1        2 0.41253955E+00 0.12863687E+04</pdfrwt>
<pdfrwt beam="2">  1       -2 0.20464883E-01 0.12863687E+04</pdfrwt>
<totfact> 0.55287300E+01</totfact>
</mgrwt>
</event>
<event>
 8    2  0.4480234E-052  0.1828269E+04  0.7818608E-02  0.8691409E-01
         -2   -1    0    0    0  501 -0.00000000000E+00  0.00000000000E+00  0.10715915208E+04  0.10715915208E+04  0.25500000000E-02 0. -1.
          2   -1    0    0  501    0  0.00000000000E+00 -0.00000000000E+00 -0.77981402449E+03  0.77981402450E+03  0.25500000000E-02 0.  1.
    -200001    2    1    2    0    0 -0.39363655131E+03 -0.31644106695E+03  0.60403910305E+03  0.99796486522E+03  0.61317693273E+03 0.  0.
   -5000001    2    3    3    0    0 -0.51457280872E+03 -0.33557827005E+03  0.38757365066E+03  0.72954336277E+03  0.67987003763E+02 0.  0.
     200001    1    1    2    0    0  0.39363655131E+03  0.31644106695E+03 -0.31226160674E+03  0.85344068008E+03  0.61300000000E+03 0.  1.
         13    1    4    4    0    0 -0.46144673735E+02 -0.35915256976E+02  0.58409374525E+02  0.82649275824E+02  0.10566000000E+00 0.  1.
    -200003    1    4    4    0    0 -0.46842813498E+03 -0.29966301308E+03  0.32916427613E+03  0.64689408695E+03  0.30000000000E+02 0.  1.
    -200000    1    3    3    0    0  0.12093625741E+03  0.19137203104E+02  0.21646545239E+03  0.26842150245E+03  0.10100000000E+03 0. -1.
<mgrwt>
<rscale>  0 0.18282692E+04</rscale>
<asrwt>0</asrwt>
<pdfrwt beam="1">  1        2 0.11140200E+00 0.18282692E+04</pdfrwt>
<pdfrwt beam="2">  1       -2 0.15308450E+00 0.18282692E+04</pdfrwt>
<totfact> 0.10531018E+01</totfact>
</mgrwt>
</event>
<event>
 8    2  0.4480234E-052  0.1644998E+04  0.7818608E-02  0.8793371E-01
          2   -1    0    0  501    0  0.00000000000E+00  0.00000000000E+00  0.14435852651E+04  0.14435852651E+04  0.25500000000E-02 0.  1.
         -2   -1    0    0    0  501 -0.00000000000E+00 -0.00000000000E+00 -0.46862801978E+03  0.46862801979E+03  0.25500000000E-02 0. -1.
    -200001    2    1    2    0    0  0.63853449486E+02 -0.54367119193E+03  0.49050458936E+03  0.95821171058E+03  0.61475141494E+03 0.  0.
   -5000001    2    3    3    0    0 -0.43028015015E+02  0.76219717043E+02  0.24801727676E+03  0.27653034568E+03  0.85414326485E+02 0.  0.
     200001    1    1    2    0    0 -0.63853449486E+02  0.54367119193E+03  0.48445265598E+03  0.95400157433E+03  0.61300000000E+03 0.  1.
         13    1    4    4    0    0  0.11451780005E+02  0.27228829538E+00  0.88432876708E+02  0.89171757037E+02  0.10566000000E+00 0.  1.
    -200003    1    4    4    0    0 -0.54479795020E+02  0.75947428748E+02  0.15958440006E+03  0.18735858865E+03  0.30000000000E+02 0.  1.
    -200000    1    3    3    0    0  0.10688146450E+03 -0.61989090897E+03  0.24248731260E+03  0.68168136490E+03  0.10100000000E+03 0. -1.
<mgrwt>
<rscale>  0 0.16449979E+04</rscale>
<asrwt>0</asrwt>
<pdfrwt beam="1">  1        2 0.20622647E+00 0.16449979E+04</pdfrwt>
<pdfrwt beam="2">  1       -2 0.66946859E-01 0.16449979E+04</pdfrwt>
<totfact> 0.30747473E+01</totfact>
</mgrwt>
</event>
<event>
 8    2  0.4480234E-052  0.3017999E+04  0.7818608E-02  0.8238610E-01
          2   -1    0    0  501    0  0.00000000000E+00  0.00000000000E+00  0.35718452434E+04  0.35718452434E+04  0.25500000000E-02 0.  1.
         -2   -1    0    0    0  501 -0.00000000000E+00 -0.00000000000E+00 -0.63750778819E+03  0.63750778819E+03  0.25500000000E-02 0. -1.
    -200001    2    1    2    0    0 -0.46117311983E+03  0.87098157360E+03  0.28123988873E+04  0.30423365097E+04  0.61231886219E+03 0.  0.
   -5000001    2    3    3    0    0  0.61260648027E+02  0.32852686146E+02  0.12761224212E+03  0.17987648310E+03  0.10601178637E+03 0.  0.
     200001    1    1    2    0    0  0.46117311983E+03 -0.87098157360E+03  0.12193856790E+03  0.11670165219E+04  0.61300000000E+03 0.  1.
         13    1    4    4    0    0  0.47723742069E+02 -0.26458674678E+02  0.34075040017E+02  0.64333012824E+02  0.10566000000E+00 0.  1.
    -200003    1    4    4    0    0  0.13536905958E+02  0.59311360824E+02  0.93537202104E+02  0.11554347027E+03  0.30000000000E+02 0.  1.
    -200000    1    3    3    0    0 -0.52243376785E+03  0.83812888746E+03  0.26847866452E+04  0.28624600266E+04  0.10100000000E+03 0. -1.
<mgrwt>
<rscale>  0 0.30179988E+04</rscale>
<asrwt>0</asrwt>
<pdfrwt beam="1">  1        2 0.51026363E+00 0.30179988E+04</pdfrwt>
<pdfrwt beam="2">  1       -2 0.91072538E-01 0.30179988E+04</pdfrwt>
<totfact> 0.95954658E-01</totfact>
</mgrwt>
</event>
<event>
 8    2  0.4480234E-052  0.1459997E+04  0.7818608E-02  0.8911499E-01
         -2   -1    0    0    0  501 -0.00000000000E+00  0.00000000000E+00  0.35377835989E+03  0.35377835990E+03  0.25500000000E-02 0. -1.
          2   -1    0    0  501    0  0.00000000000E+00 -0.00000000000E+00 -0.15063035032E+04  0.15063035032E+04  0.25500000000E-02 0.  1.
    -200001    2    1    2    0    0 -0.62278804862E+02  0.54207146440E+02 -0.82434373072E+02  0.62408820583E+03  0.61308531097E+03 0.  0.
   -5000001    2    3    3    0    0 -0.14957990155E+03  0.19331499532E+03  0.10317278649E+03  0.35646254790E+03  0.23806740604E+03 0.  0.
     200001    1    1    2    0    0  0.62278804862E+02 -0.54207146440E+02 -0.10700907702E+04  0.12359936573E+04  0.61300000000E+03 0.  1.
         13    1    4    4    0    0  0.78107583221E+00  0.15879325132E+03  0.11909786536E+03  0.19849488518E+03  0.10566000000E+00 0.  1.
    -200003    1    4    4    0    0 -0.15036097738E+03  0.34521743999E+02 -0.15925078869E+02  0.15796766272E+03  0.30000000000E+02 0.  1.
    -200000    1    3    3    0    0  0.87301096688E+02 -0.13910784888E+03 -0.18560715956E+03  0.26762565793E+03  0.10100000000E+03 0.  1.
<mgrwt>
<rscale>  0 0.14599967E+04</rscale>
<asrwt>0</asrwt>
<pdfrwt beam="1">  1        2 0.21518621E+00 0.14599967E+04</pdfrwt>
<pdfrwt beam="2">  1       -2 0.50539766E-01 0.14599967E+04</pdfrwt>
<totfact> 0.52096358E+01</totfact>
</mgrwt>
</event>
<event>
 8    2  0.4480234E-052  0.1264387E+04  0.7818608E-02  0.9058293E-01
         -2   -1    0    0    0  501 -0.00000000000E+00  0.00000000000E+00  0.67885046048E+03  0.67885046049E+03  0.25500000000E-02 0. -1.
          2   -1    0    0  501    0  0.00000000000E+00 -0.00000000000E+00 -0.58874345616E+03  0.58874345617E+03  0.25500000000E-02 0.  1.
    -200001    2    1    2    0    0  0.11579079853E+03  0.83932263811E+02 -0.11546996156E+02  0.62997751963E+03  0.61342172132E+03 0.  0.
   -5000001    2    3    3    0    0  0.97505204960E+02 -0.46712229309E+02  0.27265544839E+03  0.30077488295E+03  0.66597592437E+02 0.  0.
     200001    1    1    2    0    0 -0.11579079853E+03 -0.83932263811E+02  0.10165400048E+03  0.63761639702E+03  0.61300000000E+03 0. -1.
         13    1    4    4    0    0  0.67518909543E+02 -0.49667278428E+02  0.19474342974E+03  0.21201569820E+03  0.10566000000E+00 0.  1.
    -200003    1    4    4    0    0  0.29986295416E+02  0.29550491193E+01  0.77912018642E+02  0.88759184747E+02  0.30000000000E+02 0. -1.
    -200000    1    3    3    0    0  0.18285593572E+02  0.13064449312E+03 -0.28420244454E+03  0.32920263668E+03  0.10100000000E+03 0.  1.
<mgrwt>
<rscale>  0 0.12643872E+04</rscale>
<asrwt>0</asrwt>
<pdfrwt beam="1">  1        2 0.84106208E-01 0.12643872E+04</pdfrwt>
<pdfrwt beam="2">  1       -2 0.96978637E-01 0.12643872E+04</pdfrwt>
<totfact> 0.48493290E+01</totfact>
</mgrwt>
</event>
<event>
 8    2  0.4480234E-052  0.1580866E+04  0.7818608E-02  0.8832390E-01
          2   -1    0    0  501    0  0.00000000000E+00  0.00000000000E+00  0.13924856848E+04  0.13924856848E+04  0.25500000000E-02 0.  1.
         -2   -1    0    0    0  501 -0.00000000000E+00 -0.00000000000E+00 -0.44868277465E+03  0.44868277465E+03  0.25500000000E-02 0. -1.
    -200001    2    1    2    0    0 -0.41163540657E+03  0.24426040949E+03  0.63669275495E+03  0.10049911439E+04  0.61279905318E+03 0.  0.
   -5000001    2    3    3    0    0  0.11881323182E+01 -0.12654175918E+03  0.62284782401E+02  0.19996751603E+03  0.14175113712E+03 0.  0.
     200001    1    1    2    0    0  0.41163540657E+03 -0.24426040949E+03  0.30711015521E+03  0.83617731554E+03  0.61300000000E+03 0. -1.
         13    1    4    4    0    0  0.44068765652E+02 -0.12845721874E+03  0.57174168939E+02  0.14735063594E+03  0.10566000000E+00 0.  1.
    -200003    1    4    4    0    0 -0.42880633334E+02  0.19154595672E+01  0.51106134620E+01  0.52616880090E+02  0.30000000000E+02 0.  1.
    -200000    1    3    3    0    0 -0.41282353889E+03  0.37080216866E+03  0.57440797255E+03  0.80502362789E+03  0.10100000000E+03 0.  1.
<mgrwt>
<rscale>  0 0.15808660E+04</rscale>
<asrwt>0</asrwt>
<pdfrwt beam="1">  1        2 0.19892653E+00 0.15808660E+04</pdfrwt>
<pdfrwt beam="2">  1       -2 0.64097539E-01 0.15808660E+04</pdfrwt>
<totfact> 0.36155023E+01</totfact>
</mgrwt>
</event>
<event>
 8    2  0.4480234E-052  0.1319431E+04  0.7818608E-02  0.9014296E-01
         -2   -1    0    0    0  501 -0.00000000000E+00  0.00000000000E+00  0.65416411107E+03  0.65416411108E+03  0.25500000000E-02 0. -1.
          2   -1    0    0  501    0  0.00000000000E+00 -0.00000000000E+00 -0.66531429885E+03  0.66531429886E+03  0.25500000000E-02 0.  1.
    -200001    2    1    2    0    0 -0.29013177209E+02 -0.23800347343E+03  0.38324800682E+02  0.65939948109E+03  0.61306726181E+03 0.  0.
   -5000001    2    3    3    0    0 -0.28295235959E+03 -0.15359263552E+02 -0.10750173694E+02  0.30349934672E+03  0.10815887597E+03 0.  0.
     200001    1    1    2    0    0  0.29013177209E+02  0.23800347343E+03 -0.49474988461E+02  0.66007892884E+03  0.61300000000E+03 0. -1.
         13    1    4    4    0    0 -0.11501320158E+03  0.26689821165E+02  0.32678665143E+02  0.12250832385E+03  0.10566000000E+00 0.  1.
    -200003    1    4    4    0    0 -0.16793915801E+03 -0.42049084718E+02 -0.43428838837E+02  0.18099102287E+03  0.30000000000E+02 0.  1.
    -200000    1    3    3    0    0  0.25393918238E+03 -0.22264420987E+03  0.49074974376E+02  0.35590013438E+03  0.10100000000E+03 0. -1.
<mgrwt>
<rscale>  0 0.13194313E+04</rscale>
<asrwt>0</asrwt>
<pdfrwt beam="1">  1        2 0.95044900E-01 0.13194313E+04</pdfrwt>
<pdfrwt beam="2">  1       -2 0.93452016E-01 0.13194313E+04</pdfrwt>
<totfact> 0.45494290E+01</totfact>
</mgrwt>
</event>
<event>
 8    2  0.4480234E-052  0.1353806E+04  0.7818608E-02  0.8987952E-01
          2   -1    0    0  501    0  0.00000000000E+00  0.00000000000E+00  0.13475408879E+04  0.13475408879E+04  0.25500000000E-02 0.  1.
         -2   -1    0    0    0  501 -0.00000000000E+00 -0.00000000000E+00 -0.34002519167E+03  0.34002519168E+03  0.25500000000E-02 0. -1.
    -200001    2    1    2    0    0  0.10695281062E+03 -0.22808146010E+01  0.17325481670E+03  0.64679505723E+03  0.61390757345E+03 0.  0.
   -5000001    2    3    3    0    0  0.13730598405E+03 -0.21919746819E+03  0.71587255236E+02  0.38504815124E+03  0.27611026845E+03 0.  0.
     200001    1    1    2    0    0 -0.10695281062E+03  0.22808146010E+01  0.83426087949E+03  0.10407710223E+04  0.61300000000E+03 0.  1.
         13    1    4    4    0    0 -0.60044299095E+02 -0.31883209245E+01  0.68181305007E+02  0.90907561625E+02  0.10566000000E+00 0.  1.
    -200003    1    4    4    0    0  0.19735028315E+03 -0.21600914727E+03  0.34059502293E+01  0.29414058961E+03  0.30000000000E+02 0.  1.
    -200000    1    3    3    0    0 -0.30353173431E+02  0.21691665359E+03  0.10166756146E+03  0.26174690599E+03  0.10100000000E+03 0. -1.
<mgrwt>
<rscale>  0 0.13538063E+04</rscale>
<asrwt>0</asrwt>
<pdfrwt beam="1">  1        2 0.19250584E+00 0.13538063E+04</pdfrwt>
<pdfrwt beam="2">  1       -2 0.48575027E-01 0.13538063E+04</pdfrwt>
<totfact> 0.69306336E+01</totfact>
</mgrwt>
</event>
<event>
 8    2  0.4480234E-052  0.2394925E+04  0.7818608E-02  0.8441406E-01
          2   -1    0    0  501    0  0.00000000000E+00  0.00000000000E+00  0.11858057290E+04  0.11858057290E+04  0.25500000000E-02 0.  1.
         -2   -1    0    0    0  501 -0.00000000000E+00 -0.00000000000E+00 -0.12092338411E+04  0.12092338411E+04  0.25500000000E-02 0. -1.
    -200001    2    1    2    0    0 -0.24170198457E+02  0.37974520416E+03 -0.96748102552E+03  0.12068495508E+04  0.61292388194E+03 0.  0.
   -5000001    2    3    3    0    0 -0.22278450439E+03  0.14903091644E+03 -0.79791370733E+03  0.84403995825E+03  0.62402061898E+02 0.  0.
     200001    1    1    2    0    0  0.24170198457E+02 -0.37974520416E+03  0.94405291340E+03  0.11881900193E+04  0.61300000000E+03 0.  1.
         13    1    4    4    0    0 -0.93712499822E+02  0.61362673736E+02 -0.25883635938E+03  0.28203489580E+03  0.10566000000E+00 0.  1.
    -200003    1    4    4    0    0 -0.12907200456E+03  0.87668242700E+02 -0.53907734795E+03  0.56200506244E+03  0.30000000000E+02 0.  1.
    -200000    1    3    3    0    0  0.19861430593E+03  0.23071428773E+03 -0.16956731819E+03  0.36280959260E+03  0.10100000000E+03 0.  1.
<mgrwt>
<rscale>  0 0.23949250E+04</rscale>
<asrwt>0</asrwt>
<pdfrwt beam="1">  1        2 0.16940082E+00 0.23949250E+04</pdfrwt>
<pdfrwt beam="2">  1       -2 0.17274769E+00 0.23949250E+04</pdfrwt>
<totfact> 0.40132827E+00</totfact>
</mgrwt>
</event>
<event>
 8    2  0.4480234E-052  0.1498609E+04  0.7818608E-02  0.8885379E-01
         -2   -1    0    0    0  501 -0.00000000000E+00  0.00000000000E+00  0.51765782158E+03  0.51765782158E+03  0.25500000000E-02 0.  1.
          2   -1    0    0  501    0  0.00000000000E+00 -0.00000000000E+00 -0.10846101151E+04  0.10846101151E+04  0.25500000000E-02 0. -1.
    -200001    2    1    2    0    0  0.49440366751E+01  0.17908455201E+03  0.13750116833E+03  0.65141600280E+03  0.61101597127E+03 0.  0.
   -5000001    2    3    3    0    0  0.36227981625E+02  0.38926889945E+03  0.82211429792E+02  0.40972591134E+03  0.90960763555E+02 0.  0.
     200001    1    1    2    0    0 -0.49440366751E+01 -0.17908455201E+03 -0.70445346188E+03  0.95085193391E+03  0.61300000000E+03 0. -1.
         13    1    4    4    0    0  0.32259529303E+02  0.33015168182E+03  0.48511037942E+02  0.33525235601E+03  0.10566000000E+00 0.  1.
    -200003    1    4    4    0    0  0.39684523220E+01  0.59117217626E+02  0.33700391850E+02  0.74473555337E+02  0.30000000000E+02 0.  1.
    -200000    1    3    3    0    0 -0.31283944950E+02 -0.21018434744E+03  0.55289738543E+02  0.24169009146E+03  0.10100000000E+03 0. -1.
<mgrwt>
<rscale>  0 0.14986086E+04</rscale>
<asrwt>0</asrwt>
<pdfrwt beam="1">  1        2 0.15494430E+00 0.14986086E+04</pdfrwt>
<pdfrwt beam="2">  1       -2 0.73951118E-01 0.14986086E+04</pdfrwt>
<totfact> 0.39798178E+01</totfact>
</mgrwt>
</event>
<event>
 8    2  0.4480234E-052  0.1577600E+04  0.7818608E-02  0.8834429E-01
          2   -1    0    0  501    0  0.00000000000E+00  0.00000000000E+00  0.19363547627E+04  0.19363547627E+04  0.25500000000E-02 0.  1.
         -2   -1    0    0    0  501 -0.00000000000E+00 -0.00000000000E+00 -0.32132805607E+03  0.32132805608E+03  0.25500000000E-02 0. -1.
    -200001    2    1    2    0    0 -0.70580750309E+02  0.32261217426E+03  0.13366602261E+04  0.15078047255E+04  0.61461717590E+03 0.  0.
   -5000001    2    3    3    0    0 -0.18670949196E+03 -0.11491503512E+03  0.45669433504E+03  0.51309023731E+03  0.81400100030E+02 0.  0.
     200001    1    1    2    0    0  0.70580750309E+02 -0.32261217426E+03  0.27836648053E+03  0.74987809328E+03  0.61300000000E+03 0. -1.
         13    1    4    4    0    0 -0.14958223882E+03 -0.10226394512E+03  0.39063499178E+03  0.43061405993E+03  0.10566000000E+00 0.  1.
    -200003    1    4    4    0    0 -0.37127253142E+02 -0.12651089993E+02  0.66059343259E+02  0.82476177383E+02  0.30000000000E+02 0. -1.
    -200000    1    3    3    0    0  0.11612874165E+03  0.43752720938E+03  0.87996589109E+03  0.99471448821E+03  0.10100000000E+03 0.  1.
<mgrwt>
<rscale>  0 0.15775996E+04</rscale>
<asrwt>0</asrwt>
<pdfrwt beam="1">  1        2 0.27662211E+00 0.15775996E+04</pdfrwt>
<pdfrwt beam="2">  1       -2 0.45904008E-01 0.15775996E+04</pdfrwt>
<totfact> 0.37466084E+01</totfact>
</mgrwt>
</event>
<event>
 8    2  0.4480234E-052  0.1374734E+04  0.7818608E-02  0.8972313E-01
         -2   -1    0    0    0  501 -0.00000000000E+00  0.00000000000E+00  0.62769529871E+03  0.62769529871E+03  0.25500000000E-02 0. -1.
          2   -1    0    0  501    0  0.00000000000E+00 -0.00000000000E+00 -0.75271087883E+03  0.75271087883E+03  0.25500000000E-02 0.  1.
    -200001    2    1    2    0    0  0.13710053398E+03 -0.27760540032E+03 -0.84803075385E+02  0.69247641351E+03  0.61357208784E+03 0.  0.
   -5000001    2    3    3    0    0  0.47021318038E+01  0.88200335860E+02  0.17406639235E+03  0.21439945857E+03  0.88693909596E+02 0.  0.
     200001    1    1    2    0    0 -0.13710053398E+03  0.27760540032E+03 -0.40212504737E+02  0.68792976403E+03  0.61300000000E+03 0.  1.
         13    1    4    4    0    0 -0.16841345013E+02  0.67313642332E+02  0.56731624278E+02  0.89628375546E+02  0.10566000000E+00 0.  1.
    -200003    1    4    4    0    0  0.21543476816E+02  0.20886693527E+02  0.11733476808E+03  0.12477108302E+03  0.30000000000E+02 0.  1.
    -200000    1    3    3    0    0  0.13239840218E+03 -0.36580573618E+03 -0.25886946774E+03  0.47807695494E+03  0.10100000000E+03 0.  1.
<mgrwt>
<rscale>  0 0.13747335E+04</rscale>
<asrwt>0</asrwt>
<pdfrwt beam="1">  1        2 0.10753012E+00 0.13747335E+04</pdfrwt>
<pdfrwt beam="2">  1       -2 0.89670758E-01 0.13747335E+04</pdfrwt>
<totfact> 0.42785380E+01</totfact>
</mgrwt>
</event>
<event>
 8    2  0.4480234E-052  0.1474446E+04  0.7818608E-02  0.8901626E-01
          2   -1    0    0  501    0  0.00000000000E+00  0.00000000000E+00  0.15250408973E+04  0.15250408973E+04  0.25500000000E-02 0. -1.
         -2   -1    0    0    0  501 -0.00000000000E+00 -0.00000000000E+00 -0.35638221951E+03  0.35638221952E+03  0.25500000000E-02 0.  1.
    -200001    2    1    2    0    0 -0.20732238372E+03 -0.30021143502E+03  0.82183926671E+03  0.10882256758E+04  0.61294850085E+03 0.  0.
   -5000001    2    3    3    0    0 -0.20352215294E+03  0.38904889755E+02  0.66616098548E+03  0.70163668123E+03  0.74757719944E+02 0.  0.
     200001    1    1    2    0    0  0.20732238372E+03  0.30021143502E+03  0.34681941108E+03  0.79319744100E+03  0.61300000000E+03 0.  1.
         13    1    4    4    0    0 -0.14329903726E+00 -0.38522062995E+01  0.60242538022E+02  0.60365839507E+02  0.10566000000E+00 0.  1.
    -200003    1    4    4    0    0 -0.20337885391E+03  0.42757096054E+02  0.60591844746E+03  0.64127084173E+03  0.30000000000E+02 0.  1.
    -200000    1    3    3    0    0 -0.38002307733E+01 -0.33911632478E+03  0.15567828123E+03  0.38658899458E+03  0.10100000000E+03 0.  1.
<mgrwt>
<rscale>  0 0.14744456E+04</rscale>
<asrwt>0</asrwt>
<pdfrwt beam="1">  1        2 0.21786299E+00 0.14744456E+04</pdfrwt>
<pdfrwt beam="2">  1       -2 0.50911745E-01 0.14744456E+04</pdfrwt>
<totfact> 0.50105338E+01</totfact>
</mgrwt>
</event>
<event>
 8    2  0.4480234E-052  0.1373429E+04  0.7818608E-02  0.8973280E-01
          2   -1    0    0  501    0  0.00000000000E+00  0.00000000000E+00  0.88070303496E+03  0.88070303496E+03  0.25500000000E-02 0.  1.
         -2   -1    0    0    0  501 -0.00000000000E+00 -0.00000000000E+00 -0.53545514194E+03  0.53545514194E+03  0.25500000000E-02 0. -1.
    -200001    2    1    2    0    0  0.19855131997E+03  0.22172725280E+03  0.85075194807E+02  0.68674441627E+03  0.61302080162E+03 0.  0.
   -5000001    2    3    3    0    0 -0.12414218071E+03 -0.11825619457E+03  0.40634748677E+02  0.20518881915E+03  0.10514494814E+03 0.  0.
     200001    1    1    2    0    0 -0.19855131997E+03 -0.22172725280E+03  0.26017269822E+03  0.72941376063E+03  0.61300000000E+03 0.  1.
         13    1    4    4    0    0 -0.10816393050E+03 -0.12215448656E+03  0.17962388293E+02  0.16414570663E+03  0.10566000000E+00 0.  1.
    -200003    1    4    4    0    0 -0.15978250210E+02  0.38982919865E+01  0.22672360384E+02  0.41043112523E+02  0.30000000000E+02 0.  1.
    -200000    1    3    3    0    0  0.32269350068E+03  0.33998344737E+03  0.44440446130E+02  0.48155559712E+03  0.10100000000E+03 0.  1.
<mgrwt>
<rscale>  0 0.13734292E+04</rscale>
<asrwt>0</asrwt>
<pdfrwt beam="1">  1        2 0.12581472E+00 0.13734292E+04</pdfrwt>
<pdfrwt beam="2">  1       -2 0.76493592E-01 0.13734292E+04</pdfrwt>
<totfact> 0.49986383E+01</totfact>
</mgrwt>
</event>
<event>
 8    2  0.4480234E-052  0.1590084E+04  0.7818608E-02  0.8826663E-01
         -2   -1    0    0    0  501 -0.00000000000E+00  0.00000000000E+00  0.11683910421E+04  0.11683910421E+04  0.25500000000E-02 0. -1.
          2   -1    0    0  501    0  0.00000000000E+00 -0.00000000000E+00 -0.54099307410E+03  0.54099307410E+03  0.25500000000E-02 0.  1.
    -200001    2    1    2    0    0 -0.47006293000E+03 -0.10247052599E+03  0.14723611670E+03  0.79407882816E+03  0.61434790178E+03 0.  0.
   -5000001    2    3    3    0    0 -0.31345887763E+03 -0.12461582139E+03  0.36779479707E+03  0.50448881657E+03  0.73826705145E+02 0.  0.
     200001    1    1    2    0    0  0.47006293000E+03  0.10247052599E+03  0.48016185128E+03  0.91530528802E+03  0.61300000000E+03 0. -1.
         13    1    4    4    0    0 -0.22342597837E+02  0.59787812100E+01  0.13603176078E+02  0.26832723796E+02  0.10566000000E+00 0.  1.
    -200003    1    4    4    0    0 -0.29111627979E+03 -0.13059460260E+03  0.35419162099E+03  0.47765609278E+03  0.30000000000E+02 0.  1.
    -200000    1    3    3    0    0 -0.15660405237E+03  0.22145295399E+02 -0.22055868037E+03  0.28959001159E+03  0.10100000000E+03 0.  1.
<mgrwt>
<rscale>  0 0.15900836E+04</rscale>
<asrwt>0</asrwt>
<pdfrwt beam="1">  1        2 0.77284726E-01 0.15900836E+04</pdfrwt>
<pdfrwt beam="2">  1       -2 0.16691300E+00 0.15900836E+04</pdfrwt>
<totfact> 0.13209422E+01</totfact>
</mgrwt>
</event>
<event>
 8    2  0.4480234E-052  0.1352963E+04  0.7818608E-02  0.8988588E-01
          2   -1    0    0  501    0  0.00000000000E+00  0.00000000000E+00  0.20990995242E+04  0.20990995242E+04  0.25500000000E-02 0.  1.
         -2   -1    0    0    0  501 -0.00000000000E+00 -0.00000000000E+00 -0.21801114454E+03  0.21801114456E+03  0.25500000000E-02 0. -1.
    -200001    2    1    2    0    0  0.75328712428E+02  0.25866078424E+03  0.75450866360E+03  0.10065647242E+04  0.60935162616E+03 0.  0.
   -5000001    2    3    3    0    0  0.10374084084E+02 -0.30114646597E+01  0.66735368810E+03  0.70575172689E+03  0.22936404349E+03 0.  0.
     200001    1    1    2    0    0 -0.75328712428E+02 -0.25866078424E+03  0.11265797161E+04  0.13105459446E+04  0.61300000000E+03 0. -1.
         13    1    4    4    0    0 -0.44332906783E+02  0.97247754290E+02  0.38831663642E+03  0.40275594797E+03  0.10566000000E+00 0.  1.
    -200003    1    4    4    0    0  0.54706990867E+02 -0.10025921895E+03  0.27903705167E+03  0.30299577892E+03  0.30000000000E+02 0.  1.
    -200000    1    3    3    0    0  0.64954628344E+02  0.26167224890E+03  0.87154975501E+02  0.30081299730E+03  0.10100000000E+03 0. -1.
<mgrwt>
<rscale>  0 0.13529628E+04</rscale>
<asrwt>0</asrwt>
<pdfrwt beam="1">  1        2 0.29987136E+00 0.13529628E+04</pdfrwt>
<pdfrwt beam="2">  1       -2 0.31144450E-01 0.13529628E+04</pdfrwt>
<totfact> 0.66660379E+01</totfact>
</mgrwt>
</event>
<event>
 8    2  0.4480234E-052  0.1476787E+04  0.7818608E-02  0.8900038E-01
          2   -1    0    0  501    0  0.00000000000E+00  0.00000000000E+00  0.44448952403E+03  0.44448952403E+03  0.25500000000E-02 0.  1.
         -2   -1    0    0    0  501 -0.00000000000E+00 -0.00000000000E+00 -0.12266319041E+04  0.12266319041E+04  0.25500000000E-02 0. -1.
    -200001    2    1    2    0    0 -0.31316170822E+03 -0.24336916392E+03 -0.26592454292E+03  0.77694657899E+03  0.61288768844E+03 0.  0.
   -5000001    2    3    3    0    0  0.10708409553E+03 -0.22622498937E+03  0.15631167242E+01  0.26836904670E+03  0.96823305901E+02 0.  0.
     200001    1    1    2    0    0  0.31316170822E+03  0.24336916392E+03 -0.51621783715E+03  0.89417484914E+03  0.61300000000E+03 0. -1.
         13    1    4    4    0    0  0.64123875787E+02 -0.74425055743E+02 -0.33876234868E+02  0.10391617209E+03  0.10566000000E+00 0.  1.
    -200003    1    4    4    0    0  0.42960219742E+02 -0.15179993362E+03  0.35439351592E+02  0.16445287462E+03  0.30000000000E+02 0.  1.
    -200000    1    3    3    0    0 -0.42024580374E+03 -0.17144174555E+02 -0.26748765965E+03  0.50857753229E+03  0.10100000000E+03 0. -1.
<mgrwt>
<rscale>  0 0.14767871E+04</rscale>
<asrwt>0</asrwt>
<pdfrwt beam="1">  1        2 0.63498504E-01 0.14767871E+04</pdfrwt>
<pdfrwt beam="2">  1       -2 0.17523313E+00 0.14767871E+04</pdfrwt>
<totfact> 0.14559718E+01</totfact>
</mgrwt>
</event>
<event>
 8    2  0.4480234E-052  0.1517360E+04  0.7818608E-02  0.8872990E-01
          2   -1    0    0  501    0  0.00000000000E+00  0.00000000000E+00  0.11077581682E+04  0.11077581682E+04  0.25500000000E-02 0.  1.
         -2   -1    0    0    0  501 -0.00000000000E+00 -0.00000000000E+00 -0.51960354966E+03  0.51960354966E+03  0.25500000000E-02 0. -1.
    -200001    2    1    2    0    0 -0.17291111808E+03 -0.41233051650E+03  0.27720093208E+03  0.80737641022E+03  0.61245538731E+03 0.  0.
   -5000001    2    3    3    0    0 -0.19130578461E+03 -0.50455570945E+03  0.18397847947E+03  0.64083729877E+03  0.29266020472E+03 0.  0.
     200001    1    1    2    0    0  0.17291111808E+03  0.41233051650E+03  0.31095368643E+03  0.81998530761E+03  0.61300000000E+03 0.  1.
         13    1    4    4    0    0  0.10727518538E+02  0.32219093188E+02 -0.87037770246E+01  0.35055905614E+02  0.10566000000E+00 0.  1.
    -200003    1    4    4    0    0 -0.20203330314E+03 -0.53677480264E+03  0.19268225650E+03  0.60578139316E+03  0.30000000000E+02 0.  1.
    -200000    1    3    3    0    0  0.18394666523E+02  0.92225192953E+02  0.93222452608E+02  0.16653911145E+03  0.10100000000E+03 0.  1.
<mgrwt>
<rscale>  0 0.15173596E+04</rscale>
<asrwt>0</asrwt>
<pdfrwt beam="1">  1        2 0.15825117E+00 0.15173596E+04</pdfrwt>
<pdfrwt beam="2">  1       -2 0.74229079E-01 0.15173596E+04</pdfrwt>
<totfact> 0.38189534E+01</totfact>
</mgrwt>
</event>
<event>
 8    2  0.4480234E-052  0.1600879E+04  0.7818608E-02  0.8820008E-01
         -2   -1    0    0    0  501 -0.00000000000E+00  0.00000000000E+00  0.92226799260E+03  0.92226799260E+03  0.25500000000E-02 0. -1.
          2   -1    0    0  501    0  0.00000000000E+00 -0.00000000000E+00 -0.69470446331E+03  0.69470446332E+03  0.25500000000E-02 0.  1.
    -200001    2    1    2    0    0  0.41753572332E+03 -0.29284783378E+03  0.45613161740E+02  0.79906606137E+03  0.61345747685E+03 0.  0.
   -5000001    2    3    3    0    0  0.47574394031E+03 -0.25937815561E+03  0.20549296443E+03  0.59838978676E+03  0.14910953735E+03 0.  0.
     200001    1    1    2    0    0 -0.41753572332E+03  0.29284783378E+03  0.18195036754E+03  0.81790639455E+03  0.61300000000E+03 0.  1.
         13    1    4    4    0    0  0.17978544067E+03 -0.11416642700E+03  0.15529929465E+03  0.26358046174E+03  0.10566000000E+00 0.  1.
    -200003    1    4    4    0    0  0.29595849964E+03 -0.14521172860E+03  0.50193669774E+02  0.33480932502E+03  0.30000000000E+02 0.  1.
    -200000    1    3    3    0    0 -0.58208216987E+02 -0.33469678172E+02 -0.15987980269E+03  0.20067627460E+03  0.10100000000E+03 0. -1.
<mgrwt>
<rscale>  0 0.16008794E+04</rscale>
<asrwt>0</asrwt>
<pdfrwt beam="1">  1        2 0.99243495E-01 0.16008794E+04</pdfrwt>
<pdfrwt beam="2">  1       -2 0.13175257E+00 0.16008794E+04</pdfrwt>
<totfact> 0.18326171E+01</totfact>
</mgrwt>
</event>
<event>
 8    2  0.4480234E-052  0.1762122E+04  0.7818608E-02  0.8726706E-01
         -2   -1    0    0    0  501 -0.00000000000E+00  0.00000000000E+00  0.64131472606E+03  0.64131472607E+03  0.25500000000E-02 0. -1.
          2   -1    0    0  501    0  0.00000000000E+00 -0.00000000000E+00 -0.12104324624E+04  0.12104324624E+04  0.25500000000E-02 0.  1.
    -200001    2    1    2    0    0 -0.42979459255E+03 -0.36480676180E+03 -0.58704969424E+03  0.10187418342E+04  0.61269912347E+03 0.  0.
   -5000001    2    3    3    0    0 -0.90829441231E+01 -0.20328189246E+03  0.59552663521E+02  0.22414496555E+03  0.72721511077E+02 0.  0.
     200001    1    1    2    0    0  0.42979459255E+03  0.36480676180E+03  0.17931957869E+02  0.83300535434E+03  0.61300000000E+03 0. -1.
         13    1    4    4    0    0 -0.21514315445E+02 -0.86264620915E+02  0.40368942340E-01  0.88907049126E+02  0.10566000000E+00 0.  1.
    -200003    1    4    4    0    0  0.12431371322E+02 -0.11701727154E+03  0.59512294578E+02  0.13523791642E+03  0.30000000000E+02 0.  1.
    -200000    1    3    3    0    0 -0.42071164843E+03 -0.16152486935E+03 -0.64660235776E+03  0.79459686861E+03  0.10100000000E+03 0.  1.
<mgrwt>
<rscale>  0 0.17621216E+04</rscale>
<asrwt>0</asrwt>
<pdfrwt beam="1">  1        2 0.17291892E+00 0.17621216E+04</pdfrwt>
<pdfrwt beam="2">  1       -2 0.91616390E-01 0.17621216E+04</pdfrwt>
<totfact> 0.20307042E+01</totfact>
</mgrwt>
</event>
<event>
 8    2  0.4480234E-052  0.1570855E+04  0.7818608E-02  0.8838656E-01
          2   -1    0    0  501    0  0.00000000000E+00  0.00000000000E+00  0.26973583122E+04  0.26973583122E+04  0.25500000000E-02 0.  1.
         -2   -1    0    0    0  501 -0.00000000000E+00 -0.00000000000E+00 -0.22870394223E+03  0.22870394224E+03  0.25500000000E-02 0. -1.
    -200001    2    1    2    0    0  0.62863903337E+02 -0.52126234814E+01  0.21398641489E+04  0.22275989044E+04  0.61579157317E+03 0.  0.
   -5000001    2    3    3    0    0  0.22599455957E+03  0.46818306642E+02  0.19002242642E+04  0.19162356069E+04  0.88550281295E+02 0.  0.
     200001    1    1    2    0    0 -0.62863903337E+02  0.52126234814E+01  0.32879022105E+03  0.69846334997E+03  0.61300000000E+03 0. -1.
         13    1    4    4    0    0  0.13021512680E+03  0.48239980752E+02  0.13314558477E+04  0.13386776163E+04  0.10566000000E+00 0.  1.
    -200003    1    4    4    0    0  0.95779432772E+02 -0.14216741097E+01  0.56876841652E+03  0.57755799062E+03  0.30000000000E+02 0.  1.
    -200000    1    3    3    0    0 -0.16313065623E+03 -0.52030930123E+02  0.23963988471E+03  0.31136329751E+03  0.10100000000E+03 0. -1.
<mgrwt>
<rscale>  0 0.15708552E+04</rscale>
<asrwt>0</asrwt>
<pdfrwt beam="1">  1        2 0.38533691E+00 0.15708552E+04</pdfrwt>
<pdfrwt beam="2">  1       -2 0.32671991E-01 0.15708552E+04</pdfrwt>
<totfact> 0.29149165E+01</totfact>
</mgrwt>
</event>
<event>
 8    2  0.4480234E-052  0.1265256E+04  0.7818608E-02  0.9057580E-01
         -2   -1    0    0    0  501 -0.00000000000E+00  0.00000000000E+00  0.21732154972E+03  0.21732154974E+03  0.25500000000E-02 0. -1.
          2   -1    0    0  501    0  0.00000000000E+00 -0.00000000000E+00 -0.18415944728E+04  0.18415944728E+04  0.25500000000E-02 0.  1.
    -200001    2    1    2    0    0  0.14394348898E+03  0.12418284745E+02 -0.91145098211E+03  0.11077283117E+04  0.61273581408E+03 0.  0.
   -5000001    2    3    3    0    0 -0.53215025348E+02  0.46080535111E+02 -0.86635184511E+03  0.87916856230E+03  0.13197191660E+03 0.  0.
     200001    1    1    2    0    0 -0.14394348898E+03 -0.12418284745E+02 -0.71282194101E+03  0.95118771092E+03  0.61300000000E+03 0. -1.
         13    1    4    4    0    0 -0.46869803554E+02 -0.14200832444E+02 -0.11789700422E+03  0.12766423499E+03  0.10566000000E+00 0.  1.
    -200003    1    4    4    0    0 -0.63452217942E+01  0.60281367555E+02 -0.74845484089E+03  0.75150432731E+03  0.30000000000E+02 0.  1.
    -200000    1    3    3    0    0  0.19715851433E+03 -0.33662250366E+02 -0.45099136996E+02  0.22855974936E+03  0.10100000000E+03 0. -1.
<mgrwt>
<rscale>  0 0.12652560E+04</rscale>
<asrwt>0</asrwt>
<pdfrwt beam="1">  1        2 0.26308492E+00 0.12652560E+04</pdfrwt>
<pdfrwt beam="2">  1       -2 0.31045937E-01 0.12652560E+04</pdfrwt>
<totfact> 0.91510354E+01</totfact>
</mgrwt>
</event>
<event>
 8    2  0.4480234E-052  0.1444307E+04  0.7818608E-02  0.8922357E-01
         -2   -1    0    0    0  501 -0.00000000000E+00  0.00000000000E+00  0.70303032537E+03  0.70303032538E+03  0.25500000000E-02 0. -1.
          2   -1    0    0  501    0  0.00000000000E+00 -0.00000000000E+00 -0.74179687879E+03  0.74179687879E+03  0.25500000000E-02 0.  1.
    -200001    2    1    2    0    0  0.23192029021E+03 -0.30205862210E+03 -0.20994793539E+02  0.72294683482E+03  0.61415381821E+03 0.  0.
   -5000001    2    3    3    0    0  0.10309826383E+03 -0.41770605884E+03  0.15000528864E+03  0.45948626432E+03  0.59316413236E+02 0.  0.
     200001    1    1    2    0    0 -0.23192029021E+03  0.30205862210E+03 -0.17771759876E+02  0.72188036935E+03  0.61300000000E+03 0.  1.
         13    1    4    4    0    0  0.19817744626E+02 -0.15496041419E+03  0.40487048297E+02  0.16138365844E+03  0.10566000000E+00 0.  1.
    -200003    1    4    4    0    0  0.83280519209E+02 -0.26274564464E+03  0.10951824035E+03  0.29810260587E+03  0.30000000000E+02 0.  1.
    -200000    1    3    3    0    0  0.12882202638E+03  0.11564743674E+03 -0.17100008218E+03  0.26346057050E+03  0.10100000000E+03 0.  1.
<mgrwt>
<rscale>  0 0.14443070E+04</rscale>
<asrwt>0</asrwt>
<pdfrwt beam="1">  1        2 0.10597098E+00 0.14443070E+04</pdfrwt>
<pdfrwt beam="2">  1       -2 0.10043290E+00 0.14443070E+04</pdfrwt>
<totfact> 0.33270732E+01</totfact>
</mgrwt>
</event>
<event>
 8    2  0.4480234E-052  0.1602527E+04  0.7818608E-02  0.8818997E-01
         -2   -1    0    0    0  501 -0.00000000000E+00  0.00000000000E+00  0.88147146755E+03  0.88147146756E+03  0.25500000000E-02 0.  1.
          2   -1    0    0  501    0  0.00000000000E+00 -0.00000000000E+00 -0.72835436013E+03  0.72835436014E+03  0.25500000000E-02 0. -1.
    -200001    2    1    2    0    0  0.41863392763E+03  0.13710088868E+03 -0.19336133312E+03  0.77924330392E+03  0.61300938208E+03 0.  0.
   -5000001    2    3    3    0    0  0.38868049735E+03 -0.13873419251E+03 -0.65517607255E+00  0.42665450238E+03  0.10823091035E+03 0.  0.
     200001    1    1    2    0    0 -0.41863392763E+03 -0.13710088868E+03  0.34647844055E+03  0.83058252378E+03  0.61300000000E+03 0.  1.
         13    1    4    4    0    0  0.21045164133E+03 -0.34924686769E+02 -0.32556989875E+02  0.21579989768E+03  0.10566000000E+00 0.  1.
    -200003    1    4    4    0    0  0.17822885602E+03 -0.10380950574E+03  0.31901813802E+02  0.21085460470E+03  0.30000000000E+02 0.  1.
    -200000    1    3    3    0    0  0.29953430278E+02  0.27583508119E+03 -0.19270615705E+03  0.35258880154E+03  0.10100000000E+03 0.  1.
<mgrwt>
<rscale>  0 0.16025275E+04</rscale>
<asrwt>0</asrwt>
<pdfrwt beam="1">  1        2 0.10405062E+00 0.16025275E+04</pdfrwt>
<pdfrwt beam="2">  1       -2 0.12592450E+00 0.16025275E+04</pdfrwt>
<totfact> 0.19372957E+01</totfact>
</mgrwt>
</event>
<event>
 8    2  0.4480234E-052  0.1347731E+04  0.7818608E-02  0.8992547E-01
         -2   -1    0    0    0  501 -0.00000000000E+00  0.00000000000E+00  0.58922633091E+03  0.58922633091E+03  0.25500000000E-02 0. -1.
          2   -1    0    0  501    0  0.00000000000E+00 -0.00000000000E+00 -0.77066310443E+03  0.77066310444E+03  0.25500000000E-02 0.  1.
    -200001    2    1    2    0    0  0.25849876379E+02 -0.18572851159E+03  0.12071070029E+03  0.65121081139E+03  0.61183425172E+03 0.  0.
   -5000001    2    3    3    0    0  0.54284374368E+02  0.36916105566E+02 -0.21330439388E+03  0.23630572663E+03  0.77666207839E+02 0.  0.
     200001    1    1    2    0    0 -0.25849876379E+02  0.18572851159E+03 -0.30214747381E+03  0.70867862396E+03  0.61300000000E+03 0.  1.
         13    1    4    4    0    0  0.56094416333E+02  0.82302165511E+01 -0.15218099956E+03  0.16239885406E+03  0.10566000000E+00 0.  1.
    -200003    1    4    4    0    0 -0.18100419648E+01  0.28685889015E+02 -0.61123394316E+02  0.73906872571E+02  0.30000000000E+02 0.  1.
    -200000    1    3    3    0    0 -0.28434497989E+02 -0.22264461716E+03  0.33401509417E+03  0.41490508476E+03  0.10100000000E+03 0. -1.
<mgrwt>
<rscale>  0 0.13477314E+04</rscale>
<asrwt>0</asrwt>
<pdfrwt beam="1">  1        2 0.11009473E+00 0.13477314E+04</pdfrwt>
<pdfrwt beam="2">  1       -2 0.84175190E-01 0.13477314E+04</pdfrwt>
<totfact> 0.48082096E+01</totfact>
</mgrwt>
</event>
<event>
 8    2  0.4480234E-052  0.1372182E+04  0.7818608E-02  0.8974204E-01
         -2   -1    0    0    0  501 -0.00000000000E+00  0.00000000000E+00  0.45426530881E+03  0.45426530881E+03  0.25500000000E-02 0. -1.
          2   -1    0    0  501    0  0.00000000000E+00 -0.00000000000E+00 -0.10362248190E+04  0.10362248190E+04  0.25500000000E-02 0.  1.
    -200001    2    1    2    0    0 -0.78827440336E+02 -0.44643039208E+02  0.24029373424E+02  0.62377316515E+03  0.61669180672E+03 0.  0.
   -5000001    2    3    3    0    0  0.17134233806E+03 -0.88748007142E+02  0.20014002263E+03  0.29858686934E+03  0.10892054122E+03 0.  0.
     200001    1    1    2    0    0  0.78827440336E+02  0.44643039208E+02 -0.60598888362E+03  0.86671696267E+03  0.61300000000E+03 0.  1.
         13    1    4    4    0    0 -0.11129634749E+02 -0.19422279180E+02  0.32929471333E+02  0.39817771717E+02  0.10566000000E+00 0.  1.
    -200003    1    4    4    0    0  0.18247197281E+03 -0.69325727962E+02  0.16721055130E+03  0.25876909762E+03  0.30000000000E+02 0.  1.
    -200000    1    3    3    0    0 -0.25016977840E+03  0.44104967933E+02 -0.17611064921E+03  0.32518629581E+03  0.10100000000E+03 0. -1.
<mgrwt>
<rscale>  0 0.13721822E+04</rscale>
<asrwt>0</asrwt>
<pdfrwt beam="1">  1        2 0.14803212E+00 0.13721822E+04</pdfrwt>
<pdfrwt beam="2">  1       -2 0.64895044E-01 0.13721822E+04</pdfrwt>
<totfact> 0.57085057E+01</totfact>
</mgrwt>
</event>
<event>
 8    2  0.4480234E-052  0.1482382E+04  0.7818608E-02  0.8896254E-01
          2   -1    0    0  501    0  0.00000000000E+00  0.00000000000E+00  0.11358602976E+04  0.11358602976E+04  0.25500000000E-02 0.  1.
         -2   -1    0    0    0  501 -0.00000000000E+00 -0.00000000000E+00 -0.48365486268E+03  0.48365486269E+03  0.25500000000E-02 0. -1.
    -200001    2    1    2    0    0 -0.50913111319E+02  0.39958375919E+03  0.21137072197E+03  0.76373272903E+03  0.61347434647E+03 0.  0.
   -5000001    2    3    3    0    0 -0.71391451750E+02 -0.38443351648E+02 -0.15080837077E+03  0.18609806294E+03  0.72901945556E+02 0.  0.
     200001    1    1    2    0    0  0.50913111319E+02 -0.39958375919E+03  0.44083471295E+03  0.85578243126E+03  0.61300000000E+03 0.  1.
         13    1    4    4    0    0  0.64934173814E+01 -0.23303693633E+02 -0.31942997982E+02  0.40069850141E+02  0.10566000000E+00 0.  1.
    -200003    1    4    4    0    0 -0.77884869131E+02 -0.15139658015E+02 -0.11886537279E+03  0.14602821280E+03  0.30000000000E+02 0.  1.
    -200000    1    3    3    0    0  0.20478340431E+02  0.43802711084E+03  0.36217909274E+03  0.57763466610E+03  0.10100000000E+03 0.  1.
<mgrwt>
<rscale>  0 0.14823823E+04</rscale>
<asrwt>0</asrwt>
<pdfrwt beam="1">  1        2 0.16226576E+00 0.14823823E+04</pdfrwt>
<pdfrwt beam="2">  1       -2 0.69093552E-01 0.14823823E+04</pdfrwt>
<totfact> 0.43141426E+01</totfact>
</mgrwt>
</event>
<event>
 8    2  0.4480234E-052  0.1638874E+04  0.7818608E-02  0.8797016E-01
          2   -1    0    0  501    0  0.00000000000E+00  0.00000000000E+00  0.11043603406E+04  0.11043603406E+04  0.25500000000E-02 0.  1.
         -2   -1    0    0    0  501 -0.00000000000E+00 -0.00000000000E+00 -0.60802310586E+03  0.60802310587E+03  0.25500000000E-02 0. -1.
    -200001    2    1    2    0    0 -0.59048135830E+02 -0.31957009393E+03 -0.20755616337E+03  0.72402792179E+03  0.61280106340E+03 0.  0.
   -5000001    2    3    3    0    0 -0.18441001314E+03  0.10695589235E+03  0.20189745330E+01  0.22226826251E+03  0.62868818999E+02 0.  0.
     200001    1    1    2    0    0  0.59048135830E+02  0.31957009393E+03  0.70389339814E+03  0.98835552471E+03  0.61300000000E+03 0.  1.
         13    1    4    4    0    0 -0.31261332689E+02  0.16572520350E+02  0.20645927852E+02  0.40965654555E+02  0.10566000000E+00 0.  1.
    -200003    1    4    4    0    0 -0.15314868046E+03  0.90383372004E+02 -0.18626953319E+02  0.18130260795E+03  0.30000000000E+02 0.  1.
    -200000    1    3    3    0    0  0.12536187731E+03 -0.42652598628E+03 -0.20957513790E+03  0.50175965928E+03  0.10100000000E+03 0. -1.
<mgrwt>
<rscale>  0 0.16388735E+04</rscale>
<asrwt>0</asrwt>
<pdfrwt beam="1">  1        2 0.15776576E+00 0.16388735E+04</pdfrwt>
<pdfrwt beam="2">  1       -2 0.86860445E-01 0.16388735E+04</pdfrwt>
<totfact> 0.26697476E+01</totfact>
</mgrwt>
</event>
<event>
 8    2  0.4480234E-052  0.1492109E+04  0.7818608E-02  0.8889717E-01
         -2   -1    0    0    0  501 -0.00000000000E+00  0.00000000000E+00  0.62237381795E+03  0.62237381796E+03  0.25500000000E-02 0. -1.
          2   -1    0    0  501    0  0.00000000000E+00 -0.00000000000E+00 -0.89431398752E+03  0.89431398753E+03  0.25500000000E-02 0.  1.
    -200001    2    1    2    0    0 -0.18067441631E+03  0.16204737183E+03 -0.49133853693E+03  0.82184448572E+03  0.61246404418E+03 0.  0.
   -5000001    2    3    3    0    0  0.51150581142E+02  0.36675560421E+02 -0.47158127924E+03  0.53890938756E+03  0.25312634471E+03 0.  0.
     200001    1    1    2    0    0  0.18067441631E+03 -0.16204737183E+03  0.21939836736E+03  0.69484331977E+03  0.61300000000E+03 0. -1.
         13    1    4    4    0    0 -0.36745738079E+02  0.84336029946E+02 -0.40448857435E+03  0.41481783129E+03  0.10566000000E+00 0.  1.
    -200003    1    4    4    0    0  0.87896319220E+02 -0.47660469525E+02 -0.67092704894E+02  0.12409155627E+03  0.30000000000E+02 0.  1.
    -200000    1    3    3    0    0 -0.23182499745E+03  0.12537181141E+03 -0.19757257685E+02  0.28293509816E+03  0.10100000000E+03 0. -1.
<mgrwt>
<rscale>  0 0.14921094E+04</rscale>
<asrwt>0</asrwt>
<pdfrwt beam="1">  1        2 0.12775914E+00 0.14921094E+04</pdfrwt>
<pdfrwt beam="2">  1       -2 0.88910546E-01 0.14921094E+04</pdfrwt>
<totfact> 0.34538676E+01</totfact>
</mgrwt>
</event>
<event>
 8    2  0.4480234E-052  0.1559949E+04  0.7818608E-02  0.8845538E-01
          2   -1    0    0  501    0  0.00000000000E+00  0.00000000000E+00  0.27657589596E+04  0.27657589596E+04  0.25500000000E-02 0.  1.
         -2   -1    0    0    0  501 -0.00000000000E+00 -0.00000000000E+00 -0.21996134183E+03  0.21996134184E+03  0.25500000000E-02 0. -1.
    -200001    2    1    2    0    0  0.78718654486E+02 -0.81204431325E+02  0.37387523276E+03  0.72611709894E+03  0.61210502814E+03 0.  0.
   -5000001    2    3    3    0    0 -0.16953127037E+03  0.16163253625E+03  0.98785727240E+02  0.27172403775E+03  0.95965641670E+02 0.  0.
     200001    1    1    2    0    0 -0.78718654486E+02  0.81204431325E+02  0.21719223850E+04  0.22596032025E+04  0.61300000000E+03 0.  1.
         13    1    4    4    0    0 -0.11978923056E+03  0.14863192254E+03  0.57802686284E+02  0.19945443054E+03  0.10566000000E+00 0.  1.
    -200003    1    4    4    0    0 -0.49742039803E+02  0.13000613706E+02  0.40983040956E+02  0.72269607212E+02  0.30000000000E+02 0. -1.
    -200000    1    3    3    0    0  0.24824992485E+03 -0.24283696757E+03  0.27508950552E+03  0.45439306119E+03  0.10100000000E+03 0. -1.
<mgrwt>
<rscale>  0 0.15599488E+04</rscale>
<asrwt>0</asrwt>
<pdfrwt beam="1">  1        2 0.39510843E+00 0.15599488E+04</pdfrwt>
<pdfrwt beam="2">  1       -2 0.31423048E-01 0.15599488E+04</pdfrwt>
<totfact> 0.28847250E+01</totfact>
</mgrwt>
</event>
<event>
 8    2  0.4480234E-052  0.1525215E+04  0.7818608E-02  0.8867857E-01
          2   -1    0    0  501    0  0.00000000000E+00  0.00000000000E+00  0.16274640422E+04  0.16274640422E+04  0.25500000000E-02 0.  1.
         -2   -1    0    0    0  501 -0.00000000000E+00 -0.00000000000E+00 -0.35734727163E+03  0.35734727164E+03  0.25500000000E-02 0. -1.
    -200001    2    1    2    0    0 -0.40763883158E+03 -0.19856300585E+03  0.65681959954E+03  0.10062924820E+04  0.61287510037E+03 0.  0.
   -5000001    2    3    3    0    0 -0.29338889724E+03 -0.18471407453E+03  0.23517522112E+02  0.35474251332E+03  0.71364154562E+02 0.  0.
     200001    1    1    2    0    0  0.40763883158E+03  0.19856300585E+03  0.61329717105E+03  0.97851883187E+03  0.61300000000E+03 0.  1.
         13    1    4    4    0    0 -0.10569875778E+03 -0.47810037568E+02  0.32011673068E+02  0.12034444509E+03  0.10566000000E+00 0.  1.
    -200003    1    4    4    0    0 -0.18769013946E+03 -0.13690403696E+03 -0.84941509556E+01  0.23439806823E+03  0.30000000000E+02 0.  1.
    -200000    1    3    3    0    0 -0.11424993434E+03 -0.13848931325E+02  0.63330207743E+03  0.65154996867E+03  0.10100000000E+03 0.  1.
<mgrwt>
<rscale>  0 0.15252145E+04</rscale>
<asrwt>0</asrwt>
<pdfrwt beam="1">  1        2 0.23249486E+00 0.15252145E+04</pdfrwt>
<pdfrwt beam="2">  1       -2 0.51049610E-01 0.15252145E+04</pdfrwt>
<totfact> 0.43840163E+01</totfact>
</mgrwt>
</event>
<event>
 8    2  0.4480234E-052  0.1251177E+04  0.7818608E-02  0.9069204E-01
          2   -1    0    0  501    0  0.00000000000E+00  0.00000000000E+00  0.95410932455E+03  0.95410932456E+03  0.25500000000E-02 0.  1.
         -2   -1    0    0    0  501 -0.00000000000E+00 -0.00000000000E+00 -0.41018441127E+03  0.41018441128E+03  0.25500000000E-02 0. -1.
    -200001    2    1    2    0    0  0.37748819282E+02 -0.73768213431E+02  0.17109297912E+03  0.64204767402E+03  0.61325825355E+03 0.  0.
   -5000001    2    3    3    0    0  0.14015361804E+02 -0.49174550632E+02 -0.21635126374E+03  0.24019923670E+03  0.90957337204E+02 0.  0.
     200001    1    1    2    0    0 -0.37748819282E+02  0.73768213431E+02  0.37283193416E+03  0.72224606181E+03  0.61300000000E+03 0. -1.
         13    1    4    4    0    0 -0.27677830008E+02 -0.42858216239E+02 -0.12821177882E+03  0.13798971108E+03  0.10566000000E+00 0.  1.
    -200003    1    4    4    0    0  0.41693191812E+02 -0.63163343923E+01 -0.88139484924E+02  0.10220952561E+03  0.30000000000E+02 0.  1.
    -200000    1    3    3    0    0  0.23733457478E+02 -0.24593662799E+02  0.38744424286E+03  0.40184843732E+03  0.10100000000E+03 0.  1.
<mgrwt>
<rscale>  0 0.12511767E+04</rscale>
<asrwt>0</asrwt>
<pdfrwt beam="1">  1        2 0.13630133E+00 0.12511767E+04</pdfrwt>
<pdfrwt beam="2">  1       -2 0.58597773E-01 0.12511767E+04</pdfrwt>
<totfact> 0.80407579E+01</totfact>
</mgrwt>
</event>
<event>
 8    2  0.4480234E-052  0.1313167E+04  0.7818608E-02  0.9019188E-01
         -2   -1    0    0    0  501 -0.00000000000E+00  0.00000000000E+00  0.27304837170E+03  0.27304837171E+03  0.25500000000E-02 0. -1.
          2   -1    0    0  501    0  0.00000000000E+00 -0.00000000000E+00 -0.15788488911E+04  0.15788488911E+04  0.25500000000E-02 0.  1.
    -200001    2    1    2    0    0 -0.11793556038E+02 -0.22068011099E+03 -0.76882739390E+03  0.10075348188E+04  0.61252922388E+03 0.  0.
   -5000001    2    3    3    0    0 -0.50450737243E+02 -0.31811378562E+03 -0.70453082163E+03  0.84840359051E+03  0.34595276596E+03 0.  0.
     200001    1    1    2    0    0  0.11793556038E+02  0.22068011099E+03 -0.53697312549E+03  0.84436244401E+03  0.61300000000E+03 0. -1.
         13    1    4    4    0    0 -0.19420766964E+03 -0.21794325631E+03 -0.39052155567E+03  0.48756843471E+03  0.10566000000E+00 0.  1.
    -200003    1    4    4    0    0  0.14375693240E+03 -0.10017052931E+03 -0.31400926595E+03  0.36083515580E+03  0.30000000000E+02 0.  1.
    -200000    1    3    3    0    0  0.38657181205E+02  0.97433674621E+02 -0.64296572278E+02  0.15913122829E+03  0.10100000000E+03 0. -1.
<mgrwt>
<rscale>  0 0.13131673E+04</rscale>
<asrwt>0</asrwt>
<pdfrwt beam="1">  1        2 0.22554984E+00 0.13131673E+04</pdfrwt>
<pdfrwt beam="2">  1       -2 0.39006911E-01 0.13131673E+04</pdfrwt>
<totfact> 0.80770692E+01</totfact>
</mgrwt>
</event>
<event>
 8    2  0.4480234E-052  0.1823654E+04  0.7818608E-02  0.8693820E-01
         -2   -1    0    0    0  501 -0.00000000000E+00  0.00000000000E+00  0.21756206667E+04  0.21756206667E+04  0.25500000000E-02 0. -1.
          2   -1    0    0  501    0  0.00000000000E+00 -0.00000000000E+00 -0.38215710931E+03  0.38215710931E+03  0.25500000000E-02 0.  1.
    -200001    2    1    2    0    0  0.11508629176E+03 -0.41872157310E+03  0.17276771660E+03  0.77144168818E+03  0.61375971197E+03 0.  0.
   -5000001    2    3    3    0    0  0.33519723844E+03 -0.16765365116E+03 -0.33743714001E+01  0.38065918417E+03  0.66521370303E+02 0.  0.
     200001    1    1    2    0    0 -0.11508629176E+03  0.41872157310E+03  0.16206958408E+04  0.17863360878E+04  0.61300000000E+03 0. -1.
         13    1    4    4    0    0  0.16347715582E+02 -0.25216423112E+02 -0.24718123309E+01  0.30153554012E+02  0.10566000000E+00 0.  1.
    -200003    1    4    4    0    0  0.31884952286E+03 -0.14243722805E+03 -0.90255906920E+00  0.35050563016E+03  0.30000000000E+02 0. -1.
    -200000    1    3    3    0    0 -0.22011094668E+03 -0.25106792194E+03  0.17614208800E+03  0.39078250401E+03  0.10100000000E+03 0.  1.
<mgrwt>
<rscale>  0 0.18236545E+04</rscale>
<asrwt>0</asrwt>
<pdfrwt beam="1">  1        2 0.54593874E-01 0.18236545E+04</pdfrwt>
<pdfrwt beam="2">  1       -2 0.31080295E+00 0.18236545E+04</pdfrwt>
<totfact> 0.23514408E+00</totfact>
</mgrwt>
</event>
<event>
 8    2  0.4480234E-052  0.1708550E+04  0.7818608E-02  0.8756503E-01
          2   -1    0    0  501    0  0.00000000000E+00  0.00000000000E+00  0.17378891071E+04  0.17378891071E+04  0.25500000000E-02 0.  1.
         -2   -1    0    0    0  501 -0.00000000000E+00 -0.00000000000E+00 -0.41992631766E+03  0.41992631767E+03  0.25500000000E-02 0. -1.
    -200001    2    1    2    0    0 -0.11338136543E+03 -0.49074146738E+03  0.25899886517E+03  0.83461622785E+03  0.61304266882E+03 0.  0.
   -5000001    2    3    3    0    0 -0.77802240530E+02 -0.39523198657E+03  0.43908554304E+03  0.60435518771E+03  0.10093347793E+03 0.  0.
     200001    1    1    2    0    0  0.11338136543E+03  0.49074146738E+03  0.10589639243E+04  0.13231991969E+04  0.61300000000E+03 0. -1.
         13    1    4    4    0    0 -0.80063291982E+01 -0.25229791855E+03  0.24709983363E+03  0.35323742718E+03  0.10566000000E+00 0.  1.
    -200003    1    4    4    0    0 -0.69795911332E+02 -0.14293406802E+03  0.19198570941E+03  0.25111776054E+03  0.30000000000E+02 0. -1.
    -200000    1    3    3    0    0 -0.35579124903E+02 -0.95509480815E+02 -0.18008667788E+03  0.23026104013E+03  0.10100000000E+03 0. -1.
<mgrwt>
<rscale>  0 0.17085495E+04</rscale>
<asrwt>0</asrwt>
<pdfrwt beam="1">  1        2 0.24826987E+00 0.17085495E+04</pdfrwt>
<pdfrwt beam="2">  1       -2 0.59989474E-01 0.17085495E+04</pdfrwt>
<totfact> 0.27069925E+01</totfact>
</mgrwt>
</event>
<event>
 8    2  0.4480234E-052  0.1787561E+04  0.7818608E-02  0.8712942E-01
         -2   -1    0    0    0  501 -0.00000000000E+00  0.00000000000E+00  0.70757085872E+03  0.70757085872E+03  0.25500000000E-02 0. -1.
          2   -1    0    0  501    0  0.00000000000E+00 -0.00000000000E+00 -0.11289950798E+04  0.11289950798E+04  0.25500000000E-02 0.  1.
    -200001    2    1    2    0    0 -0.97836146057E+02 -0.58336514267E+03 -0.48405569418E+03  0.98241226237E+03  0.61720105073E+03 0.  0.
   -5000001    2    3    3    0    0 -0.27772743263E+03 -0.49365006981E+03 -0.48246477672E+03  0.75743848545E+03  0.14183751340E+03 0.  0.
     200001    1    1    2    0    0  0.97836146057E+02  0.58336514267E+03  0.62631473053E+02  0.85415367621E+03  0.61300000000E+03 0. -1.
         13    1    4    4    0    0 -0.90609389544E+02 -0.63981248407E+02 -0.12598684616E+03  0.16785814902E+03  0.10566000000E+00 0.  1.
    -200003    1    4    4    0    0 -0.18711804308E+03 -0.42966882140E+03 -0.35647793055E+03  0.58958033643E+03  0.30000000000E+02 0.  1.
    -200000    1    3    3    0    0  0.17989128657E+03 -0.89715072860E+02 -0.15909174650E+01  0.22497377692E+03  0.10100000000E+03 0. -1.
<mgrwt>
<rscale>  0 0.17875615E+04</rscale>
<asrwt>0</asrwt>
<pdfrwt beam="1">  1        2 0.16128501E+00 0.17875615E+04</pdfrwt>
<pdfrwt beam="2">  1       -2 0.10108155E+00 0.17875615E+04</pdfrwt>
<totfact> 0.17930804E+01</totfact>
</mgrwt>
</event>
<event>
 8    2  0.4480234E-052  0.1458974E+04  0.7818608E-02  0.8912202E-01
         -2   -1    0    0    0  501 -0.00000000000E+00  0.00000000000E+00  0.16935548956E+04  0.16935548956E+04  0.25500000000E-02 0. -1.
          2   -1    0    0  501    0  0.00000000000E+00 -0.00000000000E+00 -0.31422158890E+03  0.31422158891E+03  0.25500000000E-02 0.  1.
    -200001    2    1    2    0    0 -0.11831460992E+03  0.58835276506E+02  0.18230545774E+03  0.65644210403E+03  0.61662064460E+03 0.  0.
   -5000001    2    3    3    0    0 -0.11070897281E+03 -0.11383533185E+03  0.35225125108E+03  0.39384820201E+03  0.76292220471E+02 0.  0.
     200001    1    1    2    0    0  0.11831460992E+03 -0.58835276506E+02  0.11970278489E+04  0.13513343805E+04  0.61300000000E+03 0. -1.
         13    1    4    4    0    0 -0.21519375767E+02 -0.67624313915E+02  0.15483258844E+03  0.17032108787E+03  0.10566000000E+00 0.  1.
    -200003    1    4    4    0    0 -0.89189597041E+02 -0.46211017930E+02  0.19741866263E+03  0.22352711414E+03  0.30000000000E+02 0.  1.
    -200000    1    3    3    0    0 -0.76056371149E+01  0.17267060835E+03 -0.16994579334E+03  0.26259390202E+03  0.10100000000E+03 0. -1.
<mgrwt>
<rscale>  0 0.14589743E+04</rscale>
<asrwt>0</asrwt>
<pdfrwt beam="1">  1        2 0.44888798E-01 0.14589743E+04</pdfrwt>
<pdfrwt beam="2">  1       -2 0.24193642E+00 0.14589743E+04</pdfrwt>
<totfact> 0.79279251E+00</totfact>
</mgrwt>
</event>
<event>
 8    2  0.4480234E-052  0.2147219E+04  0.7818608E-02  0.8540723E-01
         -2   -1    0    0    0  501 -0.00000000000E+00  0.00000000000E+00  0.53905575617E+03  0.53905575617E+03  0.25500000000E-02 0. -1.
          2   -1    0    0  501    0  0.00000000000E+00 -0.00000000000E+00 -0.21382531738E+04  0.21382531738E+04  0.25500000000E-02 0.  1.
    -200001    2    1    2    0    0 -0.10934946184E+03 -0.83706753176E+03 -0.11183333139E+04  0.15285536715E+04  0.61087442918E+03 0.  0.
   -5000001    2    3    3    0    0  0.15802709761E+03 -0.36088402685E+03 -0.76145669540E+03  0.86839999570E+03  0.13817528409E+03 0.  0.
     200001    1    1    2    0    0  0.10934946184E+03  0.83706753176E+03 -0.48086410371E+03  0.11487552584E+04  0.61300000000E+03 0. -1.
         13    1    4    4    0    0  0.16355795366E+03 -0.23963050031E+03 -0.57256823310E+03  0.64187878420E+03  0.10566000000E+00 0.  1.
    -200003    1    4    4    0    0 -0.55308560499E+01 -0.12125352654E+03 -0.18888846231E+03  0.22652121150E+03  0.30000000000E+02 0.  1.
    -200000    1    3    3    0    0 -0.26737655944E+03 -0.47618350491E+03 -0.35687661852E+03  0.66015367584E+03  0.10100000000E+03 0.  1.
<mgrwt>
<rscale>  0 0.21472193E+04</rscale>
<asrwt>0</asrwt>
<pdfrwt beam="1">  1        2 0.30546474E+00 0.21472193E+04</pdfrwt>
<pdfrwt beam="2">  1       -2 0.77007966E-01 0.21472193E+04</pdfrwt>
<totfact> 0.94490241E+00</totfact>
</mgrwt>
</event>
<event>
 8    2  0.4480234E-052  0.1285854E+04  0.7818608E-02  0.9040859E-01
          2   -1    0    0  501    0  0.00000000000E+00  0.00000000000E+00  0.79961722038E+03  0.79961722039E+03  0.25500000000E-02 0. -1.
         -2   -1    0    0    0  501 -0.00000000000E+00 -0.00000000000E+00 -0.51694141311E+03  0.51694141312E+03  0.25500000000E-02 0.  1.
    -200001    2    1    2    0    0  0.40752571504E+02 -0.18208064186E+03  0.96756825167E+02  0.64936375933E+03  0.61440807000E+03 0.  0.
   -5000001    2    3    3    0    0  0.35926901744E+02 -0.37107721876E+03 -0.55386845214E+02  0.38651077835E+03  0.85637810604E+02 0.  0.
     200001    1    1    2    0    0 -0.40752571504E+02  0.18208064186E+03  0.18591898210E+03  0.66719487418E+03  0.61300000000E+03 0. -1.
         13    1    4    4    0    0  0.17747267507E+02 -0.39292390927E+02  0.14781048823E+02  0.45577933884E+02  0.10566000000E+00 0.  1.
    -200003    1    4    4    0    0  0.18179634237E+02 -0.33178482784E+03 -0.70167894038E+02  0.34093284447E+03  0.30000000000E+02 0.  1.
    -200000    1    3    3    0    0  0.48256697605E+01  0.18899657690E+03  0.15214367038E+03  0.26285298097E+03  0.10100000000E+03 0. -1.
<mgrwt>
<rscale>  0 0.12858542E+04</rscale>
<asrwt>0</asrwt>
<pdfrwt beam="1">  1        2 0.11423103E+00 0.12858542E+04</pdfrwt>
<pdfrwt beam="2">  1       -2 0.73848774E-01 0.12858542E+04</pdfrwt>
<totfact> 0.61753558E+01</totfact>
</mgrwt>
</event>
<event>
 8    2  0.4480234E-052  0.1889761E+04  0.7818608E-02  0.8659970E-01
          2   -1    0    0  501    0  0.00000000000E+00  0.00000000000E+00  0.17651141203E+04  0.17651141203E+04  0.25500000000E-02 0.  1.
         -2   -1    0    0    0  501 -0.00000000000E+00 -0.00000000000E+00 -0.50580276312E+03  0.50580276312E+03  0.25500000000E-02 0. -1.
    -200001    2    1    2    0    0 -0.12462134624E+03  0.13156224507E+03  0.14658111143E+04  0.15991652523E+04  0.61309720044E+03 0.  0.
   -5000001    2    3    3    0    0  0.83359756151E+02 -0.30837108624E+02  0.12083842089E+04  0.12169358701E+04  0.11331698628E+03 0.  0.
     200001    1    1    2    0    0  0.12462134624E+03 -0.13156224507E+03 -0.20649975707E+03  0.67175163114E+03  0.61300000000E+03 0. -1.
         13    1    4    4    0    0  0.85700956321E+02 -0.57981950603E+02  0.87677915627E+03  0.88286367041E+03  0.10566000000E+00 0.  1.
    -200003    1    4    4    0    0 -0.23412001700E+01  0.27144841979E+02  0.33160505260E+03  0.33407219965E+03  0.30000000000E+02 0.  1.
    -200000    1    3    3    0    0 -0.20798110239E+03  0.16239935369E+03  0.25742690544E+03  0.38222938227E+03  0.10100000000E+03 0. -1.
<mgrwt>
<rscale>  0 0.18897615E+04</rscale>
<asrwt>0</asrwt>
<pdfrwt beam="1">  1        2 0.25215916E+00 0.18897615E+04</pdfrwt>
<pdfrwt beam="2">  1       -2 0.72257536E-01 0.18897615E+04</pdfrwt>
<totfact> 0.17300781E+01</totfact>
</mgrwt>
</event>
<event>
 8    2  0.4480234E-052  0.1419091E+04  0.7818608E-02  0.8940115E-01
         -2   -1    0    0    0  501 -0.00000000000E+00  0.00000000000E+00  0.19404955317E+03  0.19404955319E+03  0.25500000000E-02 0. -1.
          2   -1    0    0  501    0  0.00000000000E+00 -0.00000000000E+00 -0.25944634529E+04  0.25944634529E+04  0.25500000000E-02 0.  1.
    -200001    2    1    2    0    0 -0.18096462190E+03  0.29039279317E+03 -0.99609744354E+03  0.12184971215E+04  0.61273889170E+03 0.  0.
   -5000001    2    3    3    0    0  0.20442812334E+03  0.96089075225E+02 -0.49585823509E+03  0.55012464410E+03  0.75748047858E+02 0.  0.
     200001    1    1    2    0    0  0.18096462190E+03 -0.29039279317E+03 -0.14043164562E+04  0.15700158846E+04  0.61300000000E+03 0.  1.
         13    1    4    4    0    0  0.11557740595E+03  0.49473394100E+02 -0.19952504922E+03  0.23583046860E+03  0.10566000000E+00 0.  1.
    -200003    1    4    4    0    0  0.88850717384E+02  0.46615681125E+02 -0.29633318587E+03  0.31429417550E+03  0.30000000000E+02 0.  1.
    -200000    1    3    3    0    0 -0.38539274523E+03  0.19430371794E+03 -0.50023920845E+03  0.66837247741E+03  0.10100000000E+03 0. -1.
<mgrwt>
<rscale>  0 0.14190905E+04</rscale>
<asrwt>0</asrwt>
<pdfrwt beam="1">  1        2 0.37063762E+00 0.14190905E+04</pdfrwt>
<pdfrwt beam="2">  1       -2 0.27721366E-01 0.14190905E+04</pdfrwt>
<totfact> 0.45501960E+01</totfact>
</mgrwt>
</event>
<event>
 8    2  0.4480234E-052  0.1635771E+04  0.7818608E-02  0.8798869E-01
          2   -1    0    0  501    0  0.00000000000E+00  0.00000000000E+00  0.15291352228E+04  0.15291352228E+04  0.25500000000E-02 0.  1.
         -2   -1    0    0    0  501 -0.00000000000E+00 -0.00000000000E+00 -0.43746103538E+03  0.43746103539E+03  0.25500000000E-02 0. -1.
    -200001    2    1    2    0    0 -0.14082734408E+02 -0.46282373004E+03  0.88254175143E+03  0.11704119176E+04  0.61366113226E+03 0.  0.
   -5000001    2    3    3    0    0  0.24985465542E+03 -0.14227958785E+03  0.56392187800E+03  0.63737241002E+03  0.74598087234E+02 0.  0.
     200001    1    1    2    0    0  0.14082734408E+02  0.46282373004E+03  0.20913243599E+03  0.79618434064E+03  0.61300000000E+03 0. -1.
         13    1    4    4    0    0  0.17827461733E+03 -0.12348082090E+03  0.39862931561E+03  0.45380028068E+03  0.10566000000E+00 0.  1.
    -200003    1    4    4    0    0  0.71580038095E+02 -0.18798766949E+02  0.16529256239E+03  0.18357212935E+03  0.30000000000E+02 0. -1.
    -200000    1    3    3    0    0 -0.26393738983E+03 -0.32054414219E+03  0.31861987343E+03  0.53303950753E+03  0.10100000000E+03 0. -1.
<mgrwt>
<rscale>  0 0.16357715E+04</rscale>
<asrwt>0</asrwt>
<pdfrwt beam="1">  1        2 0.21844789E+00 0.16357715E+04</pdfrwt>
<pdfrwt beam="2">  1       -2 0.62494433E-01 0.16357715E+04</pdfrwt>
<totfact> 0.32107406E+01</totfact>
</mgrwt>
</event>
<event>
 8    2  0.4480234E-052  0.2942220E+04  0.7818608E-02  0.8260426E-01
         -2   -1    0    0    0  501 -0.00000000000E+00  0.00000000000E+00  0.65054923589E+03  0.65054923590E+03  0.25500000000E-02 0. -1.
          2   -1    0    0  501    0  0.00000000000E+00 -0.00000000000E+00 -0.33266724169E+04  0.33266724169E+04  0.25500000000E-02 0.  1.
    -200001    2    1    2    0    0 -0.86251622383E+03 -0.98797187296E+03 -0.99178058151E+03  0.17562305113E+04  0.61700423724E+03 0.  0.
   -5000001    2    3    3    0    0 -0.12255825486E+03 -0.50189107759E+03 -0.54169097189E+03  0.75793496779E+03  0.11883234734E+03 0.  0.
     200001    1    1    2    0    0  0.86251622383E+03  0.98797187296E+03 -0.16843425994E+04  0.22209911415E+04  0.61300000000E+03 0. -1.
         13    1    4    4    0    0 -0.68311302808E+01  0.80312215597E-02  0.31910693747E+01  0.75404570951E+01  0.10566000000E+00 0.  1.
    -200003    1    4    4    0    0 -0.11572712458E+03 -0.50189910882E+03 -0.54488204127E+03  0.75039451070E+03  0.30000000000E+02 0.  1.
    -200000    1    3    3    0    0 -0.73995796897E+03 -0.48608079537E+03 -0.45008960962E+03  0.99829554349E+03  0.10100000000E+03 0. -1.
<mgrwt>
<rscale>  0 0.29422197E+04</rscale>
<asrwt>0</asrwt>
<pdfrwt beam="1">  1        2 0.47523891E+00 0.29422197E+04</pdfrwt>
<pdfrwt beam="2">  1       -2 0.92935607E-01 0.29422197E+04</pdfrwt>
<totfact> 0.12979423E+00</totfact>
</mgrwt>
</event>
<event>
 8    2  0.4480234E-052  0.1283395E+04  0.7818608E-02  0.9042838E-01
          2   -1    0    0  501    0  0.00000000000E+00  0.00000000000E+00  0.16205333568E+04  0.16205333568E+04  0.25500000000E-02 0.  1.
         -2   -1    0    0    0  501 -0.00000000000E+00 -0.00000000000E+00 -0.25409873048E+03  0.25409873049E+03  0.25500000000E-02 0. -1.
    -200001    2    1    2    0    0  0.98693800899E+02 -0.79528772524E+02  0.47432969353E+03  0.78482224007E+03  0.61228424636E+03 0.  0.
   -5000001    2    3    3    0    0  0.19057084094E+03 -0.26543928496E+03  0.14414884082E+03  0.38205120757E+03  0.13567968705E+03 0.  0.
     200001    1    1    2    0    0 -0.98693800899E+02  0.79528772524E+02  0.89210493277E+03  0.10898098472E+04  0.61300000000E+03 0.  1.
         13    1    4    4    0    0  0.74092906658E+02 -0.20734307164E+03  0.92980723069E+02  0.23901115915E+03  0.10566000000E+00 0.  1.
    -200003    1    4    4    0    0  0.11647793428E+03 -0.58096213322E+02  0.51168117747E+02  0.14304004841E+03  0.30000000000E+02 0.  1.
    -200000    1    3    3    0    0 -0.91877040040E+02  0.18591051243E+03  0.33018085272E+03  0.40277103250E+03  0.10100000000E+03 0.  1.
<mgrwt>
<rscale>  0 0.12833947E+04</rscale>
<asrwt>0</asrwt>
<pdfrwt beam="1">  1        2 0.23150477E+00 0.12833947E+04</pdfrwt>
<pdfrwt beam="2">  1       -2 0.36299817E-01 0.12833947E+04</pdfrwt>
<totfact> 0.88449156E+01</totfact>
</mgrwt>
</event>
<event>
 8    2  0.4480234E-052  0.1435068E+04  0.7818608E-02  0.8928818E-01
          2   -1    0    0  501    0  0.00000000000E+00  0.00000000000E+00  0.13785260721E+04  0.13785260721E+04  0.25500000000E-02 0.  1.
         -2   -1    0    0    0  501 -0.00000000000E+00 -0.00000000000E+00 -0.37348232823E+03  0.37348232824E+03  0.25500000000E-02 0. -1.
    -200001    2    1    2    0    0 -0.29302252633E+03 -0.12313955936E+03  0.73481736297E+03  0.10105120423E+04  0.61656506448E+03 0.  0.
   -5000001    2    3    3    0    0 -0.12605465178E+03 -0.20563121930E+03  0.66060771892E+03  0.78603216269E+03  0.35109831799E+03 0.  0.
     200001    1    1    2    0    0  0.29302252633E+03  0.12313955936E+03  0.27022638089E+03  0.74149635801E+03  0.61300000000E+03 0. -1.
         13    1    4    4    0    0 -0.21297416034E+03 -0.11157873351E+03  0.21889149185E+03  0.32514812488E+03  0.10566000000E+00 0.  1.
    -200003    1    4    4    0    0  0.86919508555E+02 -0.94052485787E+02  0.44171622707E+03  0.46088403781E+03  0.30000000000E+02 0.  1.
    -200000    1    3    3    0    0 -0.16696787455E+03  0.82491659940E+02  0.74209644047E+02  0.22447987963E+03  0.10100000000E+03 0. -1.
<mgrwt>
<rscale>  0 0.14350681E+04</rscale>
<asrwt>0</asrwt>
<pdfrwt beam="1">  1        2 0.19693230E+00 0.14350681E+04</pdfrwt>
<pdfrwt beam="2">  1       -2 0.53354618E-01 0.14350681E+04</pdfrwt>
<totfact> 0.54696608E+01</totfact>
</mgrwt>
</event>
<event>
 8    2  0.4480234E-052  0.1408064E+04  0.7818608E-02  0.8948002E-01
         -2   -1    0    0    0  501 -0.00000000000E+00  0.00000000000E+00  0.41337195286E+03  0.41337195287E+03  0.25500000000E-02 0. -1.
          2   -1    0    0  501    0  0.00000000000E+00 -0.00000000000E+00 -0.11990680878E+04  0.11990680878E+04  0.25500000000E-02 0.  1.
    -200001    2    1    2    0    0  0.12955910401E+03  0.32029012451E+03 -0.37078349809E+03  0.79556010975E+03  0.61324070354E+03 0.  0.
   -5000001    2    3    3    0    0  0.30203697223E+03  0.20724421070E+03 -0.26440919601E+02  0.38167509550E+03  0.10392430341E+03 0.  0.
     200001    1    1    2    0    0 -0.12955910401E+03 -0.32029012451E+03 -0.41491263681E+03  0.81687993088E+03  0.61300000000E+03 0.  1.
         13    1    4    4    0    0  0.12018378880E+03  0.11762324005E+03  0.25910817944E+02  0.17014920318E+03  0.10566000000E+00 0.  1.
    -200003    1    4    4    0    0  0.18185318342E+03  0.89620970642E+02 -0.52351737545E+02  0.21152589232E+03  0.30000000000E+02 0.  1.
    -200000    1    3    3    0    0 -0.17247786822E+03  0.11304591381E+03 -0.34434257849E+03  0.41388501424E+03  0.10100000000E+03 0.  1.
<mgrwt>
<rscale>  0 0.14080641E+04</rscale>
<asrwt>0</asrwt>
<pdfrwt beam="1">  1        2 0.17129544E+00 0.14080641E+04</pdfrwt>
<pdfrwt beam="2">  1       -2 0.59053136E-01 0.14080641E+04</pdfrwt>
<totfact> 0.55817432E+01</totfact>
</mgrwt>
</event>
<event>
 8    2  0.4480234E-052  0.1336132E+04  0.7818608E-02  0.9001393E-01
         -2   -1    0    0    0  501 -0.00000000000E+00  0.00000000000E+00  0.17636939577E+03  0.17636939579E+03  0.25500000000E-02 0. -1.
          2   -1    0    0  501    0  0.00000000000E+00 -0.00000000000E+00 -0.25305541577E+04  0.25305541577E+04  0.25500000000E-02 0.  1.
    -200001    2    1    2    0    0 -0.80639416246E+02  0.12751154078E+03 -0.73459749541E+03  0.96865032343E+03  0.61309710514E+03 0.  0.
   -5000001    2    3    3    0    0 -0.29551829299E+03  0.21554077500E+03 -0.43185029941E+03  0.57396191160E+03  0.95648877063E+02 0.  0.
     200001    1    1    2    0    0  0.80639416246E+02 -0.12751154078E+03 -0.16195872665E+04  0.17382732300E+04  0.61300000000E+03 0.  1.
         13    1    4    4    0    0 -0.17761669300E+03  0.17198427111E+03 -0.25788192489E+03  0.35725254022E+03  0.10566000000E+00 0.  1.
    -200003    1    4    4    0    0 -0.11790159999E+03  0.43556503893E+02 -0.17396837452E+03  0.21670937138E+03  0.30000000000E+02 0.  1.
    -200000    1    3    3    0    0  0.21487887675E+03 -0.88029234222E+02 -0.30274719600E+03  0.39468841183E+03  0.10100000000E+03 0. -1.
<mgrwt>
<rscale>  0 0.13361322E+04</rscale>
<asrwt>0</asrwt>
<pdfrwt beam="1">  1        2 0.36150772E+00 0.13361322E+04</pdfrwt>
<pdfrwt beam="2">  1       -2 0.25195629E-01 0.13361322E+04</pdfrwt>
<totfact> 0.58954431E+01</totfact>
</mgrwt>
</event>
<event>
 8    2  0.4480234E-052  0.1425366E+04  0.7818608E-02  0.8935659E-01
         -2   -1    0    0    0  501 -0.00000000000E+00  0.00000000000E+00  0.20320306878E+03  0.20320306879E+03  0.25500000000E-02 0. -1.
          2   -1    0    0  501    0  0.00000000000E+00 -0.00000000000E+00 -0.24995552209E+04  0.24995552209E+04  0.25500000000E-02 0.  1.
    -200001    2    1    2    0    0  0.80741765977E+02 -0.19120033049E+03 -0.58816711801E+03  0.87608319272E+03  0.61522711473E+03 0.  0.
   -5000001    2    3    3    0    0  0.22468303501E+03 -0.78768326607E+02 -0.10162149090E+01  0.25294016946E+03  0.85386071080E+02 0.  0.
     200001    1    1    2    0    0 -0.80741765977E+02  0.19120033049E+03 -0.17081850341E+04  0.18266750970E+04  0.61300000000E+03 0.  1.
         13    1    4    4    0    0  0.11230934775E+03 -0.77626758842E+02  0.29492096005E+01  0.13655772509E+03  0.10566000000E+00 0.  1.
    -200003    1    4    4    0    0  0.11237368726E+03 -0.11415677649E+01 -0.39654245095E+01  0.11638244437E+03  0.30000000000E+02 0.  1.
    -200000    1    3    3    0    0 -0.14394126903E+03 -0.11243200388E+03 -0.58715090310E+03  0.62314302327E+03  0.10100000000E+03 0. -1.
<mgrwt>
<rscale>  0 0.14253663E+04</rscale>
<asrwt>0</asrwt>
<pdfrwt beam="1">  1        2 0.35707930E+00 0.14253663E+04</pdfrwt>
<pdfrwt beam="2">  1       -2 0.29029011E-01 0.14253663E+04</pdfrwt>
<totfact> 0.46865035E+01</totfact>
</mgrwt>
</event>
<event>
 8    2  0.4480234E-052  0.1243908E+04  0.7818608E-02  0.9075269E-01
          2   -1    0    0  501    0  0.00000000000E+00  0.00000000000E+00  0.96327787577E+03  0.96327787577E+03  0.25500000000E-02 0. -1.
         -2   -1    0    0    0  501 -0.00000000000E+00 -0.00000000000E+00 -0.40157348114E+03  0.40157348115E+03  0.25500000000E-02 0.  1.
    -200001    2    1    2    0    0 -0.58874426191E+02 -0.27817311282E+02  0.37252133250E+03  0.72002639472E+03  0.61272005440E+03 0.  0.
   -5000001    2    3    3    0    0  0.22463573973E+03 -0.14613049681E+02  0.32763177798E+03  0.41544727724E+03  0.12074394991E+03 0.  0.
     200001    1    1    2    0    0  0.58874426191E+02  0.27817311282E+02  0.18918306213E+03  0.64482496219E+03  0.61300000000E+03 0.  1.
         13    1    4    4    0    0  0.18410236426E+02  0.36296925556E+02  0.58825081618E+02  0.71531846065E+02  0.10566000000E+00 0.  1.
    -200003    1    4    4    0    0  0.20622550330E+03 -0.50909975237E+02  0.26880669636E+03  0.34391543117E+03  0.30000000000E+02 0.  1.
    -200000    1    3    3    0    0 -0.28351016592E+03 -0.13204261601E+02  0.44889554518E+02  0.30457911749E+03  0.10100000000E+03 0. -1.
<mgrwt>
<rscale>  0 0.12439081E+04</rscale>
<asrwt>0</asrwt>
<pdfrwt beam="1">  1        2 0.13761113E+00 0.12439081E+04</pdfrwt>
<pdfrwt beam="2">  1       -2 0.57367640E-01 0.12439081E+04</pdfrwt>
<totfact> 0.82992588E+01</totfact>
</mgrwt>
</event>
<event>
 8    2  0.4480234E-052  0.1508211E+04  0.7818608E-02  0.8879011E-01
          2   -1    0    0  501    0  0.00000000000E+00  0.00000000000E+00  0.19003907549E+04  0.19003907549E+04  0.25500000000E-02 0.  1.
         -2   -1    0    0    0  501 -0.00000000000E+00 -0.00000000000E+00 -0.29924115142E+03  0.29924115143E+03  0.25500000000E-02 0. -1.
    -200001    2    1    2    0    0  0.41926389019E+03 -0.13006594357E+03  0.80035857265E+03  0.10997525337E+04  0.61333712692E+03 0.  0.
   -5000001    2    3    3    0    0  0.46005447067E+03 -0.57406440357E+01  0.25864961853E+03  0.53338671328E+03  0.76933021229E+02 0.  0.
     200001    1    1    2    0    0 -0.41926389019E+03  0.13006594357E+03  0.80079103083E+03  0.10998793726E+04  0.61300000000E+03 0. -1.
         13    1    4    4    0    0  0.30323784067E+03  0.21455139448E+01  0.13830622799E+03  0.33329628727E+03  0.10566000000E+00 0.  1.
    -200003    1    4    4    0    0  0.15681663001E+03 -0.78861579805E+01  0.12034339053E+03  0.20009042601E+03  0.30000000000E+02 0.  1.
    -200000    1    3    3    0    0 -0.40790580485E+02 -0.12432529953E+03  0.54170895412E+03  0.56636582042E+03  0.10100000000E+03 0.  1.
<mgrwt>
<rscale>  0 0.15082110E+04</rscale>
<asrwt>0</asrwt>
<pdfrwt beam="1">  1        2 0.27148439E+00 0.15082110E+04</pdfrwt>
<pdfrwt beam="2">  1       -2 0.42748736E-01 0.15082110E+04</pdfrwt>
<totfact> 0.45297283E+01</totfact>
</mgrwt>
</event>
<event>
 8    2  0.4480234E-052  0.1511295E+04  0.7818608E-02  0.8876977E-01
         -2   -1    0    0    0  501 -0.00000000000E+00  0.00000000000E+00  0.42866075171E+03  0.42866075171E+03  0.25500000000E-02 0. -1.
          2   -1    0    0  501    0  0.00000000000E+00 -0.00000000000E+00 -0.13320625619E+04  0.13320625619E+04  0.25500000000E-02 0.  1.
    -200001    2    1    2    0    0  0.12840077779E+03 -0.27353642433E+03 -0.76649385483E+02  0.68806423127E+03  0.61339084024E+03 0.  0.
   -5000001    2    3    3    0    0  0.28681135590E+03 -0.36289787796E+03 -0.86293743693E+02  0.47980143023E+03  0.93846569224E+02 0.  0.
     200001    1    1    2    0    0 -0.12840077779E+03  0.27353642433E+03 -0.82675242471E+03  0.10726590823E+04  0.61300000000E+03 0.  1.
         13    1    4    4    0    0  0.20459503202E+03 -0.23382674867E+03 -0.91108197856E+02  0.32378201062E+03  0.10566000000E+00 0.  1.
    -200003    1    4    4    0    0  0.82216323881E+02 -0.12907112928E+03  0.48144541637E+01  0.15601941961E+03  0.30000000000E+02 0.  1.
    -200000    1    3    3    0    0 -0.15841057810E+03  0.89361453632E+02  0.96443582094E+01  0.20826280104E+03  0.10100000000E+03 0.  1.
<mgrwt>
<rscale>  0 0.15112947E+04</rscale>
<asrwt>0</asrwt>
<pdfrwt beam="1">  1        2 0.19029465E+00 0.15112947E+04</pdfrwt>
<pdfrwt beam="2">  1       -2 0.61237251E-01 0.15112947E+04</pdfrwt>
<totfact> 0.43221664E+01</totfact>
</mgrwt>
</event>
<event>
 8    2  0.4480234E-052  0.1311266E+04  0.7818608E-02  0.9020678E-01
          2   -1    0    0  501    0  0.00000000000E+00  0.00000000000E+00  0.94966421626E+03  0.94966421626E+03  0.25500000000E-02 0.  1.
         -2   -1    0    0    0  501 -0.00000000000E+00 -0.00000000000E+00 -0.45263874263E+03  0.45263874264E+03  0.25500000000E-02 0. -1.
    -200001    2    1    2    0    0 -0.11621842503E+03 -0.33927405913E+02  0.45703243868E+03  0.77618297516E+03  0.61556768088E+03 0.  0.
   -5000001    2    3    3    0    0  0.21302925790E+03  0.90313188421E+02  0.27020077194E+03  0.36515154851E+03  0.82396962914E+02 0.  0.
     200001    1    1    2    0    0  0.11621842503E+03  0.33927405913E+02  0.39993034943E+02  0.62611998374E+03  0.61300000000E+03 0. -1.
         13    1    4    4    0    0  0.80796838221E+02  0.73552583646E+01  0.12978701917E+03  0.15305851954E+03  0.10566000000E+00 0.  1.
    -200003    1    4    4    0    0  0.13223241968E+03  0.82957930057E+02  0.14041375276E+03  0.21209302897E+03  0.30000000000E+02 0.  1.
    -200000    1    3    3    0    0 -0.32924768294E+03 -0.12424059433E+03  0.18683166674E+03  0.41103142665E+03  0.10100000000E+03 0. -1.
<mgrwt>
<rscale>  0 0.13112663E+04</rscale>
<asrwt>0</asrwt>
<pdfrwt beam="1">  1        2 0.13566632E+00 0.13112663E+04</pdfrwt>
<pdfrwt beam="2">  1       -2 0.64662678E-01 0.13112663E+04</pdfrwt>
<totfact> 0.65387410E+01</totfact>
</mgrwt>
</event>
<event>
 8    2  0.4480234E-052  0.1389940E+04  0.7818608E-02  0.8961133E-01
          2   -1    0    0  501    0  0.00000000000E+00  0.00000000000E+00  0.23130509512E+04  0.23130509512E+04  0.25500000000E-02 0.  1.
         -2   -1    0    0    0  501 -0.00000000000E+00 -0.00000000000E+00 -0.20880787183E+03  0.20880787184E+03  0.25500000000E-02 0. -1.
    -200001    2    1    2    0    0  0.27463322962E+03  0.10357106526E+02  0.73044331411E+03  0.99260231235E+03  0.61333615163E+03 0.  0.
   -5000001    2    3    3    0    0  0.15403557604E+03  0.28679335556E+03  0.49195896779E+03  0.59506416668E+03  0.78104730936E+02 0.  0.
     200001    1    1    2    0    0 -0.27463322962E+03 -0.10357106526E+02  0.13737997653E+04  0.15292565107E+04  0.61300000000E+03 0.  1.
         13    1    4    4    0    0  0.69505433735E+02  0.64214893714E+02  0.13046657869E+03  0.16117101853E+03  0.10566000000E+00 0.  1.
    -200003    1    4    4    0    0  0.84530142306E+02  0.22257846184E+03  0.36149238910E+03  0.43389314815E+03  0.30000000000E+02 0.  1.
    -200000    1    3    3    0    0  0.12059765358E+03 -0.27643624903E+03  0.23848434632E+03  0.39753814568E+03  0.10100000000E+03 0. -1.
<mgrwt>
<rscale>  0 0.13899399E+04</rscale>
<asrwt>0</asrwt>
<pdfrwt beam="1">  1        2 0.33043585E+00 0.13899399E+04</pdfrwt>
<pdfrwt beam="2">  1       -2 0.29829696E-01 0.13899399E+04</pdfrwt>
<totfact> 0.55890559E+01</totfact>
</mgrwt>
</event>
<event>
 8    2  0.4480234E-052  0.1281648E+04  0.7818608E-02  0.9044246E-01
          2   -1    0    0  501    0  0.00000000000E+00  0.00000000000E+00  0.15161380639E+04  0.15161380639E+04  0.25500000000E-02 0.  1.
         -2   -1    0    0    0  501 -0.00000000000E+00 -0.00000000000E+00 -0.27085622695E+03  0.27085622696E+03  0.25500000000E-02 0. -1.
    -200001    2    1    2    0    0 -0.98693021486E+02 -0.54509252872E+02  0.41645625072E+03  0.74996371103E+03  0.61343148595E+03 0.  0.
   -5000001    2    3    3    0    0 -0.17727724314E+03  0.61925509335E+02  0.51093160460E+03  0.55283652814E+03  0.96514934734E+02 0.  0.
     200001    1    1    2    0    0  0.98693021486E+02  0.54509252872E+02  0.82882558624E+03  0.10370305798E+04  0.61300000000E+03 0.  1.
         13    1    4    4    0    0 -0.46836507271E+02 -0.70598339648E+00  0.23702683699E+03  0.24161102922E+03  0.10566000000E+00 0.  1.
    -200003    1    4    4    0    0 -0.13044073587E+03  0.62631492732E+02  0.27390476761E+03  0.31122549892E+03  0.30000000000E+02 0.  1.
    -200000    1    3    3    0    0  0.78584221657E+02 -0.11643476221E+03 -0.94475353872E+02  0.19712718289E+03  0.10100000000E+03 0. -1.
<mgrwt>
<rscale>  0 0.12816481E+04</rscale>
<asrwt>0</asrwt>
<pdfrwt beam="1">  1        2 0.21659115E+00 0.12816481E+04</pdfrwt>
<pdfrwt beam="2">  1       -2 0.38693748E-01 0.12816481E+04</pdfrwt>
<totfact> 0.88742950E+01</totfact>
</mgrwt>
</event>
<event>
 8    2  0.4480234E-052  0.1256601E+04  0.7818608E-02  0.9064707E-01
         -2   -1    0    0    0  501 -0.00000000000E+00  0.00000000000E+00  0.24148209007E+03  0.24148209008E+03  0.25500000000E-02 0. -1.
          2   -1    0    0  501    0  0.00000000000E+00 -0.00000000000E+00 -0.16347441457E+04  0.16347441457E+04  0.25500000000E-02 0.  1.
    -200001    2    1    2    0    0 -0.20008398758E+02  0.88014804702E+01 -0.49299726390E+03  0.78685784202E+03  0.61287940026E+03 0.  0.
   -5000001    2    3    3    0    0 -0.81048104985E+02  0.16772874243E+03 -0.54345434963E+03  0.58257706017E+03  0.96704056549E+02 0.  0.
     200001    1    1    2    0    0  0.20008398758E+02 -0.88014804702E+01 -0.90026479170E+03  0.10893683937E+04  0.61300000000E+03 0.  1.
         13    1    4    4    0    0 -0.55642985497E+02  0.11052872961E+03 -0.22636344497E+03  0.25797899582E+03  0.10566000000E+00 0.  1.
    -200003    1    4    4    0    0 -0.25405119488E+02  0.57200012824E+02 -0.31709090466E+03  0.32459806435E+03  0.30000000000E+02 0.  1.
    -200000    1    3    3    0    0  0.61039706227E+02 -0.15892726196E+03  0.50457085729E+02  0.20428078185E+03  0.10100000000E+03 0.  1.
<mgrwt>
<rscale>  0 0.12566009E+04</rscale>
<asrwt>0</asrwt>
<pdfrwt beam="1">  1        2 0.23353487E+00 0.12566009E+04</pdfrwt>
<pdfrwt beam="2">  1       -2 0.34497442E-01 0.12566009E+04</pdfrwt>
<totfact> 0.96026922E+01</totfact>
</mgrwt>
</event>
<event>
 8    2  0.4480234E-052  0.1481777E+04  0.7818608E-02  0.8896662E-01
         -2   -1    0    0    0  501 -0.00000000000E+00  0.00000000000E+00  0.37421880025E+03  0.37421880026E+03  0.25500000000E-02 0.  1.
          2   -1    0    0  501    0  0.00000000000E+00 -0.00000000000E+00 -0.14668316358E+04  0.14668316358E+04  0.25500000000E-02 0. -1.
    -200001    2    1    2    0    0 -0.47348683448E+02 -0.19765329673E+03 -0.99726504967E+03  0.11882342875E+04  0.61323276101E+03 0.  0.
   -5000001    2    3    3    0    0  0.55515940031E+02 -0.81594178960E+02 -0.25689186169E+03  0.42508010449E+03  0.32397536479E+03 0.  0.
     200001    1    1    2    0    0  0.47348683448E+02  0.19765329673E+03 -0.95347785862E+02  0.65281614854E+03  0.61300000000E+03 0.  1.
         13    1    4    4    0    0  0.14937499356E+03  0.61520579354E+02 -0.15374657115E+03  0.22301499880E+03  0.10566000000E+00 0.  1.
    -200003    1    4    4    0    0 -0.93859053527E+02 -0.14311475831E+03 -0.10314529055E+03  0.20206510569E+03  0.30000000000E+02 0.  1.
    -200000    1    3    3    0    0 -0.10286462348E+03 -0.11605911777E+03 -0.74037318797E+03  0.76315418301E+03  0.10100000000E+03 0. -1.
<mgrwt>
<rscale>  0 0.14817773E+04</rscale>
<asrwt>0</asrwt>
<pdfrwt beam="1">  1        2 0.20954737E+00 0.14817773E+04</pdfrwt>
<pdfrwt beam="2">  1       -2 0.53459829E-01 0.14817773E+04</pdfrwt>
<totfact> 0.48647585E+01</totfact>
</mgrwt>
</event>
<event>
 8    2  0.4480234E-052  0.1229806E+04  0.7818608E-02  0.9087160E-01
         -2   -1    0    0    0  501 -0.00000000000E+00  0.00000000000E+00  0.40382817438E+03  0.40382817439E+03  0.25500000000E-02 0. -1.
          2   -1    0    0  501    0  0.00000000000E+00 -0.00000000000E+00 -0.93630284274E+03  0.93630284274E+03  0.25500000000E-02 0.  1.
    -200001    2    1    2    0    0 -0.17513501309E+02 -0.10890473443E+02 -0.21483211363E+03  0.64941318928E+03  0.61250251283E+03 0.  0.
   -5000001    2    3    3    0    0 -0.18883153940E+03 -0.19238840116E+03 -0.25380966815E+03  0.37736242619E+03  0.72886253009E+02 0.  0.
     200001    1    1    2    0    0  0.17513501309E+02  0.10890473443E+02 -0.31764255472E+03  0.69071782785E+03  0.61300000000E+03 0.  1.
         13    1    4    4    0    0 -0.65354839149E+02 -0.61232957480E+02 -0.45881734619E+02  0.10062740590E+03  0.10566000000E+00 0.  1.
    -200003    1    4    4    0    0 -0.12347670025E+03 -0.13115544368E+03 -0.20792793353E+03  0.27673502029E+03  0.30000000000E+02 0.  1.
    -200000    1    3    3    0    0  0.17131803809E+03  0.18149792772E+03  0.38977554521E+02  0.27205076309E+03  0.10100000000E+03 0. -1.
<mgrwt>
<rscale>  0 0.12298056E+04</rscale>
<asrwt>0</asrwt>
<pdfrwt beam="1">  1        2 0.13375755E+00 0.12298056E+04</pdfrwt>
<pdfrwt beam="2">  1       -2 0.57689740E-01 0.12298056E+04</pdfrwt>
<totfact> 0.85407587E+01</totfact>
</mgrwt>
</event>
<event>
 8    2  0.4480234E-052  0.1747699E+04  0.7818608E-02  0.8734618E-01
          2   -1    0    0  501    0  0.00000000000E+00  0.00000000000E+00  0.24432402655E+04  0.24432402655E+04  0.25500000000E-02 0.  1.
         -2   -1    0    0    0  501 -0.00000000000E+00 -0.00000000000E+00 -0.31254090577E+03  0.31254090578E+03  0.25500000000E-02 0. -1.
    -200001    2    1    2    0    0  0.19967996179E+03 -0.58304808438E+03  0.92822403126E+03  0.12720247656E+04  0.61370187896E+03 0.  0.
   -5000001    2    3    3    0    0 -0.14251493494E+03 -0.20574361102E+03  0.81473166370E+02  0.27872519338E+03  0.91700144119E+02 0.  0.
     200001    1    1    2    0    0 -0.19967996179E+03  0.58304808438E+03  0.12024753284E+04  0.14837564057E+04  0.61300000000E+03 0.  1.
         13    1    4    4    0    0  0.40840404736E+01 -0.25451564456E+02 -0.93743896919E+01  0.27429033268E+02  0.10566000000E+00 0.  1.
    -200003    1    4    4    0    0 -0.14659897541E+03 -0.18029204657E+03  0.90847556062E+02  0.25129616012E+03  0.30000000000E+02 0.  1.
    -200000    1    3    3    0    0  0.34219489672E+03 -0.37730447336E+03  0.84675086489E+03  0.99329957221E+03  0.10100000000E+03 0. -1.
<mgrwt>
<rscale>  0 0.17476985E+04</rscale>
<asrwt>0</asrwt>
<pdfrwt beam="1">  1        2 0.34903432E+00 0.17476985E+04</pdfrwt>
<pdfrwt beam="2">  1       -2 0.44648701E-01 0.17476985E+04</pdfrwt>
<totfact> 0.21361743E+01</totfact>
</mgrwt>
</event>
<event>
 8    2  0.4480234E-052  0.1253551E+04  0.7818608E-02  0.9067233E-01
         -2   -1    0    0    0  501 -0.00000000000E+00  0.00000000000E+00  0.26065988322E+03  0.26065988323E+03  0.25500000000E-02 0. -1.
          2   -1    0    0  501    0  0.00000000000E+00 -0.00000000000E+00 -0.15071271290E+04  0.15071271290E+04  0.25500000000E-02 0.  1.
    -200001    2    1    2    0    0  0.12103049599E+03  0.13506744760E+02 -0.65685858457E+03  0.90857912907E+03  0.61581005233E+03 0.  0.
   -5000001    2    3    3    0    0 -0.19088616190E+03 -0.13058044839E+03 -0.32001082063E+03  0.41692830098E+03  0.13391602790E+03 0.  0.
     200001    1    1    2    0    0 -0.12103049599E+03 -0.13506744760E+02 -0.58960866125E+03  0.85920788319E+03  0.61300000000E+03 0. -1.
         13    1    4    4    0    0 -0.11636296285E+03 -0.50304221547E+02 -0.25816595687E+03  0.28761176311E+03  0.10566000000E+00 0.  1.
    -200003    1    4    4    0    0 -0.74523199043E+02 -0.80276226846E+02 -0.61844863763E+02  0.12931653787E+03  0.30000000000E+02 0.  1.
    -200000    1    3    3    0    0  0.31191665789E+03  0.14408719315E+03 -0.33684776394E+03  0.49165082810E+03  0.10100000000E+03 0.  1.
<mgrwt>
<rscale>  0 0.12535511E+04</rscale>
<asrwt>0</asrwt>
<pdfrwt beam="1">  1        2 0.21530387E+00 0.12535511E+04</pdfrwt>
<pdfrwt beam="2">  1       -2 0.37237127E-01 0.12535511E+04</pdfrwt>
<totfact> 0.96833296E+01</totfact>
</mgrwt>
</event>
<event>
 8    2  0.4480234E-052  0.1511738E+04  0.7818608E-02  0.8876684E-01
         -2   -1    0    0    0  501 -0.00000000000E+00  0.00000000000E+00  0.21219330278E+03  0.21219330280E+03  0.25500000000E-02 0. -1.
          2   -1    0    0  501    0  0.00000000000E+00 -0.00000000000E+00 -0.26925362676E+04  0.26925362676E+04  0.25500000000E-02 0.  1.
    -200001    2    1    2    0    0 -0.65146432310E+01 -0.33892546084E+03 -0.17857728850E+04  0.19182664417E+04  0.61306478929E+03 0.  0.
   -5000001    2    3    3    0    0 -0.84877762660E+02 -0.44055074550E+03 -0.16244435810E+04  0.16887089951E+04  0.10785141677E+03 0.  0.
     200001    1    1    2    0    0  0.65146432310E+01  0.33892546084E+03 -0.69457007985E+03  0.98646312876E+03  0.61300000000E+03 0. -1.
         13    1    4    4    0    0 -0.23237232357E+02 -0.85589080708E+02 -0.49294544408E+03  0.50085994221E+03  0.10566000000E+00 0.  1.
    -200003    1    4    4    0    0 -0.61640530303E+02 -0.35496166480E+03 -0.11314981370E+04  0.11878490529E+04  0.30000000000E+02 0.  1.
    -200000    1    3    3    0    0  0.78363119429E+02  0.10162528467E+03 -0.16132930394E+03  0.22955744658E+03  0.10100000000E+03 0. -1.
<mgrwt>
<rscale>  0 0.15117383E+04</rscale>
<asrwt>0</asrwt>
<pdfrwt beam="1">  1        2 0.38464802E+00 0.15117383E+04</pdfrwt>
<pdfrwt beam="2">  1       -2 0.30313331E-01 0.15117383E+04</pdfrwt>
<totfact> 0.33921654E+01</totfact>
</mgrwt>
</event>
<event>
 8    2  0.4480234E-052  0.1832635E+04  0.7818608E-02  0.8689134E-01
          2   -1    0    0  501    0  0.00000000000E+00  0.00000000000E+00  0.12295706097E+04  0.12295706097E+04  0.25500000000E-02 0.  1.
         -2   -1    0    0    0  501 -0.00000000000E+00 -0.00000000000E+00 -0.68287107499E+03  0.68287107500E+03  0.25500000000E-02 0. -1.
    -200001    2    1    2    0    0 -0.43583250641E+03  0.30232941240E+03  0.71941413434E+03  0.10836157801E+04  0.61262828450E+03 0.  0.
   -5000001    2    3    3    0    0 -0.38369469648E+03 -0.43202012703E+02  0.18114062621E+03  0.43396226745E+03  0.80145424669E+02 0.  0.
     200001    1    1    2    0    0  0.43583250641E+03 -0.30232941240E+03 -0.17271459961E+03  0.82882590462E+03  0.61300000000E+03 0. -1.
         13    1    4    4    0    0 -0.40155957279E+02  0.15214114048E+01  0.45512774580E+02  0.60714408601E+02  0.10566000000E+00 0.  1.
    -200003    1    4    4    0    0 -0.34353873920E+03 -0.44723424108E+02  0.13562785163E+03  0.37324785885E+03  0.30000000000E+02 0.  1.
    -200000    1    3    3    0    0 -0.52137809930E+02  0.34553142510E+03  0.53827350813E+03  0.64965351266E+03  0.10100000000E+03 0.  1.
<mgrwt>
<rscale>  0 0.18326355E+04</rscale>
<asrwt>0</asrwt>
<pdfrwt beam="1">  1        2 0.17565294E+00 0.18326355E+04</pdfrwt>
<pdfrwt beam="2">  1       -2 0.97553011E-01 0.18326355E+04</pdfrwt>
<totfact> 0.17012711E+01</totfact>
</mgrwt>
</event>
<event>
 8    2  0.4480234E-052  0.1421273E+04  0.7818608E-02  0.8938562E-01
          2   -1    0    0  501    0  0.00000000000E+00  0.00000000000E+00  0.99121740229E+03  0.99121740229E+03  0.25500000000E-02 0.  1.
         -2   -1    0    0    0  501 -0.00000000000E+00 -0.00000000000E+00 -0.50947881106E+03  0.50947881107E+03  0.25500000000E-02 0. -1.
    -200001    2    1    2    0    0  0.26425311607E+03  0.20414475695E+03  0.11548666308E+03  0.71239787769E+03  0.61860227582E+03 0.  0.
   -5000001    2    3    3    0    0 -0.55965635806E+02  0.36915223274E+02  0.54626769363E+02  0.33238380868E+03  0.32093617160E+03 0.  0.
     200001    1    1    2    0    0 -0.26425311607E+03 -0.20414475695E+03  0.36625192815E+03  0.78829833567E+03  0.61300000000E+03 0.  1.
         13    1    4    4    0    0 -0.14747376904E+03 -0.85952848450E+02  0.41866352177E+02  0.17575325692E+03  0.10566000000E+00 0.  1.
    -200003    1    4    4    0    0  0.91508133231E+02  0.12286807172E+03  0.12760417186E+02  0.15663055176E+03  0.30000000000E+02 0.  1.
    -200000    1    3    3    0    0  0.32021875187E+03  0.16722953367E+03  0.60859893714E+02  0.38001406901E+03  0.10100000000E+03 0.  1.
<mgrwt>
<rscale>  0 0.14212730E+04</rscale>
<asrwt>0</asrwt>
<pdfrwt beam="1">  1        2 0.14160249E+00 0.14212730E+04</pdfrwt>
<pdfrwt beam="2">  1       -2 0.72782688E-01 0.14212730E+04</pdfrwt>
<totfact> 0.47243174E+01</totfact>
</mgrwt>
</event>
<event>
 8    2  0.4480234E-052  0.1653713E+04  0.7818608E-02  0.8788213E-01
          2   -1    0    0  501    0  0.00000000000E+00  0.00000000000E+00  0.10954713779E+04  0.10954713779E+04  0.25500000000E-02 0.  1.
         -2   -1    0    0    0  501 -0.00000000000E+00 -0.00000000000E+00 -0.62410751079E+03  0.62410751080E+03  0.25500000000E-02 0. -1.
    -200001    2    1    2    0    0 -0.14342721580E+03 -0.44058706480E+03  0.55318171695E+03  0.94682311327E+03  0.61300543877E+03 0.  0.
   -5000001    2    3    3    0    0  0.16424860568E+03 -0.32103334305E+03  0.11163503584E+03  0.38635725784E+03  0.82277200000E+02 0.  0.
     200001    1    1    2    0    0  0.14342721580E+03  0.44058706480E+03 -0.81817849843E+02  0.77275577543E+03  0.61300000000E+03 0. -1.
         13    1    4    4    0    0  0.11019601683E+03 -0.24922205676E+03  0.10259829817E+03  0.29117214436E+03  0.10566000000E+00 0.  1.
    -200003    1    4    4    0    0  0.54052588845E+02 -0.71811286298E+02  0.90367376666E+01  0.95185113481E+02  0.30000000000E+02 0.  1.
    -200000    1    3    3    0    0 -0.30767582148E+03 -0.11955372175E+03  0.44154668111E+03  0.56046585543E+03  0.10100000000E+03 0.  1.
<mgrwt>
<rscale>  0 0.16537133E+04</rscale>
<asrwt>0</asrwt>
<pdfrwt beam="1">  1        2 0.15649591E+00 0.16537133E+04</pdfrwt>
<pdfrwt beam="2">  1       -2 0.89158215E-01 0.16537133E+04</pdfrwt>
<totfact> 0.25422305E+01</totfact>
</mgrwt>
</event>
<event>
 8    2  0.4480234E-052  0.1543231E+04  0.7818608E-02  0.8856203E-01
          2   -1    0    0  501    0  0.00000000000E+00  0.00000000000E+00  0.10279940705E+04  0.10279940705E+04  0.25500000000E-02 0.  1.
         -2   -1    0    0    0  501 -0.00000000000E+00 -0.00000000000E+00 -0.57917718235E+03  0.57917718235E+03  0.25500000000E-02 0. -1.
    -200001    2    1    2    0    0 -0.15177631495E+03  0.36354148354E+03 -0.40562478835E+02  0.72941295763E+03  0.61253529534E+03 0.  0.
   -5000001    2    3    3    0    0 -0.32342692671E+03  0.28102181566E+03 -0.17821282047E+03  0.47363562349E+03  0.94829619117E+02 0.  0.
     200001    1    1    2    0    0  0.15177631495E+03 -0.36354148354E+03  0.48937936702E+03  0.87775829526E+03  0.61300000000E+03 0.  1.
         13    1    4    4    0    0 -0.17674937521E+03  0.20530626973E+03 -0.10402124509E+03  0.29019206850E+03  0.10566000000E+00 0.  1.
    -200003    1    4    4    0    0 -0.14667755150E+03  0.75715545933E+02 -0.74191575377E+02  0.18344355499E+03  0.30000000000E+02 0.  1.
    -200000    1    3    3    0    0  0.17165061176E+03  0.82519667880E+02  0.13765034163E+03  0.25577733414E+03  0.10100000000E+03 0.  1.
<mgrwt>
<rscale>  0 0.15432313E+04</rscale>
<asrwt>0</asrwt>
<pdfrwt beam="1">  1        2 0.14685629E+00 0.15432313E+04</pdfrwt>
<pdfrwt beam="2">  1       -2 0.82739598E-01 0.15432313E+04</pdfrwt>
<totfact> 0.33376986E+01</totfact>
</mgrwt>
</event>
<event>
 8    2  0.4480234E-052  0.1242260E+04  0.7818608E-02  0.9076650E-01
          2   -1    0    0  501    0  0.00000000000E+00  0.00000000000E+00  0.44850532390E+03  0.44850532391E+03  0.25500000000E-02 0.  1.
         -2   -1    0    0    0  501 -0.00000000000E+00 -0.00000000000E+00 -0.86019650663E+03  0.86019650663E+03  0.25500000000E-02 0. -1.
    -200001    2    1    2    0    0  0.15582088579E+02 -0.42752007546E+02 -0.30331467316E+03  0.68453438229E+03  0.61197793584E+03 0.  0.
   -5000001    2    3    3    0    0  0.26766300444E+03 -0.68712750895E+02 -0.29826470700E+03  0.41168781278E+03  0.64498788134E+02 0.  0.
     200001    1    1    2    0    0 -0.15582088579E+02  0.42752007546E+02 -0.10837650956E+03  0.62416744825E+03  0.61300000000E+03 0.  1.
         13    1    4    4    0    0  0.84009566704E+02 -0.36389104458E+02 -0.68994920368E+02  0.11463893065E+03  0.10566000000E+00 0.  1.
    -200003    1    4    4    0    0  0.18365343773E+03 -0.32323646438E+02 -0.22926978663E+03  0.29704888213E+03  0.30000000000E+02 0.  1.
    -200000    1    3    3    0    0 -0.25208091586E+03  0.25960743350E+02 -0.50499661606E+01  0.27284656951E+03  0.10100000000E+03 0.  1.
<mgrwt>
<rscale>  0 0.12422604E+04</rscale>
<asrwt>0</asrwt>
<pdfrwt beam="1">  1        2 0.64072189E-01 0.12422604E+04</pdfrwt>
<pdfrwt beam="2">  1       -2 0.12288522E+00 0.12422604E+04</pdfrwt>
<totfact> 0.37460651E+01</totfact>
</mgrwt>
</event>
<event>
 8    2  0.4480234E-052  0.1372652E+04  0.7818608E-02  0.8973856E-01
         -2   -1    0    0    0  501 -0.00000000000E+00  0.00000000000E+00  0.75702639467E+03  0.75702639467E+03  0.25500000000E-02 0.  1.
          2   -1    0    0  501    0  0.00000000000E+00 -0.00000000000E+00 -0.62222806163E+03  0.62222806164E+03  0.25500000000E-02 0. -1.
    -200001    2    1    2    0    0  0.24995895972E+03 -0.17451281486E+03  0.19044653657E+02  0.68491871736E+03  0.61303894367E+03 0.  0.
   -5000001    2    3    3    0    0  0.24708284173E+03 -0.21833616897E+03  0.25532080786E+03  0.42423465673E+03  0.77882704654E+02 0.  0.
     200001    1    1    2    0    0 -0.24995895972E+03  0.17451281486E+03  0.11575367938E+03  0.69433573895E+03  0.61300000000E+03 0.  1.
         13    1    4    4    0    0  0.90836304649E+02 -0.39431804462E+02  0.83715552151E+02  0.12967037550E+03  0.10566000000E+00 0.  1.
    -200003    1    4    4    0    0  0.15624653708E+03 -0.17890436451E+03  0.17160525571E+03  0.29456428123E+03  0.30000000000E+02 0.  1.
    -200000    1    3    3    0    0  0.28761179957E+01  0.43823354110E+02 -0.23627615420E+03  0.26068406063E+03  0.10100000000E+03 0. -1.
<mgrwt>
<rscale>  0 0.13726515E+04</rscale>
<asrwt>0</asrwt>
<pdfrwt beam="1">  1        2 0.88889723E-01 0.13726515E+04</pdfrwt>
<pdfrwt beam="2">  1       -2 0.10814663E+00 0.13726515E+04</pdfrwt>
<totfact> 0.34743727E+01</totfact>
</mgrwt>
</event>
<event>
 8    2  0.4480234E-052  0.1315785E+04  0.7818608E-02  0.9017140E-01
         -2   -1    0    0    0  501 -0.00000000000E+00  0.00000000000E+00  0.12988535480E+04  0.12988535480E+04  0.25500000000E-02 0. -1.
          2   -1    0    0  501    0  0.00000000000E+00 -0.00000000000E+00 -0.33323453199E+03  0.33323453200E+03  0.25500000000E-02 0.  1.
    -200001    2    1    2    0    0 -0.23266895259E+03 -0.49859283834E+02  0.51062736379E+03  0.83245867006E+03  0.61288362926E+03 0.  0.
   -5000001    2    3    3    0    0 -0.34538108521E+03 -0.22395582602E+03  0.30979321171E+03  0.52660088042E+03  0.10905203898E+03 0.  0.
     200001    1    1    2    0    0  0.23266895259E+03  0.49859283834E+02  0.45499165224E+03  0.79962940997E+03  0.61300000000E+03 0. -1.
         13    1    4    4    0    0 -0.82585337073E+02 -0.49046996624E+02  0.13139517465E+03  0.16275948164E+03  0.10566000000E+00 0.  1.
    -200003    1    4    4    0    0 -0.26279574814E+03 -0.17490882939E+03  0.17839803706E+03  0.36384139878E+03  0.30000000000E+02 0.  1.
    -200000    1    3    3    0    0  0.11271213262E+03  0.17409654218E+03  0.20083415209E+03  0.30585778964E+03  0.10100000000E+03 0.  1.
<mgrwt>
<rscale>  0 0.13157855E+04</rscale>
<asrwt>0</asrwt>
<pdfrwt beam="1">  1        2 0.47604933E-01 0.13157855E+04</pdfrwt>
<pdfrwt beam="2">  1       -2 0.18555051E+00 0.13157855E+04</pdfrwt>
<totfact> 0.17259847E+01</totfact>
</mgrwt>
</event>
<event>
 8    2  0.4480234E-052  0.1576001E+04  0.7818608E-02  0.8835429E-01
          2   -1    0    0  501    0  0.00000000000E+00  0.00000000000E+00  0.83435996438E+03  0.83435996438E+03  0.25500000000E-02 0. -1.
         -2   -1    0    0    0  501 -0.00000000000E+00 -0.00000000000E+00 -0.74421651886E+03  0.74421651886E+03  0.25500000000E-02 0.  1.
    -200001    2    1    2    0    0 -0.15487158039E+03 -0.29895042190E+03  0.40852548359E+03  0.81014126585E+03  0.61325299732E+03 0.  0.
   -5000001    2    3    3    0    0  0.13811111097E+03 -0.34725066699E+03  0.26646990519E+03  0.46582664451E+03  0.79564738847E+02 0.  0.
     200001    1    1    2    0    0  0.15487158039E+03  0.29895042190E+03 -0.31838203807E+03  0.76843521739E+03  0.61300000000E+03 0.  1.
         13    1    4    4    0    0  0.11280817039E+03 -0.24378598055E+03  0.16226254966E+03  0.31382548304E+03  0.10566000000E+00 0.  1.
    -200003    1    4    4    0    0  0.25302940575E+02 -0.10346468644E+03  0.10420735553E+03  0.15200116147E+03  0.30000000000E+02 0. -1.
    -200000    1    3    3    0    0 -0.29298269136E+03  0.48300245092E+02  0.14205557840E+03  0.34431462134E+03  0.10100000000E+03 0.  1.
<mgrwt>
<rscale>  0 0.15760006E+04</rscale>
<asrwt>0</asrwt>
<pdfrwt beam="1">  1        2 0.11919428E+00 0.15760006E+04</pdfrwt>
<pdfrwt beam="2">  1       -2 0.10631665E+00 0.15760006E+04</pdfrwt>
<totfact> 0.24718191E+01</totfact>
</mgrwt>
</event>
<event>
 8    2  0.4480234E-052  0.1373940E+04  0.7818608E-02  0.8972901E-01
          2   -1    0    0  501    0  0.00000000000E+00  0.00000000000E+00  0.14432438966E+04  0.14432438966E+04  0.25500000000E-02 0.  1.
         -2   -1    0    0    0  501 -0.00000000000E+00 -0.00000000000E+00 -0.32699122239E+03  0.32699122240E+03  0.25500000000E-02 0. -1.
    -200001    2    1    2    0    0 -0.20703323283E+03  0.19063903200E+03  0.38933277191E+03  0.77857613307E+03  0.61269469370E+03 0.  0.
   -5000001    2    3    3    0    0 -0.21485215840E+03  0.32509387021E+03  0.49924268461E+02  0.39971155129E+03  0.73684579355E+02 0.  0.
     200001    1    1    2    0    0  0.20703323283E+03 -0.19063903200E+03  0.72691990233E+03  0.99165898595E+03  0.61300000000E+03 0.  1.
         13    1    4    4    0    0 -0.13607087609E+03  0.24205722135E+03  0.44801954695E+02  0.28127248006E+03  0.10566000000E+00 0.  1.
    -200003    1    4    4    0    0 -0.78781282310E+02  0.83036648859E+02  0.51223137666E+01  0.11843907123E+03  0.30000000000E+02 0.  1.
    -200000    1    3    3    0    0  0.78189255729E+01 -0.13445483821E+03  0.33940850345E+03  0.37886458178E+03  0.10100000000E+03 0.  1.
<mgrwt>
<rscale>  0 0.13739404E+04</rscale>
<asrwt>0</asrwt>
<pdfrwt beam="1">  1        2 0.20617770E+00 0.13739404E+04</pdfrwt>
<pdfrwt beam="2">  1       -2 0.46713032E-01 0.13739404E+04</pdfrwt>
<totfact> 0.66455384E+01</totfact>
</mgrwt>
</event>
<event>
 8    2  0.4480234E-052  0.1712045E+04  0.7818608E-02  0.8754525E-01
         -2   -1    0    0    0  501 -0.00000000000E+00  0.00000000000E+00  0.23536664028E+03  0.23536664029E+03  0.25500000000E-02 0. -1.
          2   -1    0    0  501    0  0.00000000000E+00 -0.00000000000E+00 -0.31133303673E+04  0.31133303673E+04  0.25500000000E-02 0.  1.
    -200001    2    1    2    0    0  0.57392091574E+03  0.58253830507E+02 -0.11331539235E+04  0.14114543855E+04  0.61268829088E+03 0.  0.
   -5000001    2    3    3    0    0  0.50277746922E+03 -0.20582585652E+03 -0.78288478846E+03  0.95572536731E+03  0.73163645022E+02 0.  0.
     200001    1    1    2    0    0 -0.57392091574E+03 -0.58253830507E+02 -0.17448098035E+04  0.19372426221E+04  0.61300000000E+03 0. -1.
         13    1    4    4    0    0  0.21362633045E+03 -0.54852446946E+02 -0.32173327281E+03  0.39007346743E+03  0.10566000000E+00 0.  1.
    -200003    1    4    4    0    0  0.28915113876E+03 -0.15097340958E+03 -0.46115151565E+03  0.56565189988E+03  0.30000000000E+02 0.  1.
    -200000    1    3    3    0    0  0.71143446526E+02  0.26407968703E+03 -0.35026913505E+03  0.45572901823E+03  0.10100000000E+03 0. -1.
<mgrwt>
<rscale>  0 0.17120445E+04</rscale>
<asrwt>0</asrwt>
<pdfrwt beam="1">  1        2 0.44476146E+00 0.17120445E+04</pdfrwt>
<pdfrwt beam="2">  1       -2 0.33623808E-01 0.17120445E+04</pdfrwt>
<totfact> 0.16092456E+01</totfact>
</mgrwt>
</event>
<event>
 8    2  0.4480234E-052  0.1232495E+04  0.7818608E-02  0.9084880E-01
          2   -1    0    0  501    0  0.00000000000E+00  0.00000000000E+00  0.14295071767E+03  0.14295071769E+03  0.25500000000E-02 0.  1.
         -2   -1    0    0    0  501 -0.00000000000E+00 -0.00000000000E+00 -0.26565846598E+04  0.26565846598E+04  0.25500000000E-02 0. -1.
    -200001    2    1    2    0    0  0.25991662701E+02 -0.33588581354E+02 -0.11173338693E+04  0.12740103358E+04  0.61062558167E+03 0.  0.
   -5000001    2    3    3    0    0 -0.17002113375E+03 -0.81799040796E+02 -0.75072926195E+03  0.84349296928E+03  0.33509356228E+03 0.  0.
     200001    1    1    2    0    0 -0.25991662701E+02  0.33588581354E+02 -0.13963000728E+04  0.15255250416E+04  0.61300000000E+03 0. -1.
         13    1    4    4    0    0  0.82447983528E+02  0.12977355433E+02 -0.64230215705E+02  0.10531672951E+03  0.10566000000E+00 0.  1.
    -200003    1    4    4    0    0 -0.25246911728E+03 -0.94776396229E+02 -0.68649904625E+03  0.73817623977E+03  0.30000000000E+02 0.  1.
    -200000    1    3    3    0    0  0.19601279645E+03  0.48210459442E+02 -0.36660460735E+03  0.43051736655E+03  0.10100000000E+03 0. -1.
<mgrwt>
<rscale>  0 0.12324945E+04</rscale>
<asrwt>0</asrwt>
<pdfrwt beam="1">  1        2 0.20421533E-01 0.12324945E+04</pdfrwt>
<pdfrwt beam="2">  1       -2 0.37951206E+00 0.12324945E+04</pdfrwt>
<totfact> 0.28071252E+00</totfact>
</mgrwt>
</event>
<event>
 8    2  0.4480234E-052  0.1407268E+04  0.7818608E-02  0.8948574E-01
         -2   -1    0    0    0  501 -0.00000000000E+00  0.00000000000E+00  0.17618602137E+03  0.17618602139E+03  0.25500000000E-02 0. -1.
          2   -1    0    0  501    0  0.00000000000E+00 -0.00000000000E+00 -0.28101024407E+04  0.28101024407E+04  0.25500000000E-02 0.  1.
    -200001    2    1    2    0    0  0.31825453099E+02 -0.94786020062E+02 -0.20176887839E+04  0.21113583233E+04  0.61381486756E+03 0.  0.
   -5000001    2    3    3    0    0  0.12352368724E+03 -0.31287981904E+03 -0.13867694585E+04  0.14300113732E+04  0.93011364243E+02 0.  0.
     200001    1    1    2    0    0 -0.31825453099E+02  0.94786020062E+02 -0.61622763539E+03  0.87493013874E+03  0.61300000000E+03 0. -1.
         13    1    4    4    0    0  0.30971343646E+02 -0.36447938351E+02 -0.10841663688E+03  0.11849833186E+03  0.10566000000E+00 0.  1.
    -200003    1    4    4    0    0  0.92552343597E+02 -0.27643188069E+03 -0.12783528216E+04  0.13115130413E+04  0.30000000000E+02 0.  1.
    -200000    1    3    3    0    0 -0.91698234143E+02  0.21809379898E+03 -0.63091932541E+03  0.68134695015E+03  0.10100000000E+03 0. -1.
<mgrwt>
<rscale>  0 0.14072679E+04</rscale>
<asrwt>0</asrwt>
<pdfrwt beam="1">  1        2 0.40144318E+00 0.14072679E+04</pdfrwt>
<pdfrwt beam="2">  1       -2 0.25169433E-01 0.14072679E+04</pdfrwt>
<totfact> 0.41652323E+01</totfact>
</mgrwt>
</event>
<event>
 8    2  0.4480234E-052  0.1493750E+04  0.7818608E-02  0.8888620E-01
          2   -1    0    0  501    0  0.00000000000E+00  0.00000000000E+00  0.25121469432E+04  0.25121469432E+04  0.25500000000E-02 0.  1.
         -2   -1    0    0    0  501 -0.00000000000E+00 -0.00000000000E+00 -0.22205010361E+03  0.22205010362E+03  0.25500000000E-02 0. -1.
    -200001    2    1    2    0    0 -0.38404225747E+03  0.10752034324E+03  0.86637058092E+03  0.11336301037E+04  0.61275619037E+03 0.  0.
   -5000001    2    3    3    0    0 -0.30413446304E+03  0.32341229540E+03  0.40383932478E+03  0.60719800599E+03  0.92249302482E+02 0.  0.
     200001    1    1    2    0    0  0.38404225747E+03 -0.10752034324E+03  0.14237262587E+04  0.16005669431E+04  0.61300000000E+03 0.  1.
         13    1    4    4    0    0 -0.13405585793E+03  0.19789805191E+03  0.19406852084E+03  0.30789156199E+03  0.10566000000E+00 0.  1.
    -200003    1    4    4    0    0 -0.17007860511E+03  0.12551424348E+03  0.20977080394E+03  0.29930644400E+03  0.30000000000E+02 0.  1.
    -200000    1    3    3    0    0 -0.79907794429E+02 -0.21589195216E+03  0.46253125614E+03  0.52643209773E+03  0.10100000000E+03 0.  1.
<mgrwt>
<rscale>  0 0.14937503E+04</rscale>
<asrwt>0</asrwt>
<pdfrwt beam="1">  1        2 0.35887812E+00 0.14937503E+04</pdfrwt>
<pdfrwt beam="2">  1       -2 0.31721445E-01 0.14937503E+04</pdfrwt>
<totfact> 0.38892991E+01</totfact>
</mgrwt>
</event>
<event>
 8    2  0.4480234E-052  0.1562138E+04  0.7818608E-02  0.8844152E-01
         -2   -1    0    0    0  501 -0.00000000000E+00  0.00000000000E+00  0.69032177273E+03  0.69032177274E+03  0.25500000000E-02 0. -1.
          2   -1    0    0  501    0  0.00000000000E+00 -0.00000000000E+00 -0.88374551614E+03  0.88374551615E+03  0.25500000000E-02 0.  1.
    -200001    2    1    2    0    0 -0.31039740073E+03 -0.18219912281E+03  0.22880223401E+03  0.74727418131E+03  0.61361647063E+03 0.  0.
   -5000001    2    3    3    0    0 -0.55447627415E+02  0.16513179940E+03  0.22625699658E+03  0.30472968109E+03  0.10641898082E+03 0.  0.
     200001    1    1    2    0    0  0.31039740073E+03  0.18219912281E+03 -0.42222597742E+03  0.82679310758E+03  0.61300000000E+03 0.  1.
         13    1    4    4    0    0 -0.51901442318E+02  0.24171538438E+02  0.88003770627E+02  0.10498903654E+03  0.10566000000E+00 0.  1.
    -200003    1    4    4    0    0 -0.35461850968E+01  0.14096026096E+03  0.13825322595E+03  0.19974064455E+03  0.30000000000E+02 0.  1.
    -200000    1    3    3    0    0 -0.25494977332E+03 -0.34733092221E+03  0.25452374341E+01  0.44254450022E+03  0.10100000000E+03 0. -1.
<mgrwt>
<rscale>  0 0.15621380E+04</rscale>
<asrwt>0</asrwt>
<pdfrwt beam="1">  1        2 0.12624936E+00 0.15621380E+04</pdfrwt>
<pdfrwt beam="2">  1       -2 0.98617396E-01 0.15621380E+04</pdfrwt>
<totfact> 0.27427729E+01</totfact>
</mgrwt>
</event>
<event>
 8    2  0.4480234E-052  0.3611915E+04  0.7818608E-02  0.8087768E-01
          2   -1    0    0  501    0  0.00000000000E+00  0.00000000000E+00  0.17922071776E+04  0.17922071776E+04  0.25500000000E-02 0.  1.
         -2   -1    0    0    0  501 -0.00000000000E+00 -0.00000000000E+00 -0.18198134445E+04  0.18198134445E+04  0.25500000000E-02 0. -1.
    -200001    2    1    2    0    0 -0.81075016318E+03 -0.11375132403E+04 -0.98002351450E+03  0.18136547493E+04  0.61452848722E+03 0.  0.
   -5000001    2    3    3    0    0 -0.38709303159E+03 -0.27692538040E+03 -0.55505945254E+03  0.75966599993E+03  0.20608918987E+03 0.  0.
     200001    1    1    2    0    0  0.81075016318E+03  0.11375132403E+04  0.95241724761E+03  0.17983658728E+04  0.61300000000E+03 0.  1.
         13    1    4    4    0    0 -0.10212965756E+03 -0.12030705048E+02 -0.22944254018E+03  0.25143407730E+03  0.10566000000E+00 0.  1.
    -200003    1    4    4    0    0 -0.28496337403E+03 -0.26489467535E+03 -0.32561691235E+03  0.50823192263E+03  0.30000000000E+02 0.  1.
    -200000    1    3    3    0    0 -0.42365713159E+03 -0.86058785994E+03 -0.42496406196E+03  0.10539887494E+04  0.10100000000E+03 0.  1.
<mgrwt>
<rscale>  0 0.36119151E+04</rscale>
<asrwt>0</asrwt>
<pdfrwt beam="1">  1        2 0.25602960E+00 0.36119151E+04</pdfrwt>
<pdfrwt beam="2">  1       -2 0.25997335E+00 0.36119151E+04</pdfrwt>
<totfact> 0.47141850E-01</totfact>
</mgrwt>
</event>
<event>
 8    2  0.4480234E-052  0.1402065E+04  0.7818608E-02  0.8952325E-01
         -2   -1    0    0    0  501 -0.00000000000E+00  0.00000000000E+00  0.89580136782E+03  0.89580136782E+03  0.25500000000E-02 0.  1.
          2   -1    0    0  501    0  0.00000000000E+00 -0.00000000000E+00 -0.54861076942E+03  0.54861076942E+03  0.25500000000E-02 0. -1.
    -200001    2    1    2    0    0  0.18158611999E+03 -0.60906838644E+02 -0.11867281933E+03  0.65101382243E+03  0.61078031811E+03 0.  0.
   -5000001    2    3    3    0    0 -0.51008904172E+02 -0.10679702250E+03  0.19954623378E+03  0.24153766928E+03  0.67188049131E+02 0.  0.
     200001    1    1    2    0    0 -0.18158611999E+03  0.60906838644E+02  0.46586341773E+03  0.79339831481E+03  0.61300000000E+03 0.  1.
         13    1    4    4    0    0 -0.64111519339E+01 -0.29347285825E+02  0.10009285714E+03  0.10450338400E+03  0.10566000000E+00 0.  1.
    -200003    1    4    4    0    0 -0.44597752238E+02 -0.77449736673E+02  0.99453376645E+02  0.13703428528E+03  0.30000000000E+02 0.  1.
    -200000    1    3    3    0    0  0.23259502416E+03  0.45890183854E+02 -0.31821905311E+03  0.40947615315E+03  0.10100000000E+03 0.  1.
<mgrwt>
<rscale>  0 0.14020646E+04</rscale>
<asrwt>0</asrwt>
<pdfrwt beam="1">  1        2 0.78372968E-01 0.14020646E+04</pdfrwt>
<pdfrwt beam="2">  1       -2 0.12797162E+00 0.14020646E+04</pdfrwt>
<totfact> 0.26555402E+01</totfact>
</mgrwt>
</event>
<event>
 8    2  0.4480234E-052  0.1498738E+04  0.7818608E-02  0.8885292E-01
          2   -1    0    0  501    0  0.00000000000E+00  0.00000000000E+00  0.38929285531E+04  0.38929285531E+04  0.25500000000E-02 0.  1.
         -2   -1    0    0    0  501 -0.00000000000E+00 -0.00000000000E+00 -0.14424976402E+03  0.14424976404E+03  0.25500000000E-02 0. -1.
    -200001    2    1    2    0    0  0.17719490097E+03 -0.39280321920E+03  0.18592940546E+04  0.20046340798E+04  0.61309951101E+03 0.  0.
   -5000001    2    3    3    0    0  0.13615179575E+03 -0.15908742649E+03  0.16661922137E+04  0.16824587716E+04  0.10307717697E+03 0.  0.
     200001    1    1    2    0    0 -0.17719490097E+03  0.39280321920E+03  0.18893847344E+04  0.20325442373E+04  0.61300000000E+03 0.  1.
         13    1    4    4    0    0  0.10683476623E+03 -0.10840289276E+03  0.14003405197E+04  0.14085873905E+04  0.10566000000E+00 0.  1.
    -200003    1    4    4    0    0  0.29317029517E+02 -0.50684533731E+02  0.26585169394E+03  0.27387138103E+03  0.30000000000E+02 0.  1.
    -200000    1    3    3    0    0  0.41043105223E+02 -0.23371579271E+03  0.19310184094E+03  0.32217530821E+03  0.10100000000E+03 0.  1.
<mgrwt>
<rscale>  0 0.14987382E+04</rscale>
<asrwt>0</asrwt>
<pdfrwt beam="1">  1        2 0.55613274E+00 0.14987382E+04</pdfrwt>
<pdfrwt beam="2">  1       -2 0.20607106E-01 0.14987382E+04</pdfrwt>
<totfact> 0.13432366E+01</totfact>
</mgrwt>
</event>
<event>
 8    2  0.4480234E-052  0.1486527E+04  0.7818608E-02  0.8893462E-01
         -2   -1    0    0    0  501 -0.00000000000E+00  0.00000000000E+00  0.26945137363E+03  0.26945137364E+03  0.25500000000E-02 0. -1.
          2   -1    0    0  501    0  0.00000000000E+00 -0.00000000000E+00 -0.20502431005E+04  0.20502431005E+04  0.25500000000E-02 0.  1.
    -200001    2    1    2    0    0  0.34054115877E+03  0.21827155624E+03 -0.10697659897E+04  0.12974727017E+04  0.61271966338E+03 0.  0.
   -5000001    2    3    3    0    0  0.11657594995E+03 -0.81522453691E+02 -0.81897401827E+03  0.83580780584E+03  0.87294805935E+02 0.  0.
     200001    1    1    2    0    0 -0.34054115877E+03 -0.21827155624E+03 -0.71102573712E+03  0.10222217724E+04  0.61300000000E+03 0. -1.
         13    1    4    4    0    0  0.96793156263E+02 -0.39831133621E+02 -0.41012828312E+03  0.42327373422E+03  0.10566000000E+00 0.  1.
    -200003    1    4    4    0    0  0.19782793682E+02 -0.41691320070E+02 -0.40884573515E+03  0.41253407162E+03  0.30000000000E+02 0.  1.
    -200000    1    3    3    0    0  0.22396520882E+03  0.29979400993E+03 -0.25079197146E+03  0.46166489589E+03  0.10100000000E+03 0. -1.
<mgrwt>
<rscale>  0 0.14865273E+04</rscale>
<asrwt>0</asrwt>
<pdfrwt beam="1">  1        2 0.29289186E+00 0.14865273E+04</pdfrwt>
<pdfrwt beam="2">  1       -2 0.38493055E-01 0.14865273E+04</pdfrwt>
<totfact> 0.46669356E+01</totfact>
</mgrwt>
</event>
<event>
 8    2  0.4480234E-052  0.2031211E+04  0.7818608E-02  0.8592166E-01
          2   -1    0    0  501    0  0.00000000000E+00  0.00000000000E+00  0.24602332776E+04  0.24602332776E+04  0.25500000000E-02 0. -1.
         -2   -1    0    0    0  501 -0.00000000000E+00 -0.00000000000E+00 -0.41925076911E+03  0.41925076911E+03  0.25500000000E-02 0.  1.
    -200001    2    1    2    0    0  0.26529179838E+03  0.48199619675E+03  0.17812543225E+03  0.84264690092E+03  0.61288258096E+03 0.  0.
   -5000001    2    3    3    0    0  0.31387050221E+02  0.31976735802E+03  0.31719897832E+03  0.51012309945E+03  0.23743225258E+03 0.  0.
     200001    1    1    2    0    0 -0.26529179838E+03 -0.48199619675E+03  0.18628570762E+04  0.20368371458E+04  0.61300000000E+03 0. -1.
         13    1    4    4    0    0 -0.34931259421E+02  0.13822323961E+03  0.27539957325E+03  0.31011416118E+03  0.10566000000E+00 0.  1.
    -200003    1    4    4    0    0  0.66318309643E+02  0.18154411841E+03  0.41799405074E+02  0.20000893827E+03  0.30000000000E+02 0.  1.
    -200000    1    3    3    0    0  0.23390474816E+03  0.16222883873E+03 -0.13907354607E+03  0.33252380147E+03  0.10100000000E+03 0.  1.
<mgrwt>
<rscale>  0 0.20312112E+04</rscale>
<asrwt>0</asrwt>
<pdfrwt beam="1">  1        2 0.35146190E+00 0.20312112E+04</pdfrwt>
<pdfrwt beam="2">  1       -2 0.59892966E-01 0.20312112E+04</pdfrwt>
<totfact> 0.11187915E+01</totfact>
</mgrwt>
</event>
<event>
 8    2  0.4480234E-052  0.1555777E+04  0.7818608E-02  0.8848186E-01
          2   -1    0    0  501    0  0.00000000000E+00  0.00000000000E+00  0.42682402900E+03  0.42682402901E+03  0.25500000000E-02 0.  1.
         -2   -1    0    0    0  501 -0.00000000000E+00 -0.00000000000E+00 -0.14177055430E+04  0.14177055430E+04  0.25500000000E-02 0. -1.
    -200001    2    1    2    0    0  0.41017163704E+03 -0.14664118515E+03 -0.75187131836E+03  0.10554546182E+04  0.59910730489E+03 0.  0.
   -5000001    2    3    3    0    0  0.17382407198E+03 -0.26163147413E+03 -0.15363462388E+03  0.39426547684E+03  0.18214234082E+03 0.  0.
     200001    1    1    2    0    0 -0.41017163704E+03  0.14664118515E+03 -0.23901019559E+03  0.78907495373E+03  0.61300000000E+03 0.  1.
         13    1    4    4    0    0 -0.28092136364E+02 -0.71241458152E+02 -0.20147156880E+01  0.76606682010E+02  0.10566000000E+00 0.  1.
    -200003    1    4    4    0    0  0.20191620834E+03 -0.19039001598E+03 -0.15161990819E+03  0.31765879483E+03  0.30000000000E+02 0.  1.
    -200000    1    3    3    0    0  0.23634756506E+03  0.11499028898E+03 -0.59823669448E+03  0.66118914139E+03  0.10100000000E+03 0. -1.
<mgrwt>
<rscale>  0 0.15557774E+04</rscale>
<asrwt>0</asrwt>
<pdfrwt beam="1">  1        2 0.60974862E-01 0.15557774E+04</pdfrwt>
<pdfrwt beam="2">  1       -2 0.20252936E+00 0.15557774E+04</pdfrwt>
<totfact> 0.99138725E+00</totfact>
</mgrwt>
</event>
<event>
 8    2  0.4480234E-052  0.1662843E+04  0.7818608E-02  0.8782845E-01
         -2   -1    0    0    0  501 -0.00000000000E+00  0.00000000000E+00  0.52240818956E+03  0.52240818957E+03  0.25500000000E-02 0. -1.
          2   -1    0    0  501    0  0.00000000000E+00 -0.00000000000E+00 -0.13232217433E+04  0.13232217433E+04  0.25500000000E-02 0.  1.
    -200001    2    1    2    0    0 -0.21131701410E+03  0.49419153537E+02 -0.97533697701E+03  0.11723361200E+04  0.61318237607E+03 0.  0.
   -5000001    2    3    3    0    0  0.10367185099E+02  0.17519647537E+03 -0.60309719067E+03  0.71002964437E+03  0.33108094325E+03 0.  0.
     200001    1    1    2    0    0  0.21131701410E+03 -0.49419153537E+02  0.17452342328E+03  0.67329381288E+03  0.61300000000E+03 0. -1.
         13    1    4    4    0    0 -0.11879171136E+01  0.23557871316E+03 -0.59646379258E+03  0.64130165154E+03  0.10566000000E+00 0.  1.
    -200003    1    4    4    0    0  0.11555102213E+02 -0.60382237795E+02 -0.66333980867E+01  0.68727992830E+02  0.30000000000E+02 0.  1.
    -200000    1    3    3    0    0 -0.22168419920E+03 -0.12577732183E+03 -0.37223978634E+03  0.46230647562E+03  0.10100000000E+03 0.  1.
<mgrwt>
<rscale>  0 0.16628432E+04</rscale>
<asrwt>0</asrwt>
<pdfrwt beam="1">  1        2 0.18903168E+00 0.16628432E+04</pdfrwt>
<pdfrwt beam="2">  1       -2 0.74629742E-01 0.16628432E+04</pdfrwt>
<totfact> 0.28150560E+01</totfact>
</mgrwt>
</event>
<event>
 8    2  0.4480234E-052  0.1411214E+04  0.7818608E-02  0.8945741E-01
          2   -1    0    0  501    0  0.00000000000E+00  0.00000000000E+00  0.14622211145E+04  0.14622211145E+04  0.25500000000E-02 0.  1.
         -2   -1    0    0    0  501 -0.00000000000E+00 -0.00000000000E+00 -0.34049672707E+03  0.34049672708E+03  0.25500000000E-02 0. -1.
    -200001    2    1    2    0    0  0.21690219547E+03 -0.25344369879E+03  0.69084549937E+03  0.98253134629E+03  0.61385671911E+03 0.  0.
   -5000001    2    3    3    0    0  0.34218598096E+03 -0.22538490326E+03  0.19427054297E+03  0.45977804862E+03  0.75928979572E+02 0.  0.
     200001    1    1    2    0    0 -0.21690219547E+03  0.25344369879E+03  0.43087888804E+03  0.82018649526E+03  0.61300000000E+03 0. -1.
         13    1    4    4    0    0  0.11436915230E+03 -0.10772515629E+03  0.92246504851E+02  0.18219341678E+03  0.10566000000E+00 0.  1.
    -200003    1    4    4    0    0  0.22781682866E+03 -0.11765974697E+03  0.10202403812E+03  0.27758463184E+03  0.30000000000E+02 0.  1.
    -200000    1    3    3    0    0 -0.12528378549E+03 -0.28058795522E+02  0.49657495640E+03  0.52275329768E+03  0.10100000000E+03 0.  1.
<mgrwt>
<rscale>  0 0.14112144E+04</rscale>
<asrwt>0</asrwt>
<pdfrwt beam="1">  1        2 0.20888874E+00 0.14112144E+04</pdfrwt>
<pdfrwt beam="2">  1       -2 0.48642388E-01 0.14112144E+04</pdfrwt>
<totfact> 0.59661328E+01</totfact>
</mgrwt>
</event>
<event>
 8    2  0.4480234E-052  0.1420478E+04  0.7818608E-02  0.8939127E-01
          2   -1    0    0  501    0  0.00000000000E+00  0.00000000000E+00  0.50865770641E+03  0.50865770641E+03  0.25500000000E-02 0.  1.
         -2   -1    0    0    0  501 -0.00000000000E+00 -0.00000000000E+00 -0.99170753413E+03  0.99170753413E+03  0.25500000000E-02 0. -1.
    -200001    2    1    2    0    0  0.19686226770E+03  0.28676798905E+03 -0.32943759489E+03  0.77900794345E+03  0.61427486929E+03 0.  0.
   -5000001    2    3    3    0    0  0.17436934741E+03  0.40008545658E+03 -0.40894626215E+03  0.60618026026E+03  0.98713832477E+02 0.  0.
     200001    1    1    2    0    0 -0.19686226770E+03 -0.28676798905E+03 -0.15361223282E+03  0.72135729709E+03  0.61300000000E+03 0.  1.
         13    1    4    4    0    0  0.54305392082E+02  0.10499535553E+03 -0.59425948381E+02  0.13230477994E+03  0.10566000000E+00 0.  1.
    -200003    1    4    4    0    0  0.12006395533E+03  0.29509010105E+03 -0.34952031377E+03  0.47387548032E+03  0.30000000000E+02 0.  1.
    -200000    1    3    3    0    0  0.22492920292E+02 -0.11331746752E+03  0.79508667254E+02  0.17282768319E+03  0.10100000000E+03 0.  1.
<mgrwt>
<rscale>  0 0.14204783E+04</rscale>
<asrwt>0</asrwt>
<pdfrwt beam="1">  1        2 0.72665387E-01 0.14204783E+04</pdfrwt>
<pdfrwt beam="2">  1       -2 0.14167250E+00 0.14204783E+04</pdfrwt>
<totfact> 0.22302125E+01</totfact>
</mgrwt>
</event>
<event>
 8    2  0.4480234E-052  0.1260143E+04  0.7818608E-02  0.9061783E-01
          2   -1    0    0  501    0  0.00000000000E+00  0.00000000000E+00  0.78486865287E+03  0.78486865287E+03  0.25500000000E-02 0.  1.
         -2   -1    0    0    0  501 -0.00000000000E+00 -0.00000000000E+00 -0.50580445922E+03  0.50580445923E+03  0.25500000000E-02 0. -1.
    -200001    2    1    2    0    0 -0.14774450905E+03  0.17176743206E+01  0.14570882334E+03  0.64617016785E+03  0.61194234553E+03 0.  0.
   -5000001    2    3    3    0    0 -0.46535322273E+02  0.26650015997E+03  0.19404514434E+03  0.34139079826E+03  0.75539973621E+02 0.  0.
     200001    1    1    2    0    0  0.14774450905E+03 -0.17176743206E+01  0.13335537031E+03  0.64450294425E+03  0.61300000000E+03 0.  1.
         13    1    4    4    0    0  0.13789406198E+00  0.31736340171E+01 -0.55135386822E+01  0.63640584915E+01  0.10566000000E+00 0.  1.
    -200003    1    4    4    0    0 -0.46673216335E+02  0.26332652595E+03  0.19955868302E+03  0.33502673977E+03  0.30000000000E+02 0.  1.
    -200000    1    3    3    0    0 -0.10120918678E+03 -0.26478248565E+03 -0.48336320997E+02  0.30477936958E+03  0.10100000000E+03 0. -1.
<mgrwt>
<rscale>  0 0.12601430E+04</rscale>
<asrwt>0</asrwt>
<pdfrwt beam="1">  1        2 0.11212409E+00 0.12601430E+04</pdfrwt>
<pdfrwt beam="2">  1       -2 0.72257780E-01 0.12601430E+04</pdfrwt>
<totfact> 0.66478790E+01</totfact>
</mgrwt>
</event>
<event>
 8    2  0.4480234E-052  0.1955223E+04  0.7818608E-02  0.8627846E-01
          2   -1    0    0  501    0  0.00000000000E+00  0.00000000000E+00  0.23508543793E+04  0.23508543793E+04  0.25500000000E-02 0.  1.
         -2   -1    0    0    0  501 -0.00000000000E+00 -0.00000000000E+00 -0.40654323671E+03  0.40654323672E+03  0.25500000000E-02 0. -1.
    -200001    2    1    2    0    0 -0.73441185573E+02  0.75365171704E+03  0.10823083002E+04  0.14565508077E+04  0.61381143722E+03 0.  0.
   -5000001    2    3    3    0    0 -0.10653038405E+03 -0.36141939255E+02  0.32795778547E+03  0.35922924426E+03  0.93991373953E+02 0.  0.
     200001    1    1    2    0    0  0.73441185573E+02 -0.75365171704E+03  0.86200284240E+03  0.13008468083E+04  0.61300000000E+03 0. -1.
         13    1    4    4    0    0 -0.91648221127E+02 -0.27487555911E+01  0.15662520064E+03  0.18148943973E+03  0.10566000000E+00 0.  1.
    -200003    1    4    4    0    0 -0.14882162925E+02 -0.33393183663E+02  0.17133258483E+03  0.17773980453E+03  0.30000000000E+02 0.  1.
    -200000    1    3    3    0    0  0.33089198479E+02  0.78979365629E+03  0.75435051469E+03  0.10973215634E+04  0.10100000000E+03 0.  1.
<mgrwt>
<rscale>  0 0.19552227E+04</rscale>
<asrwt>0</asrwt>
<pdfrwt beam="1">  1        2 0.33583634E+00 0.19552227E+04</pdfrwt>
<pdfrwt beam="2">  1       -2 0.58077605E-01 0.19552227E+04</pdfrwt>
<totfact> 0.13703704E+01</totfact>
</mgrwt>
</event>
<event>
 8    2  0.4480234E-052  0.2351960E+04  0.7818608E-02  0.8457711E-01
         -2   -1    0    0    0  501 -0.00000000000E+00  0.00000000000E+00  0.12496137193E+04  0.12496137193E+04  0.25500000000E-02 0. -1.
          2   -1    0    0  501    0  0.00000000000E+00 -0.00000000000E+00 -0.11066849365E+04  0.11066849365E+04  0.25500000000E-02 0.  1.
    -200001    2    1    2    0    0  0.75416315008E+03  0.66031627748E+03  0.15942112384E+02  0.11744889175E+04  0.61187451577E+03 0.  0.
   -5000001    2    3    3    0    0  0.82970373448E+02  0.24738981819E+03  0.20730563398E+03  0.35728086465E+03  0.12879512938E+03 0.  0.
     200001    1    1    2    0    0 -0.75416315008E+03 -0.66031627748E+03  0.12698667046E+03  0.11818097384E+04  0.61300000000E+03 0.  1.
         13    1    4    4    0    0 -0.32979872261E+02  0.62337555895E+02  0.52641425165E+02  0.88004395667E+02  0.10566000000E+00 0.  1.
    -200003    1    4    4    0    0  0.11595024571E+03  0.18505226230E+03  0.15466420881E+03  0.26927646898E+03  0.30000000000E+02 0.  1.
    -200000    1    3    3    0    0  0.67119277663E+03  0.41292645929E+03 -0.19136352159E+03  0.81720805281E+03  0.10100000000E+03 0. -1.
<mgrwt>
<rscale>  0 0.23519598E+04</rscale>
<asrwt>0</asrwt>
<pdfrwt beam="1">  1        2 0.15809785E+00 0.23519598E+04</pdfrwt>
<pdfrwt beam="2">  1       -2 0.17851625E+00 0.23519598E+04</pdfrwt>
<totfact> 0.40785729E+00</totfact>
</mgrwt>
</event>
<event>
 8    2  0.4480234E-052  0.2429788E+04  0.7818608E-02  0.8428435E-01
          2   -1    0    0  501    0  0.00000000000E+00  0.00000000000E+00  0.22157545499E+04  0.22157545499E+04  0.25500000000E-02 0.  1.
         -2   -1    0    0    0  501 -0.00000000000E+00 -0.00000000000E+00 -0.66612425807E+03  0.66612425808E+03  0.25500000000E-02 0. -1.
    -200001    2    1    2    0    0  0.86455650369E+03  0.45497766972E+03  0.12276808902E+04  0.16844302516E+04  0.61289662777E+03 0.  0.
   -5000001    2    3    3    0    0  0.51157901490E+02 -0.11003120521E+03  0.89783134554E+02  0.17252264295E+03  0.83540733026E+02 0.  0.
     200001    1    1    2    0    0 -0.86455650369E+03 -0.45497766972E+03  0.32194940165E+03  0.11974485564E+04  0.61300000000E+03 0. -1.
         13    1    4    4    0    0  0.78395551808E+01  0.39941504067E+01 -0.91010922787E+01  0.12659103744E+02  0.10566000000E+00 0.  1.
    -200003    1    4    4    0    0  0.43318346309E+02 -0.11402535562E+03  0.98884226833E+02  0.15986353920E+03  0.30000000000E+02 0.  1.
    -200000    1    3    3    0    0  0.81339860220E+03  0.56500887492E+03  0.11378977557E+04  0.15119076087E+04  0.10100000000E+03 0.  1.
<mgrwt>
<rscale>  0 0.24297883E+04</rscale>
<asrwt>0</asrwt>
<pdfrwt beam="1">  1        2 0.31653636E+00 0.24297883E+04</pdfrwt>
<pdfrwt beam="2">  1       -2 0.95160610E-01 0.24297883E+04</pdfrwt>
<totfact> 0.51969872E+00</totfact>
</mgrwt>
</event>
<event>
 8    2  0.4480234E-052  0.2330504E+04  0.7818608E-02  0.8465990E-01
         -2   -1    0    0    0  501 -0.00000000000E+00  0.00000000000E+00  0.14936339705E+04  0.14936339705E+04  0.25500000000E-02 0. -1.
          2   -1    0    0  501    0  0.00000000000E+00 -0.00000000000E+00 -0.90906648522E+03  0.90906648522E+03  0.25500000000E-02 0.  1.
    -200001    2    1    2    0    0 -0.21782590434E+03 -0.38611721186E+03  0.12060941350E+04  0.14236197633E+04  0.61277691051E+03 0.  0.
   -5000001    2    3    3    0    0 -0.58807369928E+02 -0.15900645298E+03  0.38675681434E+02  0.21948811068E+03  0.13393230957E+03 0.  0.
     200001    1    1    2    0    0  0.21782590434E+03  0.38611721186E+03 -0.62152664975E+03  0.97908069241E+03  0.61300000000E+03 0.  1.
         13    1    4    4    0    0 -0.73446651552E+02 -0.13044063256E+03 -0.14629603811E+02  0.15041012506E+03  0.10566000000E+00 0.  1.
    -200003    1    4    4    0    0  0.14639281625E+02 -0.28565820417E+02  0.53305285245E+02  0.69077985623E+02  0.30000000000E+02 0.  1.
    -200000    1    3    3    0    0 -0.15901853442E+03 -0.22711075888E+03  0.11674184536E+04  0.12041316527E+04  0.10100000000E+03 0. -1.
<mgrwt>
<rscale>  0 0.23305043E+04</rscale>
<asrwt>0</asrwt>
<pdfrwt beam="1">  1        2 0.12986664E+00 0.23305043E+04</pdfrwt>
<pdfrwt beam="2">  1       -2 0.21337628E+00 0.23305043E+04</pdfrwt>
<totfact> 0.31739738E+00</totfact>
</mgrwt>
</event>
<event>
 8    2  0.4480234E-052  0.1453491E+04  0.7818608E-02  0.8915984E-01
          2   -1    0    0  501    0  0.00000000000E+00  0.00000000000E+00  0.21179235362E+03  0.21179235364E+03  0.25500000000E-02 0.  1.
         -2   -1    0    0    0  501 -0.00000000000E+00 -0.00000000000E+00 -0.24937595758E+04  0.24937595758E+04  0.25500000000E-02 0. -1.
    -200001    2    1    2    0    0 -0.33816660499E+03  0.86608202065E+02 -0.14665521712E+04  0.16273458551E+04  0.61287978254E+03 0.  0.
   -5000001    2    3    3    0    0 -0.91298316166E+02 -0.18170419626E+03 -0.17642219551E+03  0.28288616835E+03  0.86879201774E+02 0.  0.
     200001    1    1    2    0    0  0.33816660499E+03 -0.86608202065E+02 -0.81541505100E+03  0.10782060744E+04  0.61300000000E+03 0.  1.
         13    1    4    4    0    0 -0.57284699512E+02 -0.14589695838E+03 -0.15719653994E+03  0.22198698745E+03  0.10566000000E+00 0.  1.
    -200003    1    4    4    0    0 -0.34013616654E+02 -0.35807237878E+02 -0.19225655575E+02  0.60899180902E+02  0.30000000000E+02 0.  1.
    -200000    1    3    3    0    0 -0.24686828883E+03  0.26831239832E+03 -0.12901299757E+04  0.13444596868E+04  0.10100000000E+03 0. -1.
<mgrwt>
<rscale>  0 0.14534913E+04</rscale>
<asrwt>0</asrwt>
<pdfrwt beam="1">  1        2 0.30256052E-01 0.14534913E+04</pdfrwt>
<pdfrwt beam="2">  1       -2 0.35625135E+00 0.14534913E+04</pdfrwt>
<totfact> 0.24540938E+00</totfact>
</mgrwt>
</event>
<event>
 8    2  0.4480234E-052  0.1688157E+04  0.7818608E-02  0.8768148E-01
         -2   -1    0    0    0  501 -0.00000000000E+00  0.00000000000E+00  0.26943995781E+04  0.26943995781E+04  0.25500000000E-02 0. -1.
          2   -1    0    0  501    0  0.00000000000E+00 -0.00000000000E+00 -0.26442568649E+03  0.26442568651E+03  0.25500000000E-02 0.  1.
    -200001    2    1    2    0    0  0.34082131738E+03  0.21559717527E+03  0.19463970002E+04  0.20800437660E+04  0.61276379945E+03 0.  0.
   -5000001    2    3    3    0    0 -0.45166103719E+02 -0.11895752119E+03  0.16395232159E+03  0.22310457306E+03  0.81880510442E+02 0.  0.
     200001    1    1    2    0    0 -0.34082131738E+03 -0.21559717527E+03  0.48357689147E+03  0.87878149863E+03  0.61300000000E+03 0.  1.
         13    1    4    4    0    0  0.13441731844E+02 -0.33787070037E+02  0.15028508705E+02  0.39346073432E+02  0.10566000000E+00 0.  1.
    -200003    1    4    4    0    0 -0.58607835563E+02 -0.85170451152E+02  0.14892381289E+03  0.18375849963E+03  0.30000000000E+02 0.  1.
    -200000    1    3    3    0    0  0.38598742109E+03  0.33455469646E+03  0.17824446786E+04  0.18569391930E+04  0.10100000000E+03 0. -1.
<mgrwt>
<rscale>  0 0.16881569E+04</rscale>
<asrwt>0</asrwt>
<pdfrwt beam="1">  1        2 0.37775100E-01 0.16881569E+04</pdfrwt>
<pdfrwt beam="2">  1       -2 0.38491421E+00 0.16881569E+04</pdfrwt>
<totfact> 0.12274556E+00</totfact>
</mgrwt>
</event>
<event>
 8    2  0.4480234E-052  0.1346217E+04  0.7818608E-02  0.8993697E-01
         -2   -1    0    0    0  501 -0.00000000000E+00  0.00000000000E+00  0.24088299607E+03  0.24088299609E+03  0.25500000000E-02 0. -1.
          2   -1    0    0  501    0  0.00000000000E+00 -0.00000000000E+00 -0.18808928945E+04  0.18808928945E+04  0.25500000000E-02 0.  1.
    -200001    2    1    2    0    0  0.19290405506E+03 -0.19126718155E+03 -0.72722277378E+03  0.98919280571E+03  0.61306960043E+03 0.  0.
   -5000001    2    3    3    0    0  0.21565059940E+03 -0.83050002278E+02 -0.79022709561E+03  0.82671539886E+03  0.74813128416E+02 0.  0.
     200001    1    1    2    0    0 -0.19290405506E+03  0.19126718155E+03 -0.91278712460E+03  0.11325830848E+04  0.61300000000E+03 0. -1.
         13    1    4    4    0    0  0.14597947157E+03 -0.29178727953E+02 -0.52188483488E+03  0.54270175633E+03  0.10566000000E+00 0.  1.
    -200003    1    4    4    0    0  0.69671127833E+02 -0.53871274325E+02 -0.26834226073E+03  0.28401364253E+03  0.30000000000E+02 0.  1.
    -200000    1    3    3    0    0 -0.22746544337E+02 -0.10821717927E+03  0.63004321827E+02  0.16247740685E+03  0.10100000000E+03 0. -1.
<mgrwt>
<rscale>  0 0.13462171E+04</rscale>
<asrwt>0</asrwt>
<pdfrwt beam="1">  1        2 0.26869898E+00 0.13462171E+04</pdfrwt>
<pdfrwt beam="2">  1       -2 0.34411858E-01 0.13462171E+04</pdfrwt>
<totfact> 0.71495537E+01</totfact>
</mgrwt>
</event>
<event>
 8    2  0.4480234E-052  0.1613424E+04  0.7818608E-02  0.8812343E-01
         -2   -1    0    0    0  501 -0.00000000000E+00  0.00000000000E+00  0.14466825637E+03  0.14466825640E+03  0.25500000000E-02 0. -1.
          2   -1    0    0  501    0  0.00000000000E+00 -0.00000000000E+00 -0.44984591992E+04  0.44984591992E+04  0.25500000000E-02 0.  1.
    -200001    2    1    2    0    0 -0.89839271175E+02  0.37895876604E+03 -0.31867064558E+04  0.32685234978E+04  0.61356904993E+03 0.  0.
   -5000001    2    3    3    0    0 -0.29170602385E+03  0.39015137608E+03 -0.23935405697E+04  0.24437880352E+04  0.75848543576E+02 0.  0.
     200001    1    1    2    0    0  0.89839271175E+02 -0.37895876604E+03 -0.11670844870E+04  0.13746039578E+04  0.61300000000E+03 0. -1.
         13    1    4    4    0    0 -0.13241079242E+03  0.21178783320E+03 -0.11019755913E+04  0.11299278380E+04  0.10566000000E+00 0.  1.
    -200003    1    4    4    0    0 -0.15929523143E+03  0.17836354287E+03 -0.12915649785E+04  0.13138601972E+04  0.30000000000E+02 0.  1.
    -200000    1    3    3    0    0  0.20186675268E+03 -0.11192610034E+02 -0.79316588611E+03  0.82473546259E+03  0.10100000000E+03 0. -1.
<mgrwt>
<rscale>  0 0.16134240E+04</rscale>
<asrwt>0</asrwt>
<pdfrwt beam="1">  1        2 0.64263694E+00 0.16134240E+04</pdfrwt>
<pdfrwt beam="2">  1       -2 0.20666896E-01 0.16134240E+04</pdfrwt>
<totfact> 0.48216682E+00</totfact>
</mgrwt>
</event>
<event>
 8    2  0.4480234E-052  0.1940261E+04  0.7818608E-02  0.8635072E-01
          2   -1    0    0  501    0  0.00000000000E+00  0.00000000000E+00  0.93282159078E+03  0.93282159078E+03  0.25500000000E-02 0.  1.
         -2   -1    0    0    0  501 -0.00000000000E+00 -0.00000000000E+00 -0.10089312008E+04  0.10089312008E+04  0.25500000000E-02 0. -1.
    -200001    2    1    2    0    0 -0.20611708140E+03 -0.29160526053E+03  0.62537766059E+03  0.94406984092E+03  0.61045291952E+03 0.  0.
   -5000001    2    3    3    0    0 -0.50360814646E+02 -0.21287357524E+03 -0.47245195909E+02  0.24187243279E+03  0.91753989134E+02 0.  0.
     200001    1    1    2    0    0  0.20611708140E+03  0.29160526053E+03 -0.70148727059E+03  0.99768295065E+03  0.61300000000E+03 0. -1.
         13    1    4    4    0    0 -0.91475478476E+01 -0.13010309262E+03 -0.60484131096E+02  0.14376659424E+03  0.10566000000E+00 0.  1.
    -200003    1    4    4    0    0 -0.41213266799E+02 -0.82770482613E+02  0.13238935188E+02  0.98105838547E+02  0.30000000000E+02 0.  1.
    -200000    1    3    3    0    0 -0.15575626676E+03 -0.78731685297E+02  0.67262285650E+03  0.70219740813E+03  0.10100000000E+03 0.  1.
<mgrwt>
<rscale>  0 0.19402606E+04</rscale>
<asrwt>0</asrwt>
<pdfrwt beam="1">  1        2 0.13326023E+00 0.19402606E+04</pdfrwt>
<pdfrwt beam="2">  1       -2 0.14413303E+00 0.19402606E+04</pdfrwt>
<totfact> 0.96553561E+00</totfact>
</mgrwt>
</event>
<event>
 8    2  0.4480234E-052  0.1599576E+04  0.7818608E-02  0.8820809E-01
          2   -1    0    0  501    0  0.00000000000E+00  0.00000000000E+00  0.61067770876E+03  0.61067770876E+03  0.25500000000E-02 0.  1.
         -2   -1    0    0    0  501 -0.00000000000E+00 -0.00000000000E+00 -0.10474604879E+04  0.10474604879E+04  0.25500000000E-02 0. -1.
    -200001    2    1    2    0    0  0.17531356268E+02  0.44757300340E+03 -0.47896734273E+03  0.89775837105E+03  0.61313247799E+03 0.  0.
   -5000001    2    3    3    0    0 -0.13134503102E+02 -0.11730296597E+03 -0.23691333182E+03  0.27420692978E+03  0.71617124708E+02 0.  0.
     200001    1    1    2    0    0 -0.17531356268E+02 -0.44757300340E+03  0.42184563562E+02  0.76037982563E+03  0.61300000000E+03 0.  1.
         13    1    4    4    0    0  0.99782765629E+01 -0.69959521946E+02 -0.16894020403E+03  0.18312483287E+03  0.10566000000E+00 0.  1.
    -200003    1    4    4    0    0 -0.23112779664E+02 -0.47343444027E+02 -0.67973127788E+02  0.91082096909E+02  0.30000000000E+02 0. -1.
    -200000    1    3    3    0    0  0.30665859369E+02  0.56487596938E+03 -0.24205401091E+03  0.62355144127E+03  0.10100000000E+03 0.  1.
<mgrwt>
<rscale>  0 0.15995759E+04</rscale>
<asrwt>0</asrwt>
<pdfrwt beam="1">  1        2 0.87239673E-01 0.15995759E+04</pdfrwt>
<pdfrwt beam="2">  1       -2 0.14963721E+00 0.15995759E+04</pdfrwt>
<totfact> 0.15391134E+01</totfact>
</mgrwt>
</event>
<event>
 8    2  0.4480234E-052  0.1306252E+04  0.7818608E-02  0.9024622E-01
         -2   -1    0    0    0  501 -0.00000000000E+00  0.00000000000E+00  0.15318930717E+03  0.15318930719E+03  0.25500000000E-02 0. -1.
          2   -1    0    0  501    0  0.00000000000E+00 -0.00000000000E+00 -0.27846188032E+04  0.27846188032E+04  0.25500000000E-02 0.  1.
    -200001    2    1    2    0    0 -0.18611931863E+03 -0.11816316207E+03 -0.12009761782E+04  0.13660038516E+04  0.61238860879E+03 0.  0.
   -5000001    2    3    3    0    0  0.20266982499E+03  0.36694609948E+02 -0.46682809440E+03  0.51493843883E+03  0.69365508032E+02 0.  0.
     200001    1    1    2    0    0  0.18611931863E+03  0.11816316207E+03 -0.14304533178E+04  0.15718042588E+04  0.61300000000E+03 0.  1.
         13    1    4    4    0    0  0.16898988308E+03  0.26994274428E+02 -0.36248954414E+03  0.40085527589E+03  0.10566000000E+00 0.  1.
    -200003    1    4    4    0    0  0.33679941919E+02  0.97003355200E+01 -0.10433855026E+03  0.11408316294E+03  0.30000000000E+02 0. -1.
    -200000    1    3    3    0    0 -0.38878914363E+03 -0.15485777202E+03 -0.73414808381E+03  0.85106541272E+03  0.10100000000E+03 0. -1.
<mgrwt>
<rscale>  0 0.13062524E+04</rscale>
<asrwt>0</asrwt>
<pdfrwt beam="1">  1        2 0.39780266E+00 0.13062524E+04</pdfrwt>
<pdfrwt beam="2">  1       -2 0.21884188E-01 0.13062524E+04</pdfrwt>
<totfact> 0.55757794E+01</totfact>
</mgrwt>
</event>
<event>
 8    2  0.4480234E-052  0.2796626E+04  0.7818608E-02  0.8304317E-01
          2   -1    0    0  501    0  0.00000000000E+00  0.00000000000E+00  0.16106468059E+04  0.16106468059E+04  0.25500000000E-02 0.  1.
         -2   -1    0    0    0  501 -0.00000000000E+00 -0.00000000000E+00 -0.12139715268E+04  0.12139715268E+04  0.25500000000E-02 0. -1.
    -200001    2    1    2    0    0  0.11968620781E+04 -0.33387381769E+03  0.66290452764E+01  0.13852241461E+04  0.61225111710E+03 0.  0.
   -5000001    2    3    3    0    0  0.42673146047E+03 -0.41373256145E+03  0.21197405125E+02  0.60426843393E+03  0.10684867102E+03 0.  0.
     200001    1    1    2    0    0 -0.11968620781E+04  0.33387381769E+03  0.39004623384E+03  0.14393941867E+04  0.61300000000E+03 0.  1.
         13    1    4    4    0    0 -0.43156906391E+01  0.15498212135E+01  0.45196922069E+00  0.46089664457E+01  0.10566000000E+00 0.  1.
    -200003    1    4    4    0    0  0.43104715111E+03 -0.41528238266E+03  0.20745435904E+02  0.59965946748E+03  0.30000000000E+02 0.  1.
    -200000    1    3    3    0    0  0.77013061765E+03  0.79858743756E+02 -0.14568359849E+02  0.78095571213E+03  0.10100000000E+03 0. -1.
<mgrwt>
<rscale>  0 0.27966261E+04</rscale>
<asrwt>0</asrwt>
<pdfrwt beam="1">  1        2 0.23009240E+00 0.27966261E+04</pdfrwt>
<pdfrwt beam="2">  1       -2 0.17342450E+00 0.27966261E+04</pdfrwt>
<totfact> 0.22574935E+00</totfact>
</mgrwt>
</event>
<event>
 8    2  0.4480234E-052  0.2241146E+04  0.7818608E-02  0.8501495E-01
          2   -1    0    0  501    0  0.00000000000E+00  0.00000000000E+00  0.16380131448E+04  0.16380131448E+04  0.25500000000E-02 0.  1.
         -2   -1    0    0    0  501 -0.00000000000E+00 -0.00000000000E+00 -0.76658961443E+03  0.76658961444E+03  0.25500000000E-02 0. -1.
    -200001    2    1    2    0    0  0.67368125130E+03 -0.50273136718E+03  0.88196834606E+03  0.13641867611E+04  0.61363841135E+03 0.  0.
   -5000001    2    3    3    0    0 -0.23177003710E+01 -0.20187870220E+03  0.46117911946E+03  0.50701030210E+03  0.60107271404E+02 0.  0.
     200001    1    1    2    0    0 -0.67368125130E+03  0.50273136718E+03 -0.10544815736E+02  0.10404159981E+04  0.61300000000E+03 0.  1.
         13    1    4    4    0    0  0.81336021563E+01 -0.95762035593E+02  0.26247415872E+03  0.27951604266E+03  0.10566000000E+00 0.  1.
    -200003    1    4    4    0    0 -0.10451302527E+02 -0.10611666661E+03  0.19870496074E+03  0.22749425944E+03  0.30000000000E+02 0. -1.
    -200000    1    3    3    0    0  0.67599895167E+03 -0.30085266497E+03  0.42078922660E+03  0.85717645903E+03  0.10100000000E+03 0. -1.
<mgrwt>
<rscale>  0 0.22411460E+04</rscale>
<asrwt>0</asrwt>
<pdfrwt beam="1">  1        2 0.23400188E+00 0.22411460E+04</pdfrwt>
<pdfrwt beam="2">  1       -2 0.10951280E+00 0.22411460E+04</pdfrwt>
<totfact> 0.75158324E+00</totfact>
</mgrwt>
</event>
<event>
 8    2  0.4480234E-052  0.1941343E+04  0.7818608E-02  0.8634547E-01
          2   -1    0    0  501    0  0.00000000000E+00  0.00000000000E+00  0.92882949960E+03  0.92882949961E+03  0.25500000000E-02 0.  1.
         -2   -1    0    0    0  501 -0.00000000000E+00 -0.00000000000E+00 -0.10143984180E+04  0.10143984180E+04  0.25500000000E-02 0. -1.
    -200001    2    1    2    0    0 -0.49377119005E+03 -0.48313261087E+03  0.25641227916E+03  0.95836891890E+03  0.61277779006E+03 0.  0.
   -5000001    2    3    3    0    0 -0.37509680914E+03 -0.55417587772E+03  0.35388902739E+03  0.76130681982E+03  0.80883314225E+02 0.  0.
     200001    1    1    2    0    0  0.49377119005E+03  0.48313261087E+03 -0.34198119753E+03  0.98485899868E+03  0.61300000000E+03 0. -1.
         13    1    4    4    0    0 -0.22463981257E+03 -0.33587082014E+03  0.17674278998E+03  0.44103319398E+03  0.10566000000E+00 0.  1.
    -200003    1    4    4    0    0 -0.15045699657E+03 -0.21830505758E+03  0.17714623742E+03  0.32027362585E+03  0.30000000000E+02 0.  1.
    -200000    1    3    3    0    0 -0.11867438091E+03  0.71043266850E+02 -0.97476748227E+02  0.19706209908E+03  0.10100000000E+03 0.  1.
<mgrwt>
<rscale>  0 0.19413430E+04</rscale>
<asrwt>0</asrwt>
<pdfrwt beam="1">  1        2 0.13268993E+00 0.19413430E+04</pdfrwt>
<pdfrwt beam="2">  1       -2 0.14491406E+00 0.19413430E+04</pdfrwt>
<totfact> 0.95748730E+00</totfact>
</mgrwt>
</event>
<event>
 8    2  0.4480234E-052  0.1561765E+04  0.7818608E-02  0.8844388E-01
         -2   -1    0    0    0  501 -0.00000000000E+00  0.00000000000E+00  0.16277083494E+04  0.16277083494E+04  0.25500000000E-02 0. -1.
          2   -1    0    0  501    0  0.00000000000E+00 -0.00000000000E+00 -0.37462330550E+03  0.37462330551E+03  0.25500000000E-02 0.  1.
    -200001    2    1    2    0    0  0.27288115384E+02 -0.46869256216E+03  0.76010609921E+03  0.10862450875E+04  0.61785900416E+03 0.  0.
   -5000001    2    3    3    0    0 -0.13392223726E+03 -0.50623122823E+03  0.35225176462E+03  0.63464339631E+03  0.66975463710E+02 0.  0.
     200001    1    1    2    0    0 -0.27288115384E+02  0.46869256216E+03  0.49297894469E+03  0.91608656740E+03  0.61300000000E+03 0.  1.
         13    1    4    4    0    0 -0.24500441799E+02 -0.18691743608E+03  0.13955228855E+03  0.23454903957E+03  0.10566000000E+00 0.  1.
    -200003    1    4    4    0    0 -0.10942179546E+03 -0.31931379215E+03  0.21269947607E+03  0.40009435674E+03  0.30000000000E+02 0.  1.
    -200000    1    3    3    0    0  0.16121035264E+03  0.37538666066E+02  0.40785433460E+03  0.45160169120E+03  0.10100000000E+03 0.  1.
<mgrwt>
<rscale>  0 0.15617650E+04</rscale>
<asrwt>0</asrwt>
<pdfrwt beam="1">  1        2 0.53517615E-01 0.15617650E+04</pdfrwt>
<pdfrwt beam="2">  1       -2 0.23252977E+00 0.15617650E+04</pdfrwt>
<totfact> 0.73934593E+00</totfact>
</mgrwt>
</event>
<event>
 8    2  0.4480234E-052  0.2040343E+04  0.7818608E-02  0.8587988E-01
          2   -1    0    0  501    0  0.00000000000E+00  0.00000000000E+00  0.14218736308E+04  0.14218736308E+04  0.25500000000E-02 0.  1.
         -2   -1    0    0    0  501 -0.00000000000E+00 -0.00000000000E+00 -0.73195689849E+03  0.73195689850E+03  0.25500000000E-02 0. -1.
    -200001    2    1    2    0    0  0.77218307447E+03 -0.25865750100E+03  0.38959937527E+03  0.10912252788E+04  0.61303713802E+03 0.  0.
   -5000001    2    3    3    0    0  0.21120543998E+03 -0.20294673243E+03  0.41940545528E+03  0.51773683208E+03  0.79720620231E+02 0.  0.
     200001    1    1    2    0    0 -0.77218307447E+03  0.25865750100E+03  0.30031735699E+03  0.10626052504E+04  0.61300000000E+03 0. -1.
         13    1    4    4    0    0  0.70433696526E+02 -0.46733290440E+02  0.74514616848E+02  0.11268249789E+03  0.10566000000E+00 0.  1.
    -200003    1    4    4    0    0  0.14077174345E+03 -0.15621344199E+03  0.34489083843E+03  0.40505433419E+03  0.30000000000E+02 0.  1.
    -200000    1    3    3    0    0  0.56097763450E+03 -0.55710768569E+02 -0.29806080010E+02  0.57348844674E+03  0.10100000000E+03 0.  1.
<mgrwt>
<rscale>  0 0.20403433E+04</rscale>
<asrwt>0</asrwt>
<pdfrwt beam="1">  1        2 0.20312481E+00 0.20403433E+04</pdfrwt>
<pdfrwt beam="2">  1       -2 0.10456527E+00 0.20403433E+04</pdfrwt>
<totfact> 0.11117482E+01</totfact>
</mgrwt>
</event>
<event>
 8    2  0.4480234E-052  0.1520947E+04  0.7818608E-02  0.8870642E-01
          2   -1    0    0  501    0  0.00000000000E+00  0.00000000000E+00  0.28939843313E+04  0.28939843313E+04  0.25500000000E-02 0. -1.
         -2   -1    0    0    0  501 -0.00000000000E+00 -0.00000000000E+00 -0.19983524772E+03  0.19983524773E+03  0.25500000000E-02 0.  1.
    -200001    2    1    2    0    0 -0.67593519150E+02 -0.17542596287E+03  0.21775384642E+04  0.22704128239E+04  0.61461978148E+03 0.  0.
   -5000001    2    3    3    0    0  0.25995257969E+03 -0.98607773057E+02  0.93289499919E+03  0.97715111952E+03  0.85043484529E+02 0.  0.
     200001    1    1    2    0    0  0.67593519150E+02  0.17542596287E+03  0.51661061941E+03  0.82340675512E+03  0.61300000000E+03 0.  1.
         13    1    4    4    0    0 -0.15995075116E+01 -0.11373658106E+01  0.64015604422E+02  0.64045771124E+02  0.10566000000E+00 0.  1.
    -200003    1    4    4    0    0  0.26155208721E+03 -0.97470407246E+02  0.86887939477E+03  0.91310534840E+03  0.30000000000E+02 0.  1.
    -200000    1    3    3    0    0 -0.32754609884E+03 -0.76818189815E+02  0.12446434650E+04  0.12932617044E+04  0.10100000000E+03 0. -1.
<mgrwt>
<rscale>  0 0.15209472E+04</rscale>
<asrwt>0</asrwt>
<pdfrwt beam="1">  1        2 0.41342631E+00 0.15209472E+04</pdfrwt>
<pdfrwt beam="2">  1       -2 0.28547894E-01 0.15209472E+04</pdfrwt>
<totfact> 0.29472230E+01</totfact>
</mgrwt>
</event>
<event>
 8    2  0.4480234E-052  0.1625187E+04  0.7818608E-02  0.8805222E-01
          2   -1    0    0  501    0  0.00000000000E+00  0.00000000000E+00  0.80971840772E+03  0.80971840772E+03  0.25500000000E-02 0.  1.
         -2   -1    0    0    0  501 -0.00000000000E+00 -0.00000000000E+00 -0.81547887846E+03  0.81547887847E+03  0.25500000000E-02 0. -1.
    -200001    2    1    2    0    0 -0.20349800828E+03  0.40023062301E+03  0.28522792396E+03  0.81153935018E+03  0.61289897806E+03 0.  0.
   -5000001    2    3    3    0    0 -0.21468186335E+03  0.43717360575E+03 -0.13431634111E+02  0.49391001555E+03  0.80979198861E+02 0.  0.
     200001    1    1    2    0    0  0.20349800828E+03 -0.40023062301E+03 -0.29098839471E+03  0.81365793601E+03  0.61300000000E+03 0. -1.
         13    1    4    4    0    0 -0.83242979420E+00 -0.11654889236E+01 -0.49908223020E+01  0.51933394920E+01  0.10566000000E+00 0.  1.
    -200003    1    4    4    0    0 -0.21384943355E+03  0.43833909468E+03 -0.84408118089E+01  0.48871667606E+03  0.30000000000E+02 0.  1.
    -200000    1    3    3    0    0  0.11183855064E+02 -0.36942982742E+02  0.29865955807E+03  0.31762933463E+03  0.10100000000E+03 0.  1.
<mgrwt>
<rscale>  0 0.16251871E+04</rscale>
<asrwt>0</asrwt>
<pdfrwt beam="1">  1        2 0.11567406E+00 0.16251871E+04</pdfrwt>
<pdfrwt beam="2">  1       -2 0.11649698E+00 0.16251871E+04</pdfrwt>
<totfact> 0.20510326E+01</totfact>
</mgrwt>
</event>
<event>
 8    2  0.4480234E-052  0.1614544E+04  0.7818608E-02  0.8811662E-01
         -2   -1    0    0    0  501 -0.00000000000E+00  0.00000000000E+00  0.29154766758E+03  0.29154766760E+03  0.25500000000E-02 0. -1.
          2   -1    0    0  501    0  0.00000000000E+00 -0.00000000000E+00 -0.22352721446E+04  0.22352721447E+04  0.25500000000E-02 0.  1.
    -200001    2    1    2    0    0 -0.42565261958E+03 -0.30770476204E+03 -0.10088010698E+04  0.12916221962E+04  0.61216495020E+03 0.  0.
   -5000001    2    3    3    0    0 -0.38150641524E+03  0.62959930746E+01 -0.81489751341E+03  0.90646644754E+03  0.10971179867E+03 0.  0.
     200001    1    1    2    0    0  0.42565261958E+03  0.30770476204E+03 -0.93492340726E+03  0.12351976160E+04  0.61300000000E+03 0.  1.
         13    1    4    4    0    0 -0.31233126048E+02 -0.30220443944E+02 -0.82714408741E+02  0.93436973262E+02  0.10566000000E+00 0.  1.
    -200003    1    4    4    0    0 -0.35027328920E+03  0.36516437018E+02 -0.73218310466E+03  0.81302947428E+03  0.30000000000E+02 0.  1.
    -200000    1    3    3    0    0 -0.44146204332E+02 -0.31400075512E+03 -0.19390355640E+03  0.38515574870E+03  0.10100000000E+03 0. -1.
<mgrwt>
<rscale>  0 0.16145444E+04</rscale>
<asrwt>0</asrwt>
<pdfrwt beam="1">  1        2 0.31932458E+00 0.16145444E+04</pdfrwt>
<pdfrwt beam="2">  1       -2 0.41649668E-01 0.16145444E+04</pdfrwt>
<totfact> 0.31796826E+01</totfact>
</mgrwt>
</event>
<event>
 8    2  0.4480234E-052  0.1582873E+04  0.7818608E-02  0.8831139E-01
         -2   -1    0    0    0  501 -0.00000000000E+00  0.00000000000E+00  0.84580838955E+03  0.84580838956E+03  0.25500000000E-02 0. -1.
          2   -1    0    0  501    0  0.00000000000E+00 -0.00000000000E+00 -0.74055976775E+03  0.74055976775E+03  0.25500000000E-02 0.  1.
    -200001    2    1    2    0    0  0.32344689127E+03  0.34068578351E+03 -0.11890590715E+03  0.78219221424E+03  0.61400435724E+03 0.  0.
   -5000001    2    3    3    0    0  0.19349161028E+03  0.31880381663E+03  0.19072445557E+03  0.43085312299E+03  0.10091441370E+03 0.  0.
     200001    1    1    2    0    0 -0.32344689127E+03 -0.34068578351E+03  0.22415452895E+03  0.80417594307E+03  0.61300000000E+03 0.  1.
         13    1    4    4    0    0  0.34171367492E+02  0.58251724510E+02 -0.35957250355E+01  0.67630512102E+02  0.10566000000E+00 0.  1.
    -200003    1    4    4    0    0  0.15932024279E+03  0.26055209212E+03  0.19432018060E+03  0.36322261088E+03  0.30000000000E+02 0.  1.
    -200000    1    3    3    0    0  0.12995528099E+03  0.21881966879E+02 -0.30963036271E+03  0.35133909126E+03  0.10100000000E+03 0.  1.
<mgrwt>
<rscale>  0 0.15828729E+04</rscale>
<asrwt>0</asrwt>
<pdfrwt beam="1">  1        2 0.10579425E+00 0.15828729E+04</pdfrwt>
<pdfrwt beam="2">  1       -2 0.12082977E+00 0.15828729E+04</pdfrwt>
<totfact> 0.21071434E+01</totfact>
</mgrwt>
</event>
<event>
 8    2  0.4480234E-052  0.1284159E+04  0.7818608E-02  0.9042222E-01
          2   -1    0    0  501    0  0.00000000000E+00  0.00000000000E+00  0.42239477377E+03  0.42239477378E+03  0.25500000000E-02 0. -1.
         -2   -1    0    0    0  501 -0.00000000000E+00 -0.00000000000E+00 -0.97602098608E+03  0.97602098609E+03  0.25500000000E-02 0.  1.
    -200001    2    1    2    0    0 -0.27406008431E+02  0.17283081654E+03 -0.19661801127E+03  0.66776848788E+03  0.61370557323E+03 0.  0.
   -5000001    2    3    3    0    0 -0.21459768200E+02 -0.12294135659E+03 -0.30437024284E+03  0.33712051861E+03  0.73714995301E+02 0.  0.
     200001    1    1    2    0    0  0.27406008431E+02 -0.17283081654E+03 -0.35700820104E+03  0.73064727198E+03  0.61300000000E+03 0. -1.
         13    1    4    4    0    0  0.19074631174E+02 -0.32091490273E+02 -0.50434643335E+02  0.62748463843E+02  0.10566000000E+00 0.  1.
    -200003    1    4    4    0    0 -0.40534399374E+02 -0.90849866314E+02 -0.25393559951E+03  0.27437205477E+03  0.30000000000E+02 0.  1.
    -200000    1    3    3    0    0 -0.59462402305E+01  0.29577217313E+03  0.10775223158E+03  0.33064796927E+03  0.10100000000E+03 0. -1.
<mgrwt>
<rscale>  0 0.12841591E+04</rscale>
<asrwt>0</asrwt>
<pdfrwt beam="1">  1        2 0.60342111E-01 0.12841591E+04</pdfrwt>
<pdfrwt beam="2">  1       -2 0.13943157E+00 0.12841591E+04</pdfrwt>
<totfact> 0.28987713E+01</totfact>
</mgrwt>
</event>
<event>
 8    2  0.4480234E-052  0.1258650E+04  0.7818608E-02  0.9063014E-01
          2   -1    0    0  501    0  0.00000000000E+00  0.00000000000E+00  0.35251267975E+04  0.35251267975E+04  0.25500000000E-02 0.  1.
         -2   -1    0    0    0  501 -0.00000000000E+00 -0.00000000000E+00 -0.11235057842E+03  0.11235057845E+03  0.25500000000E-02 0. -1.
    -200001    2    1    2    0    0  0.47973116467E+02 -0.68871026025E+02  0.20352742517E+04  0.21274027724E+04  0.61356062313E+03 0.  0.
   -5000001    2    3    3    0    0  0.26340306823E+03  0.63028808655E+02  0.15099115494E+04  0.15357824554E+04  0.73763515800E+02 0.  0.
     200001    1    1    2    0    0 -0.47973116467E+02  0.68871026025E+02  0.13775019674E+04  0.15100746035E+04  0.61300000000E+03 0.  1.
         13    1    4    4    0    0  0.37016277600E+02 -0.48486248133E+01  0.32656532983E+03  0.32869231780E+03  0.10566000000E+00 0.  1.
    -200003    1    4    4    0    0  0.22638679063E+03  0.67877433469E+02  0.11833462195E+04  0.12070901376E+04  0.30000000000E+02 0.  1.
    -200000    1    3    3    0    0 -0.21542995177E+03 -0.13189983468E+03  0.52536270229E+03  0.59162031698E+03  0.10100000000E+03 0. -1.
<mgrwt>
<rscale>  0 0.12586501E+04</rscale>
<asrwt>0</asrwt>
<pdfrwt beam="1">  1        2 0.50358945E+00 0.12586501E+04</pdfrwt>
<pdfrwt beam="2">  1       -2 0.16050086E-01 0.12586501E+04</pdfrwt>
<totfact> 0.36381530E+01</totfact>
</mgrwt>
</event>
<event>
 8    2  0.4480234E-052  0.2045344E+04  0.7818608E-02  0.8585709E-01
          2   -1    0    0  501    0  0.00000000000E+00  0.00000000000E+00  0.10203194767E+04  0.10203194767E+04  0.25500000000E-02 0.  1.
         -2   -1    0    0    0  501 -0.00000000000E+00 -0.00000000000E+00 -0.10250304108E+04  0.10250304108E+04  0.25500000000E-02 0. -1.
    -200001    2    1    2    0    0 -0.63167279860E+03 -0.46926817146E+03 -0.22814657196E+03  0.10231387422E+04  0.61281227647E+03 0.  0.
   -5000001    2    3    3    0    0 -0.14629066984E+03  0.41638561194E+02 -0.86274873388E+02  0.29722546963E+03  0.24034328815E+03 0.  0.
     200001    1    1    2    0    0  0.63167279860E+03  0.46926817146E+03  0.22343563790E+03  0.10222111453E+04  0.61300000000E+03 0. -1.
         13    1    4    4    0    0 -0.27110224138E+02 -0.84515406694E+02 -0.82326246833E+02  0.12105965597E+03  0.10566000000E+00 0.  1.
    -200003    1    4    4    0    0 -0.11918044570E+03  0.12615396789E+03 -0.39486265543E+01  0.17616581366E+03  0.30000000000E+02 0.  1.
    -200000    1    3    3    0    0 -0.48538212876E+03 -0.51090673265E+03 -0.14187169858E+03  0.72591327254E+03  0.10100000000E+03 0.  1.
<mgrwt>
<rscale>  0 0.20453445E+04</rscale>
<asrwt>0</asrwt>
<pdfrwt beam="1">  1        2 0.14575993E+00 0.20453445E+04</pdfrwt>
<pdfrwt beam="2">  1       -2 0.14643292E+00 0.20453445E+04</pdfrwt>
<totfact> 0.80972932E+00</totfact>
</mgrwt>
</event>
<event>
 8    2  0.4480234E-052  0.1396003E+04  0.7818608E-02  0.8956717E-01
          2   -1    0    0  501    0  0.00000000000E+00  0.00000000000E+00  0.46071559497E+03  0.46071559498E+03  0.25500000000E-02 0.  1.
         -2   -1    0    0    0  501 -0.00000000000E+00 -0.00000000000E+00 -0.10574984287E+04  0.10574984287E+04  0.25500000000E-02 0. -1.
    -200001    2    1    2    0    0  0.30281274533E+03 -0.88778708824E+02 -0.41831594989E+03  0.80603662550E+03  0.61247823621E+03 0.  0.
   -5000001    2    3    3    0    0  0.26612268447E+03  0.21549383136E+03 -0.30525357916E+03  0.46411260038E+03  0.70440639490E+02 0.  0.
     200001    1    1    2    0    0 -0.30281274533E+03  0.88778708824E+02 -0.17846688385E+03  0.71217739820E+03  0.61300000000E+03 0.  1.
         13    1    4    4    0    0  0.14433438994E+03  0.90457102344E+02 -0.17542395738E+03  0.24451682860E+03  0.10566000000E+00 0.  1.
    -200003    1    4    4    0    0  0.12178829454E+03  0.12503672902E+03 -0.12982962178E+03  0.21959577178E+03  0.30000000000E+02 0.  1.
    -200000    1    3    3    0    0  0.36690060859E+02 -0.30427254019E+03 -0.11306237073E+03  0.34192402512E+03  0.10100000000E+03 0.  1.
<mgrwt>
<rscale>  0 0.13960029E+04</rscale>
<asrwt>0</asrwt>
<pdfrwt beam="1">  1        2 0.65816514E-01 0.13960029E+04</pdfrwt>
<pdfrwt beam="2">  1       -2 0.15107120E+00 0.13960029E+04</pdfrwt>
<totfact> 0.21120451E+01</totfact>
</mgrwt>
</event>
<event>
 8    2  0.4480234E-052  0.1377680E+04  0.7818608E-02  0.8970135E-01
          2   -1    0    0  501    0  0.00000000000E+00  0.00000000000E+00  0.71132673746E+03  0.71132673746E+03  0.25500000000E-02 0.  1.
         -2   -1    0    0    0  501 -0.00000000000E+00 -0.00000000000E+00 -0.66706409658E+03  0.66706409658E+03  0.25500000000E-02 0. -1.
    -200001    2    1    2    0    0 -0.24367884987E+02 -0.29623232694E+03 -0.79101128814E+02  0.68605059614E+03  0.61323816462E+03 0.  0.
   -5000001    2    3    3    0    0  0.36309024768E+02  0.54698946058E+02 -0.25472823272E+03  0.27631857960E+03  0.84588207853E+02 0.  0.
     200001    1    1    2    0    0  0.24367884987E+02  0.29623232694E+03  0.12336376969E+03  0.69234023790E+03  0.61300000000E+03 0. -1.
         13    1    4    4    0    0 -0.15023612170E+02 -0.70323201623E+01 -0.79999109018E+02  0.81700863259E+02  0.10566000000E+00 0.  1.
    -200003    1    4    4    0    0  0.51332636937E+02  0.61731266221E+02 -0.17472912371E+03  0.19461771634E+03  0.30000000000E+02 0.  1.
    -200000    1    3    3    0    0 -0.60676909754E+02 -0.35093127300E+03  0.17562710391E+03  0.40973201654E+03  0.10100000000E+03 0.  1.
<mgrwt>
<rscale>  0 0.13776800E+04</rscale>
<asrwt>0</asrwt>
<pdfrwt beam="1">  1        2 0.10161811E+00 0.13776800E+04</pdfrwt>
<pdfrwt beam="2">  1       -2 0.95294871E-01 0.13776800E+04</pdfrwt>
<totfact> 0.39869884E+01</totfact>
</mgrwt>
</event>
<event>
 8    2  0.4480234E-052  0.2236546E+04  0.7818608E-02  0.8503369E-01
         -2   -1    0    0    0  501 -0.00000000000E+00  0.00000000000E+00  0.71726847994E+03  0.71726847995E+03  0.25500000000E-02 0. -1.
          2   -1    0    0  501    0  0.00000000000E+00 -0.00000000000E+00 -0.17434679631E+04  0.17434679631E+04  0.25500000000E-02 0.  1.
    -200001    2    1    2    0    0 -0.57465234157E+03 -0.39880981800E+03 -0.11959132859E+04  0.15153019612E+04  0.61372376661E+03 0.  0.
   -5000001    2    3    3    0    0 -0.50151240022E+03 -0.22983358992E+03 -0.38755929265E+03  0.68011360218E+03  0.89521728777E+02 0.  0.
     200001    1    1    2    0    0  0.57465234157E+03  0.39880981800E+03  0.16971380274E+03  0.94543448183E+03  0.61300000000E+03 0. -1.
         13    1    4    4    0    0 -0.30343956673E+03 -0.10502331695E+03 -0.19657757980E+03  0.37649465309E+03  0.10566000000E+00 0.  1.
    -200003    1    4    4    0    0 -0.19807283349E+03 -0.12481027297E+03 -0.19098171285E+03  0.30361894909E+03  0.30000000000E+02 0.  1.
    -200000    1    3    3    0    0 -0.73139941351E+02 -0.16897622808E+03 -0.80835399327E+03  0.83518835907E+03  0.10100000000E+03 0.  1.
<mgrwt>
<rscale>  0 0.22365461E+04</rscale>
<asrwt>0</asrwt>
<pdfrwt beam="1">  1        2 0.24906685E+00 0.22365461E+04</pdfrwt>
<pdfrwt beam="2">  1       -2 0.10246693E+00 0.22365461E+04</pdfrwt>
<totfact> 0.77729177E+00</totfact>
</mgrwt>
</event>
<event>
 8    2  0.4480234E-052  0.1480414E+04  0.7818608E-02  0.8897583E-01
          2   -1    0    0  501    0  0.00000000000E+00  0.00000000000E+00  0.11690332762E+04  0.11690332762E+04  0.25500000000E-02 0.  1.
         -2   -1    0    0    0  501 -0.00000000000E+00 -0.00000000000E+00 -0.46868304337E+03  0.46868304337E+03  0.25500000000E-02 0. -1.
    -200001    2    1    2    0    0 -0.31882785983E+03  0.21974252039E+03  0.18484729587E+03  0.74808141834E+03  0.61279630074E+03 0.  0.
   -5000001    2    3    3    0    0 -0.45773324238E+03  0.22152149180E+03  0.73108751859E+02  0.54318053436E+03  0.17637661637E+03 0.  0.
     200001    1    1    2    0    0  0.31882785983E+03 -0.21974252039E+03  0.51550293695E+03  0.88963490123E+03  0.61300000000E+03 0. -1.
         13    1    4    4    0    0 -0.24038058054E+03  0.10676625964E+03 -0.48275177549E+02  0.26741795308E+03  0.10566000000E+00 0.  1.
    -200003    1    4    4    0    0 -0.21735266183E+03  0.11475523216E+03  0.12138392941E+03  0.27576258128E+03  0.30000000000E+02 0.  1.
    -200000    1    3    3    0    0  0.13890538254E+03 -0.17789714093E+01  0.11173854401E+03  0.20490088398E+03  0.10100000000E+03 0.  1.
<mgrwt>
<rscale>  0 0.14804136E+04</rscale>
<asrwt>0</asrwt>
<pdfrwt beam="1">  1        2 0.16700475E+00 0.14804136E+04</pdfrwt>
<pdfrwt beam="2">  1       -2 0.66954721E-01 0.14804136E+04</pdfrwt>
<totfact> 0.44192273E+01</totfact>
</mgrwt>
</event>
<event>
 8    2  0.4480234E-052  0.1499307E+04  0.7818608E-02  0.8884914E-01
          2   -1    0    0  501    0  0.00000000000E+00  0.00000000000E+00  0.66366796587E+03  0.66366796588E+03  0.25500000000E-02 0.  1.
         -2   -1    0    0    0  501 -0.00000000000E+00 -0.00000000000E+00 -0.84677991392E+03  0.84677991392E+03  0.25500000000E-02 0. -1.
    -200001    2    1    2    0    0 -0.86898358171E+02  0.21327322882E+03 -0.45844623242E+03  0.80008546318E+03  0.61394381306E+03 0.  0.
   -5000001    2    3    3    0    0 -0.19726924723E+03 -0.12351137988E+03 -0.14316704805E+03  0.31510343268E+03  0.15691766242E+03 0.  0.
     200001    1    1    2    0    0  0.86898358171E+02 -0.21327322882E+03  0.27533428438E+03  0.71036241661E+03  0.61300000000E+03 0.  1.
         13    1    4    4    0    0 -0.15988952353E+03 -0.61934758425E+02 -0.24684566338E+02  0.17323369480E+03  0.10566000000E+00 0.  1.
    -200003    1    4    4    0    0 -0.37379723704E+02 -0.61576621458E+02 -0.11848248171E+03  0.14186973788E+03  0.30000000000E+02 0.  1.
    -200000    1    3    3    0    0  0.11037088906E+03  0.33678460870E+03 -0.31527918437E+03  0.48498203050E+03  0.10100000000E+03 0. -1.
<mgrwt>
<rscale>  0 0.14993074E+04</rscale>
<asrwt>0</asrwt>
<pdfrwt beam="1">  1        2 0.94809709E-01 0.14993074E+04</pdfrwt>
<pdfrwt beam="2">  1       -2 0.12096856E+00 0.14993074E+04</pdfrwt>
<totfact> 0.24213165E+01</totfact>
</mgrwt>
</event>
<event>
 8    2  0.4480234E-052  0.1308425E+04  0.7818608E-02  0.9022910E-01
         -2   -1    0    0    0  501 -0.00000000000E+00  0.00000000000E+00  0.11082260559E+04  0.11082260559E+04  0.25500000000E-02 0. -1.
          2   -1    0    0  501    0  0.00000000000E+00 -0.00000000000E+00 -0.38619756318E+03  0.38619756319E+03  0.25500000000E-02 0.  1.
    -200001    2    1    2    0    0 -0.13188980049E+03  0.57832751860E+02  0.56312412532E+03  0.84499375784E+03  0.61332383258E+03 0.  0.
   -5000001    2    3    3    0    0 -0.26885115099E+03  0.13173880878E+03  0.69368278655E+02  0.31753157635E+03  0.79864189555E+02 0.  0.
     200001    1    1    2    0    0  0.13188980049E+03 -0.57832751860E+02  0.15890436736E+03  0.64942986121E+03  0.61300000000E+03 0.  1.
         13    1    4    4    0    0 -0.11697761169E+03  0.20004288824E+02  0.20199954812E+02  0.12038265052E+03  0.10566000000E+00 0.  1.
    -200003    1    4    4    0    0 -0.15187353930E+03  0.11173451995E+03  0.49168323842E+02  0.19714892584E+03  0.30000000000E+02 0.  1.
    -200000    1    3    3    0    0  0.13696135050E+03 -0.73906056918E+02  0.49375584667E+03  0.52746218149E+03  0.10100000000E+03 0. -1.
<mgrwt>
<rscale>  0 0.13084253E+04</rscale>
<asrwt>0</asrwt>
<pdfrwt beam="1">  1        2 0.55171079E-01 0.13084253E+04</pdfrwt>
<pdfrwt beam="2">  1       -2 0.15831801E+00 0.13084253E+04</pdfrwt>
<totfact> 0.22852741E+01</totfact>
</mgrwt>
</event>
<event>
 8    2  0.4480234E-052  0.1721368E+04  0.7818608E-02  0.8749270E-01
          2   -1    0    0  501    0  0.00000000000E+00  0.00000000000E+00  0.17134345740E+04  0.17134345740E+04  0.25500000000E-02 0.  1.
         -2   -1    0    0    0  501 -0.00000000000E+00 -0.00000000000E+00 -0.43233445385E+03  0.43233445386E+03  0.25500000000E-02 0. -1.
    -200001    2    1    2    0    0  0.40405566762E+03  0.43593012877E+03  0.77583577087E+03  0.11536212957E+04  0.61288244459E+03 0.  0.
   -5000001    2    3    3    0    0  0.23133921509E+03 -0.71856817296E+02  0.72417369754E+02  0.26329719598E+03  0.73484034578E+02 0.  0.
     200001    1    1    2    0    0 -0.40405566762E+03 -0.43593012877E+03  0.50526434925E+03  0.99214773211E+03  0.61300000000E+03 0. -1.
         13    1    4    4    0    0  0.83797105635E+01  0.91238978007E+01  0.10676654346E+02  0.16354423630E+02  0.10566000000E+00 0.  1.
    -200003    1    4    4    0    0  0.22295950452E+03 -0.80980715097E+02  0.61740715407E+02  0.24694277235E+03  0.30000000000E+02 0.  1.
    -200000    1    3    3    0    0  0.17271645254E+03  0.50778694606E+03  0.70341840112E+03  0.89032409975E+03  0.10100000000E+03 0.  1.
<mgrwt>
<rscale>  0 0.17213678E+04</rscale>
<asrwt>0</asrwt>
<pdfrwt beam="1">  1        2 0.24477637E+00 0.17213678E+04</pdfrwt>
<pdfrwt beam="2">  1       -2 0.61762064E-01 0.17213678E+04</pdfrwt>
<totfact> 0.26179206E+01</totfact>
</mgrwt>
</event>
<event>
 8    2  0.4480234E-052  0.1500016E+04  0.7818608E-02  0.8884442E-01
         -2   -1    0    0    0  501 -0.00000000000E+00  0.00000000000E+00  0.91150522227E+03  0.91150522227E+03  0.25500000000E-02 0. -1.
          2   -1    0    0  501    0  0.00000000000E+00 -0.00000000000E+00 -0.61712436295E+03  0.61712436295E+03  0.25500000000E-02 0.  1.
    -200001    2    1    2    0    0 -0.41607069731E+03  0.21034855076E+02  0.26959963395E+03  0.78704992030E+03  0.61090615002E+03 0.  0.
   -5000001    2    3    3    0    0  0.14579017676E+03  0.21202292838E+02  0.62490604326E+02  0.17977500727E+03  0.81912543295E+02 0.  0.
     200001    1    1    2    0    0  0.41607069731E+03 -0.21034855076E+02  0.24781225367E+02  0.74157966492E+03  0.61300000000E+03 0. -1.
         13    1    4    4    0    0  0.11575293038E+03 -0.84517689783E+01  0.50776617448E+02  0.12668247445E+03  0.10566000000E+00 0.  1.
    -200003    1    4    4    0    0  0.30037246379E+02  0.29654061816E+02  0.11713986878E+02  0.53092532816E+02  0.30000000000E+02 0. -1.
    -200000    1    3    3    0    0 -0.56186087407E+03 -0.16743776256E+00  0.20710902963E+03  0.60727491304E+03  0.10100000000E+03 0. -1.
<mgrwt>
<rscale>  0 0.15000161E+04</rscale>
<asrwt>0</asrwt>
<pdfrwt beam="1">  1        2 0.88160623E-01 0.15000161E+04</pdfrwt>
<pdfrwt beam="2">  1       -2 0.13021503E+00 0.15000161E+04</pdfrwt>
<totfact> 0.21962251E+01</totfact>
</mgrwt>
</event>
<event>
 8    2  0.4480234E-052  0.1489919E+04  0.7818608E-02  0.8891184E-01
          2   -1    0    0  501    0  0.00000000000E+00  0.00000000000E+00  0.35209088299E+03  0.35209088300E+03  0.25500000000E-02 0.  1.
         -2   -1    0    0    0  501 -0.00000000000E+00 -0.00000000000E+00 -0.15761976236E+04  0.15761976236E+04  0.25500000000E-02 0. -1.
    -200001    2    1    2    0    0 -0.28211201868E+03 -0.30794074287E+03 -0.52004922193E+03  0.90560542674E+03  0.61258085467E+03 0.  0.
   -5000001    2    3    3    0    0  0.94669324511E+02  0.44124640650E+02 -0.31776314198E+03  0.34254692801E+03  0.73862836210E+02 0.  0.
     200001    1    1    2    0    0  0.28211201868E+03  0.30794074287E+03 -0.70405751869E+03  0.10226830799E+04  0.61300000000E+03 0.  1.
         13    1    4    4    0    0  0.39022211566E+02  0.40627435323E+02 -0.21129009920E+03  0.21867061686E+03  0.10566000000E+00 0.  1.
    -200003    1    4    4    0    0  0.55647112946E+02  0.34972053276E+01 -0.10647304278E+03  0.12387631115E+03  0.30000000000E+02 0.  1.
    -200000    1    3    3    0    0 -0.37678134320E+03 -0.35206538352E+03 -0.20228607995E+03  0.56305849873E+03  0.10100000000E+03 0. -1.
<mgrwt>
<rscale>  0 0.14899192E+04</rscale>
<asrwt>0</asrwt>
<pdfrwt beam="1">  1        2 0.50298698E-01 0.14899192E+04</pdfrwt>
<pdfrwt beam="2">  1       -2 0.22517109E+00 0.14899192E+04</pdfrwt>
<totfact> 0.88571758E+00</totfact>
</mgrwt>
</event>
<event>
 8    2  0.4480234E-052  0.1285607E+04  0.7818608E-02  0.9041058E-01
         -2   -1    0    0    0  501 -0.00000000000E+00  0.00000000000E+00  0.27318840339E+03  0.27318840340E+03  0.25500000000E-02 0. -1.
          2   -1    0    0  501    0  0.00000000000E+00 -0.00000000000E+00 -0.15124947237E+04  0.15124947237E+04  0.25500000000E-02 0.  1.
    -200001    2    1    2    0    0  0.55725496670E+02  0.13442677098E+03 -0.44760389058E+03  0.77388392521E+03  0.61430546074E+03 0.  0.
   -5000001    2    3    3    0    0  0.78349191889E+02  0.28877109442E+03 -0.22534702810E+03  0.48417180140E+03  0.30677957781E+03 0.  0.
     200001    1    1    2    0    0 -0.55725496670E+02 -0.13442677098E+03 -0.79170242976E+03  0.10117992019E+04  0.61300000000E+03 0.  1.
         13    1    4    4    0    0  0.16036329337E+03  0.11536127499E+03 -0.15304681823E+02  0.19813847197E+03  0.10566000000E+00 0.  1.
    -200003    1    4    4    0    0 -0.82014101476E+02  0.17340981943E+03 -0.21004234627E+03  0.28603332943E+03  0.30000000000E+02 0.  1.
    -200000    1    3    3    0    0 -0.22623695219E+02 -0.15434432343E+03 -0.22225686248E+03  0.28971212381E+03  0.10100000000E+03 0.  1.
<mgrwt>
<rscale>  0 0.12856065E+04</rscale>
<asrwt>0</asrwt>
<pdfrwt beam="1">  1        2 0.21607067E+00 0.12856065E+04</pdfrwt>
<pdfrwt beam="2">  1       -2 0.39026916E-01 0.12856065E+04</pdfrwt>
<totfact> 0.87641182E+01</totfact>
</mgrwt>
</event>
<event>
 8    2  0.4480234E-052  0.1422588E+04  0.7818608E-02  0.8937629E-01
          2   -1    0    0  501    0  0.00000000000E+00  0.00000000000E+00  0.11047937664E+04  0.11047937664E+04  0.25500000000E-02 0.  1.
         -2   -1    0    0    0  501 -0.00000000000E+00 -0.00000000000E+00 -0.45794876429E+03  0.45794876430E+03  0.25500000000E-02 0. -1.
    -200001    2    1    2    0    0  0.25387134943E+03 -0.82921222876E+02  0.57237172169E+02  0.67126455320E+03  0.61318301936E+03 0.  0.
   -5000001    2    3    3    0    0  0.34644074226E+03  0.14312156987E+03 -0.22740970843E+02  0.39510890868E+03  0.12283699078E+03 0.  0.
     200001    1    1    2    0    0 -0.25387134943E+03  0.82921222876E+02  0.58960782996E+03  0.89147797753E+03  0.61300000000E+03 0. -1.
         13    1    4    4    0    0  0.19303210214E+03  0.12746322272E+03  0.20342904405E+02  0.23221134883E+03  0.10566000000E+00 0.  1.
    -200003    1    4    4    0    0  0.15340864011E+03  0.15658347151E+02 -0.43083875248E+02  0.16289755985E+03  0.30000000000E+02 0.  1.
    -200000    1    3    3    0    0 -0.92569392828E+02 -0.22604279275E+03  0.79978143012E+02  0.27615564452E+03  0.10100000000E+03 0. -1.
<mgrwt>
<rscale>  0 0.14225877E+04</rscale>
<asrwt>0</asrwt>
<pdfrwt beam="1">  1        2 0.15782768E+00 0.14225877E+04</pdfrwt>
<pdfrwt beam="2">  1       -2 0.65421251E-01 0.14225877E+04</pdfrwt>
<totfact> 0.50856616E+01</totfact>
</mgrwt>
</event>
<event>
 8    2  0.4480234E-052  0.1407516E+04  0.7818608E-02  0.8948396E-01
         -2   -1    0    0    0  501 -0.00000000000E+00  0.00000000000E+00  0.26901888237E+03  0.26901888238E+03  0.25500000000E-02 0. -1.
          2   -1    0    0  501    0  0.00000000000E+00 -0.00000000000E+00 -0.18410433767E+04  0.18410433767E+04  0.25500000000E-02 0.  1.
    -200001    2    1    2    0    0 -0.11946396231E+03  0.16925321208E+03 -0.37024078886E+03  0.74515516964E+03  0.61258444072E+03 0.  0.
   -5000001    2    3    3    0    0 -0.26269908962E+02  0.34575485971E+03 -0.57173872446E+02  0.36038269486E+03  0.79814183772E+02 0.  0.
     200001    1    1    2    0    0  0.11946396231E+03 -0.16925321208E+03 -0.12017837055E+04  0.13649070894E+04  0.61300000000E+03 0.  1.
         13    1    4    4    0    0  0.20428478339E+02  0.16223873744E+03 -0.36510466362E+02  0.16754628008E+03  0.10566000000E+00 0.  1.
    -200003    1    4    4    0    0 -0.46698387301E+02  0.18351612227E+03 -0.20663406084E+02  0.19283641477E+03  0.30000000000E+02 0.  1.
    -200000    1    3    3    0    0 -0.93194053346E+02 -0.17650164763E+03 -0.31306691641E+03  0.38477247478E+03  0.10100000000E+03 0. -1.
<mgrwt>
<rscale>  0 0.14075162E+04</rscale>
<asrwt>0</asrwt>
<pdfrwt beam="1">  1        2 0.26300619E+00 0.14075162E+04</pdfrwt>
<pdfrwt beam="2">  1       -2 0.38431270E-01 0.14075162E+04</pdfrwt>
<totfact> 0.60335699E+01</totfact>
</mgrwt>
</event>
<event>
 8    2  0.4480234E-052  0.1286889E+04  0.7818608E-02  0.9040028E-01
         -2   -1    0    0    0  501 -0.00000000000E+00  0.00000000000E+00  0.51437334977E+03  0.51437334978E+03  0.25500000000E-02 0. -1.
          2   -1    0    0  501    0  0.00000000000E+00 -0.00000000000E+00 -0.80490292498E+03  0.80490292499E+03  0.25500000000E-02 0.  1.
    -200001    2    1    2    0    0 -0.24656913077E+02 -0.80351410552E+02 -0.32632046725E+03  0.69950672042E+03  0.61299289720E+03 0.  0.
   -5000001    2    3    3    0    0  0.69226005936E+02  0.16797117410E+03  0.71835034298E+02  0.21041888378E+03  0.78161878635E+02 0.  0.
     200001    1    1    2    0    0  0.24656913077E+02  0.80351410552E+02  0.35790892037E+02  0.61976955434E+03  0.61300000000E+03 0. -1.
         13    1    4    4    0    0  0.11603869723E+02  0.96864876094E+02  0.56943548072E+02  0.11296031535E+03  0.10566000000E+00 0.  1.
    -200003    1    4    4    0    0  0.57622136213E+02  0.71106298009E+02  0.14891486225E+02  0.97458568430E+02  0.30000000000E+02 0.  1.
    -200000    1    3    3    0    0 -0.93882919013E+02 -0.24832258465E+03 -0.39815550155E+03  0.48908783663E+03  0.10100000000E+03 0.  1.
<mgrwt>
<rscale>  0 0.12868887E+04</rscale>
<asrwt>0</asrwt>
<pdfrwt beam="1">  1        2 0.11498613E+00 0.12868887E+04</pdfrwt>
<pdfrwt beam="2">  1       -2 0.73481907E-01 0.12868887E+04</pdfrwt>
<totfact> 0.61901604E+01</totfact>
</mgrwt>
</event>
<event>
 8    2  0.4480234E-052  0.3160914E+04  0.7818608E-02  0.8199217E-01
         -2   -1    0    0    0  501 -0.00000000000E+00  0.00000000000E+00  0.24257253830E+04  0.24257253830E+04  0.25500000000E-02 0. -1.
          2   -1    0    0  501    0  0.00000000000E+00 -0.00000000000E+00 -0.10297307714E+04  0.10297307714E+04  0.25500000000E-02 0.  1.
    -200001    2    1    2    0    0  0.97926807216E+03  0.10426444405E+04  0.10010418476E+04  0.18498939251E+04  0.61151399565E+03 0.  0.
   -5000001    2    3    3    0    0  0.33387555449E+03  0.15747132391E+03  0.21252135277E+02  0.37671646509E+03  0.72066206183E+02 0.  0.
     200001    1    1    2    0    0 -0.97926807216E+03 -0.10426444405E+04  0.39495276396E+03  0.16055622293E+04  0.61300000000E+03 0.  1.
         13    1    4    4    0    0  0.85071568723E+01  0.17705773899E+02  0.76183635624E+01  0.21069332567E+02  0.10566000000E+00 0.  1.
    -200003    1    4    4    0    0  0.32536839762E+03  0.13976555001E+03  0.13633771715E+02  0.35564713252E+03  0.30000000000E+02 0.  1.
    -200000    1    3    3    0    0  0.64539251766E+03  0.88517311661E+03  0.97978971232E+03  0.14731774600E+04  0.10100000000E+03 0. -1.
<mgrwt>
<rscale>  0 0.31609138E+04</rscale>
<asrwt>0</asrwt>
<pdfrwt beam="1">  1        2 0.14710440E+00 0.31609138E+04</pdfrwt>
<pdfrwt beam="2">  1       -2 0.34653220E+00 0.31609138E+04</pdfrwt>
<totfact> 0.37459251E-01</totfact>
</mgrwt>
</event>
<event>
 8    2  0.4480234E-052  0.1685544E+04  0.7818608E-02  0.8769652E-01
         -2   -1    0    0    0  501 -0.00000000000E+00  0.00000000000E+00  0.41968412498E+03  0.41968412499E+03  0.25500000000E-02 0. -1.
          2   -1    0    0  501    0  0.00000000000E+00 -0.00000000000E+00 -0.16923800237E+04  0.16923800237E+04  0.25500000000E-02 0.  1.
    -200001    2    1    2    0    0  0.33712182091E+03 -0.33918438935E+03 -0.23017186232E+03  0.81155557949E+03  0.61395944514E+03 0.  0.
   -5000001    2    3    3    0    0  0.49526342354E+03 -0.28845172356E+03 -0.13874815732E+03  0.59674900674E+03  0.91477157585E+02 0.  0.
     200001    1    1    2    0    0 -0.33712182091E+03  0.33918438935E+03 -0.10425240364E+04  0.13005085692E+04  0.61300000000E+03 0.  1.
         13    1    4    4    0    0  0.18928304435E+03 -0.11760920384E+03 -0.13014020401E+02  0.22322493498E+03  0.10566000000E+00 0.  1.
    -200003    1    4    4    0    0  0.30598037919E+03 -0.17084251972E+03 -0.12573413692E+03  0.37352407175E+03  0.30000000000E+02 0.  1.
    -200000    1    3    3    0    0 -0.15814160263E+03 -0.50732665790E+02 -0.91423705000E+02  0.21480657275E+03  0.10100000000E+03 0. -1.
<mgrwt>
<rscale>  0 0.16855445E+04</rscale>
<asrwt>0</asrwt>
<pdfrwt beam="1">  1        2 0.24176857E+00 0.16855445E+04</pdfrwt>
<pdfrwt beam="2">  1       -2 0.59954876E-01 0.16855445E+04</pdfrwt>
<totfact> 0.28671689E+01</totfact>
</mgrwt>
</event>
<event>
 8    2  0.4480234E-052  0.1431688E+04  0.7818608E-02  0.8931195E-01
          2   -1    0    0  501    0  0.00000000000E+00  0.00000000000E+00  0.12900264441E+04  0.12900264441E+04  0.25500000000E-02 0. -1.
         -2   -1    0    0    0  501 -0.00000000000E+00 -0.00000000000E+00 -0.39722626545E+03  0.39722626546E+03  0.25500000000E-02 0.  1.
    -200001    2    1    2    0    0  0.34139087109E+02 -0.33128768421E+02  0.92484564247E+01  0.61082545312E+03  0.60889999809E+03 0.  0.
   -5000001    2    3    3    0    0 -0.24697393847E+03  0.10453330344E+03  0.54067986062E+02  0.27888393807E+03  0.54125465212E+02 0.  0.
     200001    1    1    2    0    0 -0.34139087109E+02  0.33128768421E+02  0.88355172225E+03  0.10764272565E+04  0.61300000000E+03 0. -1.
         13    1    4    4    0    0 -0.57990449601E+02  0.11405271577E+02  0.24712169733E+02  0.64059932576E+02  0.10566000000E+00 0.  1.
    -200003    1    4    4    0    0 -0.18898348887E+03  0.93128031860E+02  0.29355816329E+02  0.21482400549E+03  0.30000000000E+02 0.  1.
    -200000    1    3    3    0    0  0.28111302558E+03 -0.13766207186E+03 -0.44819529637E+02  0.33194151505E+03  0.10100000000E+03 0.  1.
<mgrwt>
<rscale>  0 0.14316877E+04</rscale>
<asrwt>0</asrwt>
<pdfrwt beam="1">  1        2 0.18428949E+00 0.14316877E+04</pdfrwt>
<pdfrwt beam="2">  1       -2 0.56746609E-01 0.14316877E+04</pdfrwt>
<totfact> 0.53841821E+01</totfact>
</mgrwt>
</event>
<event>
 8    2  0.4480234E-052  0.1490993E+04  0.7818608E-02  0.8890464E-01
          2   -1    0    0  501    0  0.00000000000E+00  0.00000000000E+00  0.13381029121E+04  0.13381029121E+04  0.25500000000E-02 0.  1.
         -2   -1    0    0    0  501 -0.00000000000E+00 -0.00000000000E+00 -0.41533819605E+03  0.41533819605E+03  0.25500000000E-02 0. -1.
    -200001    2    1    2    0    0 -0.14303545205E+03  0.15090061429E+03  0.27688235799E+02  0.64883210880E+03  0.61399212623E+03 0.  0.
   -5000001    2    3    3    0    0  0.65027509250E+02 -0.11907371282E+03  0.19633880929E+03  0.25535993812E+03  0.90844063760E+02 0.  0.
     200001    1    1    2    0    0  0.14303545205E+03 -0.15090061429E+03  0.89507648023E+03  0.11046089993E+04  0.61300000000E+03 0.  1.
         13    1    4    4    0    0  0.14639962060E+02  0.12450373466E+02  0.25295143109E+02  0.31767840932E+02  0.10566000000E+00 0.  1.
    -200003    1    4    4    0    0  0.50387547190E+02 -0.13152408629E+03  0.17104366618E+03  0.22359209719E+03  0.30000000000E+02 0.  1.
    -200000    1    3    3    0    0 -0.20806296130E+03  0.26997432711E+03 -0.16865057349E+03  0.39347217068E+03  0.10100000000E+03 0. -1.
<mgrwt>
<rscale>  0 0.14909933E+04</rscale>
<asrwt>0</asrwt>
<pdfrwt beam="1">  1        2 0.19115756E+00 0.14909933E+04</pdfrwt>
<pdfrwt beam="2">  1       -2 0.59334028E-01 0.14909933E+04</pdfrwt>
<totfact> 0.45923473E+01</totfact>
</mgrwt>
</event>
<event>
 8    2  0.4480234E-052  0.1317747E+04  0.7818608E-02  0.9015609E-01
          2   -1    0    0  501    0  0.00000000000E+00  0.00000000000E+00  0.11831717818E+04  0.11831717818E+04  0.25500000000E-02 0.  1.
         -2   -1    0    0    0  501 -0.00000000000E+00 -0.00000000000E+00 -0.36690722723E+03  0.36690722724E+03  0.25500000000E-02 0. -1.
    -200001    2    1    2    0    0 -0.16146499360E+03 -0.11386609378E+03  0.55784112019E+03  0.85611351791E+03  0.61863333947E+03 0.  0.
   -5000001    2    3    3    0    0 -0.21460790519E+02  0.15680905116E+03  0.49696374931E+03  0.52935173120E+03  0.90502171991E+02 0.  0.
     200001    1    1    2    0    0  0.16146499360E+03  0.11386609378E+03  0.25842343441E+03  0.69396549116E+03  0.61300000000E+03 0. -1.
         13    1    4    4    0    0  0.27519071877E+02  0.20913061354E+02  0.84504384897E+02  0.91299823018E+02  0.10566000000E+00 0.  1.
    -200003    1    4    4    0    0 -0.48979862396E+02  0.13589598981E+03  0.41245936442E+03  0.43805190818E+03  0.30000000000E+02 0.  1.
    -200000    1    3    3    0    0 -0.14000420308E+03 -0.27067514494E+03  0.60877370878E+02  0.32676178671E+03  0.10100000000E+03 0. -1.
<mgrwt>
<rscale>  0 0.13177470E+04</rscale>
<asrwt>0</asrwt>
<pdfrwt beam="1">  1        2 0.16902455E+00 0.13177470E+04</pdfrwt>
<pdfrwt beam="2">  1       -2 0.52415316E-01 0.13177470E+04</pdfrwt>
<totfact> 0.73522062E+01</totfact>
</mgrwt>
</event>
<event>
 8    2  0.4480234E-052  0.1354464E+04  0.7818608E-02  0.8987456E-01
          2   -1    0    0  501    0  0.00000000000E+00  0.00000000000E+00  0.80802740174E+03  0.80802740174E+03  0.25500000000E-02 0.  1.
         -2   -1    0    0    0  501 -0.00000000000E+00 -0.00000000000E+00 -0.56760838655E+03  0.56760838655E+03  0.25500000000E-02 0. -1.
    -200001    2    1    2    0    0 -0.47625906138E+01  0.26404290572E+03  0.45639349543E+02  0.68033049097E+03  0.62532014871E+03 0.  0.
   -5000001    2    3    3    0    0  0.34951103095E+02  0.28137906647E+02 -0.21036610715E+03  0.31568252387E+03  0.23105894364E+03 0.  0.
     200001    1    1    2    0    0  0.47625906138E+01 -0.26404290572E+03  0.19477966565E+03  0.69530529732E+03  0.61300000000E+03 0.  1.
         13    1    4    4    0    0 -0.25962042764E+02  0.84446735276E+02 -0.84701995425E+00  0.88351612153E+02  0.10566000000E+00 0.  1.
    -200003    1    4    4    0    0  0.60913145858E+02 -0.56308828629E+02 -0.20951908720E+03  0.22733091171E+03  0.30000000000E+02 0.  1.
    -200000    1    3    3    0    0 -0.39713693709E+02  0.23590499908E+03  0.25600545669E+03  0.36464796711E+03  0.10100000000E+03 0.  1.
<mgrwt>
<rscale>  0 0.13544639E+04</rscale>
<asrwt>0</asrwt>
<pdfrwt beam="1">  1        2 0.11543248E+00 0.13544639E+04</pdfrwt>
<pdfrwt beam="2">  1       -2 0.81086913E-01 0.13544639E+04</pdfrwt>
<totfact> 0.49212158E+01</totfact>
</mgrwt>
</event>
<event>
 8    2  0.4480234E-052  0.1352323E+04  0.7818608E-02  0.8989072E-01
          2   -1    0    0  501    0  0.00000000000E+00  0.00000000000E+00  0.17442303275E+04  0.17442303275E+04  0.25500000000E-02 0.  1.
         -2   -1    0    0    0  501 -0.00000000000E+00 -0.00000000000E+00 -0.26211805480E+03  0.26211805481E+03  0.25500000000E-02 0. -1.
    -200001    2    1    2    0    0  0.25662988391E+03 -0.60585583522E+02  0.91668045377E+03  0.11316989370E+04  0.60902374299E+03 0.  0.
   -5000001    2    3    3    0    0  0.31843889675E+03 -0.25895167707E+03  0.70008761795E+03  0.81502415486E+03  0.75381683374E+02 0.  0.
     200001    1    1    2    0    0 -0.25662988391E+03  0.60585583522E+02  0.56543181890E+03  0.87464944524E+03  0.61300000000E+03 0.  1.
         13    1    4    4    0    0  0.17064934669E+03 -0.11187842413E+03  0.29911952839E+03  0.36209181811E+03  0.10566000000E+00 0.  1.
    -200003    1    4    4    0    0  0.14778955006E+03 -0.14707325293E+03  0.40096808955E+03  0.45293233675E+03  0.30000000000E+02 0. -1.
    -200000    1    3    3    0    0 -0.61809012845E+02  0.19836609354E+03  0.21659283583E+03  0.31667478218E+03  0.10100000000E+03 0. -1.
<mgrwt>
<rscale>  0 0.13523228E+04</rscale>
<asrwt>0</asrwt>
<pdfrwt beam="1">  1        2 0.24917575E+00 0.13523228E+04</pdfrwt>
<pdfrwt beam="2">  1       -2 0.37445438E-01 0.13523228E+04</pdfrwt>
<totfact> 0.71481933E+01</totfact>
</mgrwt>
</event>
<event>
 8    2  0.4480234E-052  0.1460575E+04  0.7818608E-02  0.8911102E-01
         -2   -1    0    0    0  501 -0.00000000000E+00  0.00000000000E+00  0.21039109971E+03  0.21039109973E+03  0.25500000000E-02 0. -1.
          2   -1    0    0  501    0  0.00000000000E+00 -0.00000000000E+00 -0.25348957254E+04  0.25348957254E+04  0.25500000000E-02 0.  1.
    -200001    2    1    2    0    0  0.37039002630E+03  0.28168277186E+02 -0.14258308518E+04  0.15957800721E+04  0.61281171418E+03 0.  0.
   -5000001    2    3    3    0    0  0.25970618849E+03 -0.19926712710E+01 -0.14034253642E+04  0.14413015925E+04  0.20073926564E+03 0.  0.
     200001    1    1    2    0    0 -0.37039002630E+03 -0.28168277186E+02 -0.89867377382E+03  0.11495067530E+04  0.61300000000E+03 0.  1.
         13    1    4    4    0    0  0.17079664757E+03 -0.75976938060E+02 -0.10891629867E+04  0.11050882375E+04  0.10566000000E+00 0.  1.
    -200003    1    4    4    0    0  0.88909540917E+02  0.73984266789E+02 -0.31426237746E+03  0.33621335501E+03  0.30000000000E+02 0.  1.
    -200000    1    3    3    0    0  0.11068383781E+03  0.30160948457E+02 -0.22405487638E+02  0.15447847954E+03  0.10100000000E+03 0. -1.
<mgrwt>
<rscale>  0 0.14605745E+04</rscale>
<asrwt>0</asrwt>
<pdfrwt beam="1">  1        2 0.36212794E+00 0.14605745E+04</pdfrwt>
<pdfrwt beam="2">  1       -2 0.30055873E-01 0.14605745E+04</pdfrwt>
<totfact> 0.41970281E+01</totfact>
</mgrwt>
</event>
<event>
 8    2  0.4480234E-052  0.1328334E+04  0.7818608E-02  0.9007393E-01
          2   -1    0    0  501    0  0.00000000000E+00  0.00000000000E+00  0.16272356283E+04  0.16272356283E+04  0.25500000000E-02 0.  1.
         -2   -1    0    0    0  501 -0.00000000000E+00 -0.00000000000E+00 -0.27108413260E+03  0.27108413261E+03  0.25500000000E-02 0. -1.
    -200001    2    1    2    0    0  0.14667250723E+03  0.69065591649E+02  0.39777307027E+03  0.74917177798E+03  0.61380131734E+03 0.  0.
   -5000001    2    3    3    0    0  0.36588126832E+03 -0.22067860192E+02  0.26801984519E+03  0.46039039631E+03  0.75951212227E+02 0.  0.
     200001    1    1    2    0    0 -0.14667250723E+03 -0.69065591649E+02  0.95837842540E+03  0.11491479829E+04  0.61300000000E+03 0.  1.
         13    1    4    4    0    0  0.40582747463E+02  0.19489616819E+02  0.32481390093E+02  0.55514470382E+02  0.10566000000E+00 0.  1.
    -200003    1    4    4    0    0  0.32529852085E+03 -0.41557477011E+02  0.23553845510E+03  0.40487592593E+03  0.30000000000E+02 0.  1.
    -200000    1    3    3    0    0 -0.21920876109E+03  0.91133451841E+02  0.12975322507E+03  0.28878138167E+03  0.10100000000E+03 0. -1.
<mgrwt>
<rscale>  0 0.13283339E+04</rscale>
<asrwt>0</asrwt>
<pdfrwt beam="1">  1        2 0.23246223E+00 0.13283339E+04</pdfrwt>
<pdfrwt beam="2">  1       -2 0.38726304E-01 0.13283339E+04</pdfrwt>
<totfact> 0.77180415E+01</totfact>
</mgrwt>
</event>
<event>
 8    2  0.4480234E-052  0.1423484E+04  0.7818608E-02  0.8936993E-01
          2   -1    0    0  501    0  0.00000000000E+00  0.00000000000E+00  0.78409126735E+03  0.78409126735E+03  0.25500000000E-02 0.  1.
         -2   -1    0    0    0  501 -0.00000000000E+00 -0.00000000000E+00 -0.64606859406E+03  0.64606859406E+03  0.25500000000E-02 0. -1.
    -200001    2    1    2    0    0 -0.83460727126E+02 -0.35169212186E+03  0.61989557039E+02  0.71447621879E+03  0.61317250468E+03 0.  0.
   -5000001    2    3    3    0    0 -0.91955108039E+01 -0.40583601985E+03  0.24796786508E+03  0.48374734087E+03  0.87954506762E+02 0.  0.
     200001    1    1    2    0    0  0.83460727126E+02  0.35169212186E+03  0.76033116249E+02  0.71568364262E+03  0.61300000000E+03 0.  1.
         13    1    4    4    0    0  0.12583618369E+02 -0.82961916387E+02  0.18554808486E+02  0.85937879330E+02  0.10566000000E+00 0.  1.
    -200003    1    4    4    0    0 -0.21779129173E+02 -0.32287410347E+03  0.22941305659E+03  0.39780946154E+03  0.30000000000E+02 0.  1.
    -200000    1    3    3    0    0 -0.74265216322E+02  0.54143897994E+02 -0.18597830804E+03  0.23072887792E+03  0.10100000000E+03 0. -1.
<mgrwt>
<rscale>  0 0.14234841E+04</rscale>
<asrwt>0</asrwt>
<pdfrwt beam="1">  1        2 0.11201304E+00 0.14234841E+04</pdfrwt>
<pdfrwt beam="2">  1       -2 0.92295514E-01 0.14234841E+04</pdfrwt>
<totfact> 0.37860266E+01</totfact>
</mgrwt>
</event>
<event>
 8    2  0.4480234E-052  0.1971266E+04  0.7818608E-02  0.8620174E-01
          2   -1    0    0  501    0  0.00000000000E+00  0.00000000000E+00  0.72251672597E+03  0.72251672597E+03  0.25500000000E-02 0.  1.
         -2   -1    0    0    0  501 -0.00000000000E+00 -0.00000000000E+00 -0.13445670423E+04  0.13445670423E+04  0.25500000000E-02 0. -1.
    -200001    2    1    2    0    0  0.43266900981E+03  0.29158143496E+03  0.28549877497E+03  0.85397348542E+03  0.61281233508E+03 0.  0.
   -5000001    2    3    3    0    0 -0.47452970860E+02  0.89309673418E+02 -0.12790502203E+03  0.18126650521E+03  0.79182378361E+02 0.  0.
     200001    1    1    2    0    0 -0.43266900981E+03 -0.29158143496E+03 -0.90754909135E+03  0.12131102829E+04  0.61300000000E+03 0. -1.
         13    1    4    4    0    0 -0.21320455332E+00 -0.12078917238E+02 -0.17498142638E+02  0.21263627575E+02  0.10566000000E+00 0.  1.
    -200003    1    4    4    0    0 -0.47239766307E+02  0.10138859066E+03 -0.11040687939E+03  0.16000287764E+03  0.30000000000E+02 0.  1.
    -200000    1    3    3    0    0  0.48012198067E+03  0.20227176154E+03  0.41340379700E+03  0.67270698021E+03  0.10100000000E+03 0.  1.
<mgrwt>
<rscale>  0 0.19712658E+04</rscale>
<asrwt>0</asrwt>
<pdfrwt beam="1">  1        2 0.10321668E+00 0.19712658E+04</pdfrwt>
<pdfrwt beam="2">  1       -2 0.19208100E+00 0.19712658E+04</pdfrwt>
<totfact> 0.60659050E+00</totfact>
</mgrwt>
</event>
<event>
 8    2  0.4480234E-052  0.1240190E+04  0.7818608E-02  0.9078388E-01
          2   -1    0    0  501    0  0.00000000000E+00  0.00000000000E+00  0.20474264273E+04  0.20474264273E+04  0.25500000000E-02 0.  1.
         -2   -1    0    0    0  501 -0.00000000000E+00 -0.00000000000E+00 -0.18780551839E+03  0.18780551841E+03  0.25500000000E-02 0. -1.
    -200001    2    1    2    0    0 -0.80463789698E+02  0.10655547469E+02  0.84984481792E+03  0.10511691450E+04  0.61329633512E+03 0.  0.
   -5000001    2    3    3    0    0 -0.28880813939E+02 -0.10502270758E+03  0.87675320288E+03  0.88695183999E+03  0.78252905268E+02 0.  0.
     200001    1    1    2    0    0  0.80463789698E+02 -0.10655547469E+02  0.10097760910E+04  0.11840628007E+04  0.61300000000E+03 0. -1.
         13    1    4    4    0    0 -0.42722204558E+00  0.10033820199E+02  0.36741001115E+02  0.38089006202E+02  0.10566000000E+00 0.  1.
    -200003    1    4    4    0    0 -0.28453591894E+02 -0.11505652778E+03  0.84001220176E+03  0.84886283379E+03  0.30000000000E+02 0.  1.
    -200000    1    3    3    0    0 -0.51582975759E+02  0.11567825505E+03 -0.26908384954E+02  0.16421730499E+03  0.10100000000E+03 0. -1.
<mgrwt>
<rscale>  0 0.12401903E+04</rscale>
<asrwt>0</asrwt>
<pdfrwt beam="1">  1        2 0.29248951E+00 0.12401903E+04</pdfrwt>
<pdfrwt beam="2">  1       -2 0.26829358E-01 0.12401903E+04</pdfrwt>
<totfact> 0.94193408E+01</totfact>
</mgrwt>
</event>
<event>
 8    2  0.4480234E-052  0.1243175E+04  0.7818608E-02  0.9075883E-01
         -2   -1    0    0    0  501 -0.00000000000E+00  0.00000000000E+00  0.35208181221E+03  0.35208181222E+03  0.25500000000E-02 0. -1.
          2   -1    0    0  501    0  0.00000000000E+00 -0.00000000000E+00 -0.10973895226E+04  0.10973895226E+04  0.25500000000E-02 0.  1.
    -200001    2    1    2    0    0  0.16323369444E+02 -0.40602981801E+01 -0.25511042466E+03  0.66439470330E+03  0.61323409445E+03 0.  0.
   -5000001    2    3    3    0    0  0.42889922467E+02 -0.21586383585E+03  0.85183360489E+02  0.25018777371E+03  0.83072114057E+02 0.  0.
     200001    1    1    2    0    0 -0.16323369444E+02  0.40602981801E+01 -0.49019728573E+03  0.78507663151E+03  0.61300000000E+03 0.  1.
         13    1    4    4    0    0 -0.10230065516E+02 -0.13117347927E+02  0.25081385890E+02  0.30096613419E+02  0.10566000000E+00 0.  1.
    -200003    1    4    4    0    0  0.53119987984E+02 -0.20274648792E+03  0.60101974599E+02  0.22009116029E+03  0.30000000000E+02 0.  1.
    -200000    1    3    3    0    0 -0.26566553024E+02  0.21180353767E+03 -0.34029378514E+03  0.41420692959E+03  0.10100000000E+03 0.  1.
<mgrwt>
<rscale>  0 0.12431748E+04</rscale>
<asrwt>0</asrwt>
<pdfrwt beam="1">  1        2 0.15676993E+00 0.12431748E+04</pdfrwt>
<pdfrwt beam="2">  1       -2 0.50297402E-01 0.12431748E+04</pdfrwt>
<totfact> 0.90214724E+01</totfact>
</mgrwt>
</event>
<event>
 8    2  0.4480234E-052  0.1587234E+04  0.7818608E-02  0.8828429E-01
          2   -1    0    0  501    0  0.00000000000E+00  0.00000000000E+00  0.13742447487E+04  0.13742447487E+04  0.25500000000E-02 0.  1.
         -2   -1    0    0    0  501 -0.00000000000E+00 -0.00000000000E+00 -0.45830821280E+03  0.45830821280E+03  0.25500000000E-02 0. -1.
    -200001    2    1    2    0    0  0.39226598004E+02 -0.34501598158E+03  0.35969616240E+02  0.70530607939E+03  0.61285242824E+03 0.  0.
   -5000001    2    3    3    0    0  0.75486967196E+02 -0.42649591000E+03 -0.15910170441E+03  0.46822463083E+03  0.79523009955E+02 0.  0.
     200001    1    1    2    0    0 -0.39226598004E+02  0.34501598158E+03  0.87996691964E+03  0.11272468821E+04  0.61300000000E+03 0.  1.
         13    1    4    4    0    0  0.57771566422E+02 -0.16171593836E+03 -0.43065119307E+02  0.17704297296E+03  0.10566000000E+00 0.  1.
    -200003    1    4    4    0    0  0.17715400774E+02 -0.26477997163E+03 -0.11603658510E+03  0.29118165788E+03  0.30000000000E+02 0.  1.
    -200000    1    3    3    0    0 -0.36260369192E+02  0.81479928421E+02  0.19507132065E+03  0.23708144855E+03  0.10100000000E+03 0. -1.
<mgrwt>
<rscale>  0 0.15872336E+04</rscale>
<asrwt>0</asrwt>
<pdfrwt beam="1">  1        2 0.19632068E+00 0.15872336E+04</pdfrwt>
<pdfrwt beam="2">  1       -2 0.65472603E-01 0.15872336E+04</pdfrwt>
<totfact> 0.35325548E+01</totfact>
</mgrwt>
</event>
<event>
 8    2  0.4480234E-052  0.1394961E+04  0.7818608E-02  0.8957474E-01
          2   -1    0    0  501    0  0.00000000000E+00  0.00000000000E+00  0.59568743153E+03  0.59568743154E+03  0.25500000000E-02 0.  1.
         -2   -1    0    0    0  501 -0.00000000000E+00 -0.00000000000E+00 -0.81666799332E+03  0.81666799332E+03  0.25500000000E-02 0. -1.
    -200001    2    1    2    0    0 -0.31168767258E+03  0.10097492916E+03 -0.52057322872E+02  0.69705884147E+03  0.61305458326E+03 0.  0.
   -5000001    2    3    3    0    0 -0.68096605493E+02 -0.17266741902E+03 -0.20409137609E+03  0.28775199324E+03  0.81833578378E+02 0.  0.
     200001    1    1    2    0    0  0.31168767258E+03 -0.10097492916E+03 -0.16892323891E+03  0.71529658338E+03  0.61300000000E+03 0.  1.
         13    1    4    4    0    0 -0.40957774772E+02 -0.64757541450E+02 -0.37823357615E+02  0.85449962167E+02  0.10566000000E+00 0.  1.
    -200003    1    4    4    0    0 -0.27138830721E+02 -0.10790987757E+03 -0.16626801847E+03  0.20230203107E+03  0.30000000000E+02 0.  1.
    -200000    1    3    3    0    0 -0.24359106709E+03  0.27364234817E+03  0.15203405321E+03  0.40930684824E+03  0.10100000000E+03 0. -1.
<mgrwt>
<rscale>  0 0.13949607E+04</rscale>
<asrwt>0</asrwt>
<pdfrwt beam="1">  1        2 0.85098204E-01 0.13949607E+04</pdfrwt>
<pdfrwt beam="2">  1       -2 0.11666686E+00 0.13949607E+04</pdfrwt>
<totfact> 0.30380842E+01</totfact>
</mgrwt>
</event>
<event>
 8    2  0.4480234E-052  0.1935723E+04  0.7818608E-02  0.8637276E-01
         -2   -1    0    0    0  501 -0.00000000000E+00  0.00000000000E+00  0.64029066864E+03  0.64029066864E+03  0.25500000000E-02 0. -1.
          2   -1    0    0  501    0  0.00000000000E+00 -0.00000000000E+00 -0.14630161458E+04  0.14630161458E+04  0.25500000000E-02 0.  1.
    -200001    2    1    2    0    0  0.44195493689E+03  0.60051378428E+03 -0.48883916934E+03  0.10819400645E+04  0.61293523175E+03 0.  0.
   -5000001    2    3    3    0    0 -0.12979720774E+03  0.54361030221E+02 -0.10170436124E+03  0.19579238758E+03  0.90490028162E+02 0.  0.
     200001    1    1    2    0    0 -0.44195493689E+03 -0.60051378428E+03 -0.33388630781E+03  0.10213667499E+04  0.61300000000E+03 0. -1.
         13    1    4    4    0    0 -0.87497233681E+01 -0.14807395590E+01  0.14112705231E+02  0.16671228558E+02  0.10566000000E+00 0.  1.
    -200003    1    4    4    0    0 -0.12104748437E+03  0.55841769780E+02 -0.11581706647E+03  0.17912115902E+03  0.30000000000E+02 0.  1.
    -200000    1    3    3    0    0  0.57175214462E+03  0.54615275406E+03 -0.38713480810E+03  0.88614767691E+03  0.10100000000E+03 0. -1.
<mgrwt>
<rscale>  0 0.19357227E+04</rscale>
<asrwt>0</asrwt>
<pdfrwt beam="1">  1        2 0.20900231E+00 0.19357227E+04</pdfrwt>
<pdfrwt beam="2">  1       -2 0.91470096E-01 0.19357227E+04</pdfrwt>
<totfact> 0.14599844E+01</totfact>
</mgrwt>
</event>
<event>
 8    2  0.4480234E-052  0.1924642E+04  0.7818608E-02  0.8642687E-01
         -2   -1    0    0    0  501 -0.00000000000E+00  0.00000000000E+00  0.22534509636E+03  0.22534509638E+03  0.25500000000E-02 0.  1.
          2   -1    0    0  501    0  0.00000000000E+00 -0.00000000000E+00 -0.41095279995E+04  0.41095279995E+04  0.25500000000E-02 0. -1.
    -200001    2    1    2    0    0  0.66778979088E+03 -0.20615295472E+03 -0.25023754671E+04  0.26694593227E+04  0.61293380700E+03 0.  0.
   -5000001    2    3    3    0    0  0.75678445632E+03 -0.18891316574E+03 -0.22015273515E+04  0.23394171293E+04  0.13318756613E+03 0.  0.
     200001    1    1    2    0    0 -0.66778979088E+03  0.20615295472E+03 -0.13818074360E+04  0.16654137732E+04  0.61300000000E+03 0.  1.
         13    1    4    4    0    0  0.18336820408E+03  0.62395837713E+01 -0.45534413497E+03  0.49091865221E+03  0.10566000000E+00 0.  1.
    -200003    1    4    4    0    0  0.57341625224E+03 -0.19515274951E+03 -0.17461832165E+04  0.18484984770E+04  0.30000000000E+02 0.  1.
    -200000    1    3    3    0    0 -0.88994665438E+02 -0.17239788984E+02 -0.30084811560E+03  0.33004219345E+03  0.10100000000E+03 0. -1.
<mgrwt>
<rscale>  0 0.19246423E+04</rscale>
<asrwt>0</asrwt>
<pdfrwt beam="1">  1        2 0.58707538E+00 0.19246423E+04</pdfrwt>
<pdfrwt beam="2">  1       -2 0.32192159E-01 0.19246423E+04</pdfrwt>
<totfact> 0.40576020E+00</totfact>
</mgrwt>
</event>
<event>
 8    2  0.4480234E-052  0.1588047E+04  0.7818608E-02  0.8827925E-01
         -2   -1    0    0    0  501 -0.00000000000E+00  0.00000000000E+00  0.18190849288E+04  0.18190849288E+04  0.25500000000E-02 0. -1.
          2   -1    0    0  501    0  0.00000000000E+00 -0.00000000000E+00 -0.34658798878E+03  0.34658798879E+03  0.25500000000E-02 0.  1.
    -200001    2    1    2    0    0 -0.48562042313E+03 -0.49152945773E+02  0.56078818356E+03  0.96349777892E+03  0.61286326022E+03 0.  0.
   -5000001    2    3    3    0    0 -0.14683242669E+03 -0.24664935423E+03  0.45763155866E+03  0.54561690218E+03  0.76651777545E+02 0.  0.
     200001    1    1    2    0    0  0.48562042313E+03  0.49152945773E+02  0.91170875645E+03  0.12021751387E+04  0.61300000000E+03 0. -1.
         13    1    4    4    0    0 -0.80364187998E+02 -0.18062788143E+03  0.32648630190E+03  0.38167807214E+03  0.10566000000E+00 0.  1.
    -200003    1    4    4    0    0 -0.66468238690E+02 -0.66021472793E+02  0.13114525676E+03  0.16393883004E+03  0.30000000000E+02 0.  1.
    -200000    1    3    3    0    0 -0.33878799644E+03  0.19749640845E+03  0.10315662490E+03  0.41788087674E+03  0.10100000000E+03 0.  1.
<mgrwt>
<rscale>  0 0.15880466E+04</rscale>
<asrwt>0</asrwt>
<pdfrwt beam="1">  1        2 0.49512569E-01 0.15880466E+04</pdfrwt>
<pdfrwt beam="2">  1       -2 0.25986928E+00 0.15880466E+04</pdfrwt>
<totfact> 0.54634328E+00</totfact>
</mgrwt>
</event>
<event>
 8    2  0.4480234E-052  0.1322503E+04  0.7818608E-02  0.9011908E-01
          2   -1    0    0  501    0  0.00000000000E+00  0.00000000000E+00  0.22071096665E+04  0.22071096665E+04  0.25500000000E-02 0.  1.
         -2   -1    0    0    0  501 -0.00000000000E+00 -0.00000000000E+00 -0.19811127285E+03  0.19811127286E+03  0.25500000000E-02 0. -1.
    -200001    2    1    2    0    0  0.14451307841E+03  0.18334149363E+03  0.11577416330E+04  0.13305557796E+04  0.61279267349E+03 0.  0.
   -5000001    2    3    3    0    0 -0.10695601152E+02 -0.56384253195E+02  0.97247837140E+03  0.97547600826E+03  0.50454731721E+02 0.  0.
     200001    1    1    2    0    0 -0.14451307841E+03 -0.18334149363E+03  0.85125676069E+03  0.10746651598E+04  0.61300000000E+03 0.  1.
         13    1    4    4    0    0  0.51725974955E+01 -0.87003273182E+01  0.43770652842E+02  0.44925857527E+02  0.10566000000E+00 0.  1.
    -200003    1    4    4    0    0 -0.15868198647E+02 -0.47683925877E+02  0.92870771856E+03  0.93055015073E+03  0.30000000000E+02 0.  1.
    -200000    1    3    3    0    0  0.15520867956E+03  0.23972574682E+03  0.18526326158E+03  0.35507977131E+03  0.10100000000E+03 0. -1.
<mgrwt>
<rscale>  0 0.13225026E+04</rscale>
<asrwt>0</asrwt>
<pdfrwt beam="1">  1        2 0.31530140E+00 0.13225026E+04</pdfrwt>
<pdfrwt beam="2">  1       -2 0.28301609E-01 0.13225026E+04</pdfrwt>
<totfact> 0.70253022E+01</totfact>
</mgrwt>
</event>
<event>
 8    2  0.4480234E-052  0.2812991E+04  0.7818608E-02  0.8299246E-01
         -2   -1    0    0    0  501 -0.00000000000E+00  0.00000000000E+00  0.21356813267E+04  0.21356813267E+04  0.25500000000E-02 0.  1.
          2   -1    0    0  501    0  0.00000000000E+00 -0.00000000000E+00 -0.92627575354E+03  0.92627575354E+03  0.25500000000E-02 0. -1.
    -200001    2    1    2    0    0  0.11190246503E+04  0.19438719930E+03 -0.36375197925E+01  0.12907300771E+04  0.61316257969E+03 0.  0.
   -5000001    2    3    3    0    0  0.28701644318E+03  0.15261729479E+03  0.24504403840E+03  0.41550102192E+03  0.83210823434E+02 0.  0.
     200001    1    1    2    0    0 -0.11190246503E+04 -0.19438719930E+03  0.12130430930E+04  0.17712270031E+04  0.61300000000E+03 0.  1.
         13    1    4    4    0    0  0.19612171467E+02  0.28046092367E+02  0.49980255992E+02  0.60574398220E+02  0.10566000000E+00 0.  1.
    -200003    1    4    4    0    0  0.26740427171E+03  0.12457120242E+03  0.19506378241E+03  0.35492662370E+03  0.30000000000E+02 0.  1.
    -200000    1    3    3    0    0  0.83200820714E+03  0.41769904510E+02 -0.24868155819E+03  0.87522905519E+03  0.10100000000E+03 0. -1.
<mgrwt>
<rscale>  0 0.28129912E+04</rscale>
<asrwt>0</asrwt>
<pdfrwt beam="1">  1        2 0.13232511E+00 0.28129912E+04</pdfrwt>
<pdfrwt beam="2">  1       -2 0.30509734E+00 0.28129912E+04</pdfrwt>
<totfact> 0.80848624E-01</totfact>
</mgrwt>
</event>
<event>
 8    2  0.4480234E-052  0.1434382E+04  0.7818608E-02  0.8929300E-01
         -2   -1    0    0    0  501 -0.00000000000E+00  0.00000000000E+00  0.66739952060E+03  0.66739952061E+03  0.25500000000E-02 0. -1.
          2   -1    0    0  501    0  0.00000000000E+00 -0.00000000000E+00 -0.77069736552E+03  0.77069736553E+03  0.25500000000E-02 0.  1.
    -200001    2    1    2    0    0 -0.46012703912E+02 -0.19576249257E+03  0.26249831288E+03  0.69646628302E+03  0.61295986549E+03 0.  0.
   -5000001    2    3    3    0    0  0.19881346094E+02 -0.39354620935E+03  0.13688170305E+03  0.43294976150E+03  0.11590948423E+03 0.  0.
     200001    1    1    2    0    0  0.46012703912E+02  0.19576249257E+03 -0.36579615780E+03  0.74163060312E+03  0.61300000000E+03 0. -1.
         13    1    4    4    0    0  0.49672288102E+02 -0.31123566913E+03  0.83196963624E+02  0.32597043404E+03  0.10566000000E+00 0.  1.
    -200003    1    4    4    0    0 -0.29790942008E+02 -0.82310540220E+02  0.53684739430E+02  0.10697932746E+03  0.30000000000E+02 0.  1.
    -200000    1    3    3    0    0 -0.65894050006E+02  0.19778371678E+03  0.12561660983E+03  0.26351652152E+03  0.10100000000E+03 0.  1.
<mgrwt>
<rscale>  0 0.14343822E+04</rscale>
<asrwt>0</asrwt>
<pdfrwt beam="1">  1        2 0.11009962E+00 0.14343822E+04</pdfrwt>
<pdfrwt beam="2">  1       -2 0.95342789E-01 0.14343822E+04</pdfrwt>
<totfact> 0.35854111E+01</totfact>
</mgrwt>
</event>
<event>
 8    2  0.4480234E-052  0.1785171E+04  0.7818608E-02  0.8714225E-01
          2   -1    0    0  501    0  0.00000000000E+00  0.00000000000E+00  0.56739815255E+03  0.56739815255E+03  0.25500000000E-02 0.  1.
         -2   -1    0    0    0  501 -0.00000000000E+00 -0.00000000000E+00 -0.14041448136E+04  0.14041448136E+04  0.25500000000E-02 0. -1.
    -200001    2    1    2    0    0 -0.58571441009E+03  0.21002719173E+03 -0.21549265675E+03  0.89967621634E+03  0.61303133499E+03 0.  0.
   -5000001    2    3    3    0    0 -0.51023277360E+03 -0.99001618489E+02 -0.42723961119E+02  0.52384872243E+03  0.49531236756E+02 0.  0.
     200001    1    1    2    0    0  0.58571441009E+03 -0.21002719173E+03 -0.62125400427E+03  0.10718667498E+04  0.61300000000E+03 0.  1.
         13    1    4    4    0    0 -0.29438004352E+03 -0.47708007150E+02 -0.24556803207E+02  0.29923019854E+03  0.10566000000E+00 0.  1.
    -200003    1    4    4    0    0 -0.21585273008E+03 -0.51293611339E+02 -0.18167157911E+02  0.22461852389E+03  0.30000000000E+02 0. -1.
    -200000    1    3    3    0    0 -0.75481636487E+02  0.30902881021E+03 -0.17276869563E+03  0.37582749391E+03  0.10100000000E+03 0. -1.
<mgrwt>
<rscale>  0 0.17851713E+04</rscale>
<asrwt>0</asrwt>
<pdfrwt beam="1">  1        2 0.81056879E-01 0.17851713E+04</pdfrwt>
<pdfrwt beam="2">  1       -2 0.20059212E+00 0.17851713E+04</pdfrwt>
<totfact> 0.72368591E+00</totfact>
</mgrwt>
</event>
<event>
 8    2  0.4480234E-052  0.1252886E+04  0.7818608E-02  0.9067784E-01
          2   -1    0    0  501    0  0.00000000000E+00  0.00000000000E+00  0.84877550247E+03  0.84877550247E+03  0.25500000000E-02 0.  1.
         -2   -1    0    0    0  501 -0.00000000000E+00 -0.00000000000E+00 -0.46234955581E+03  0.46234955582E+03  0.25500000000E-02 0. -1.
    -200001    2    1    2    0    0 -0.23236070217E+02 -0.11433839580E+03  0.25078457986E+03  0.67254791800E+03  0.61303720344E+03 0.  0.
   -5000001    2    3    3    0    0  0.12789902630E+03 -0.31715733768E+03  0.12072489645E+03  0.37073032104E+03  0.76938498473E+02 0.  0.
     200001    1    1    2    0    0  0.23236070217E+02  0.11433839580E+03  0.13564136680E+03  0.63857714029E+03  0.61300000000E+03 0. -1.
         13    1    4    4    0    0  0.65522680957E+02 -0.20547488451E+03  0.99959137677E+02  0.23770778332E+03  0.10566000000E+00 0.  1.
    -200003    1    4    4    0    0  0.62376345343E+02 -0.11168245317E+03  0.20765758776E+02  0.13302253772E+03  0.30000000000E+02 0.  1.
    -200000    1    3    3    0    0 -0.15113509652E+03  0.20281894188E+03  0.13005968341E+03  0.30181759696E+03  0.10100000000E+03 0. -1.
<mgrwt>
<rscale>  0 0.12528862E+04</rscale>
<asrwt>0</asrwt>
<pdfrwt beam="1">  1        2 0.12125364E+00 0.12528862E+04</pdfrwt>
<pdfrwt beam="2">  1       -2 0.66049936E-01 0.12528862E+04</pdfrwt>
<totfact> 0.73031704E+01</totfact>
</mgrwt>
</event>
<event>
 8    2  0.4480234E-052  0.1857633E+04  0.7818608E-02  0.8676237E-01
          2   -1    0    0  501    0  0.00000000000E+00  0.00000000000E+00  0.14612330425E+04  0.14612330425E+04  0.25500000000E-02 0.  1.
         -2   -1    0    0    0  501 -0.00000000000E+00 -0.00000000000E+00 -0.59039173211E+03  0.59039173212E+03  0.25500000000E-02 0. -1.
    -200001    2    1    2    0    0 -0.54187043221E+03  0.29192412926E+03  0.79833879713E+03  0.11799201933E+04  0.61320760357E+03 0.  0.
   -5000001    2    3    3    0    0 -0.32956044177E+03  0.63923298081E+02  0.33864022492E+02  0.34824562229E+03  0.86208866175E+02 0.  0.
     200001    1    1    2    0    0  0.54187043221E+03 -0.29192412926E+03  0.72502513216E+02  0.87170458125E+03  0.61300000000E+03 0. -1.
         13    1    4    4    0    0 -0.25418943950E+02  0.29028843111E+02  0.91244449717E+01  0.39649250989E+02  0.10566000000E+00 0.  1.
    -200003    1    4    4    0    0 -0.30414149782E+03  0.34894454970E+02  0.24739577520E+02  0.30859637130E+03  0.30000000000E+02 0.  1.
    -200000    1    3    3    0    0 -0.21230999044E+03  0.22800083117E+03  0.76447477464E+03  0.83167457104E+03  0.10100000000E+03 0.  1.
<mgrwt>
<rscale>  0 0.18576328E+04</rscale>
<asrwt>0</asrwt>
<pdfrwt beam="1">  1        2 0.20874757E+00 0.18576328E+04</pdfrwt>
<pdfrwt beam="2">  1       -2 0.84341678E-01 0.18576328E+04</pdfrwt>
<totfact> 0.17732682E+01</totfact>
</mgrwt>
</event>
<event>
 8    2  0.4480234E-052  0.1278534E+04  0.7818608E-02  0.9046764E-01
         -2   -1    0    0    0  501 -0.00000000000E+00  0.00000000000E+00  0.19214925863E+03  0.19214925864E+03  0.25500000000E-02 0. -1.
          2   -1    0    0  501    0  0.00000000000E+00 -0.00000000000E+00 -0.21267948468E+04  0.21267948468E+04  0.25500000000E-02 0.  1.
    -200001    2    1    2    0    0  0.10605236249E+03 -0.44606684241E+01 -0.73354969409E+03  0.96629213693E+03  0.61996640154E+03 0.  0.
   -5000001    2    3    3    0    0  0.44370547814E+02 -0.17374048301E+03 -0.73508415769E+03  0.75974031180E+03  0.68572017125E+02 0.  0.
     200001    1    1    2    0    0 -0.10605236249E+03  0.44606684241E+01 -0.12010958941E+04  0.13526519685E+04  0.61300000000E+03 0. -1.
         13    1    4    4    0    0  0.26482924326E+02 -0.71749621827E+02 -0.20493948411E+03  0.21874541555E+03  0.10566000000E+00 0.  1.
    -200003    1    4    4    0    0  0.17887623489E+02 -0.10199086118E+03 -0.53014467359E+03  0.54099489625E+03  0.30000000000E+02 0.  1.
    -200000    1    3    3    0    0  0.61681814677E+02  0.16927981458E+03  0.15344636019E+01  0.20655182513E+03  0.10100000000E+03 0. -1.
<mgrwt>
<rscale>  0 0.12785336E+04</rscale>
<asrwt>0</asrwt>
<pdfrwt beam="1">  1        2 0.30382782E+00 0.12785336E+04</pdfrwt>
<pdfrwt beam="2">  1       -2 0.27449895E-01 0.12785336E+04</pdfrwt>
<totfact> 0.82006889E+01</totfact>
</mgrwt>
</event>
<event>
 8    2  0.4480234E-052  0.1636747E+04  0.7818608E-02  0.8798286E-01
         -2   -1    0    0    0  501 -0.00000000000E+00  0.00000000000E+00  0.65387650553E+03  0.65387650554E+03  0.25500000000E-02 0. -1.
          2   -1    0    0  501    0  0.00000000000E+00 -0.00000000000E+00 -0.10242527833E+04  0.10242527833E+04  0.25500000000E-02 0.  1.
    -200001    2    1    2    0    0 -0.18920661926E+03 -0.34223684758E+03 -0.57043927742E+03  0.92399441463E+03  0.61273118448E+03 0.  0.
   -5000001    2    3    3    0    0  0.15682727518E+03 -0.21239064175E+03 -0.44389076193E+02  0.27320312129E+03  0.54451597340E+02 0.  0.
     200001    1    1    2    0    0  0.18920661926E+03  0.34223684758E+03  0.20006299968E+03  0.75413487418E+03  0.61300000000E+03 0. -1.
         13    1    4    4    0    0  0.71601349593E+02 -0.10385601030E+03 -0.35495866414E+01  0.12619601764E+03  0.10566000000E+00 0.  1.
    -200003    1    4    4    0    0  0.85225925592E+02 -0.10853463146E+03 -0.40839489552E+02  0.14700710366E+03  0.30000000000E+02 0.  1.
    -200000    1    3    3    0    0 -0.34603389444E+03 -0.12984620583E+03 -0.52605020123E+03  0.65079129334E+03  0.10100000000E+03 0.  1.
<mgrwt>
<rscale>  0 0.16367466E+04</rscale>
<asrwt>0</asrwt>
<pdfrwt beam="1">  1        2 0.14632183E+00 0.16367466E+04</pdfrwt>
<pdfrwt beam="2">  1       -2 0.93410929E-01 0.16367466E+04</pdfrwt>
<totfact> 0.25222094E+01</totfact>
</mgrwt>
</event>
<event>
 8    2  0.4480234E-052  0.1657322E+04  0.7818608E-02  0.8786087E-01
          2   -1    0    0  501    0  0.00000000000E+00  0.00000000000E+00  0.37382245524E+03  0.37382245525E+03  0.25500000000E-02 0.  1.
         -2   -1    0    0    0  501 -0.00000000000E+00 -0.00000000000E+00 -0.18369126128E+04  0.18369126128E+04  0.25500000000E-02 0. -1.
    -200001    2    1    2    0    0  0.44946959581E+03 -0.33049077487E+03 -0.75161724587E+03  0.11183936499E+04  0.61206927870E+03 0.  0.
   -5000001    2    3    3    0    0 -0.56478488189E+02 -0.83293260373E+02  0.34487834907E+02  0.14615279858E+03  0.10021797706E+03 0.  0.
     200001    1    1    2    0    0 -0.44946959581E+03  0.33049077487E+03 -0.71147291173E+03  0.10923414182E+04  0.61300000000E+03 0.  1.
         13    1    4    4    0    0 -0.21012308372E+02 -0.86170939125E+02  0.80178136705E+00  0.88699503212E+02  0.10566000000E+00 0.  1.
    -200003    1    4    4    0    0 -0.35466179817E+02  0.28776787515E+01  0.33686053540E+02  0.57453295370E+02  0.30000000000E+02 0.  1.
    -200000    1    3    3    0    0  0.50594808400E+03 -0.24719751450E+03 -0.78610508077E+03  0.97224085128E+03  0.10100000000E+03 0. -1.
<mgrwt>
<rscale>  0 0.16573222E+04</rscale>
<asrwt>0</asrwt>
<pdfrwt beam="1">  1        2 0.53403209E-01 0.16573222E+04</pdfrwt>
<pdfrwt beam="2">  1       -2 0.26241608E+00 0.16573222E+04</pdfrwt>
<totfact> 0.48181758E+00</totfact>
</mgrwt>
</event>
<event>
 8    2  0.4480234E-052  0.1550372E+04  0.7818608E-02  0.8851630E-01
          2   -1    0    0  501    0  0.00000000000E+00  0.00000000000E+00  0.17535206058E+04  0.17535206058E+04  0.25500000000E-02 0.  1.
         -2   -1    0    0    0  501 -0.00000000000E+00 -0.00000000000E+00 -0.34268962142E+03  0.34268962143E+03  0.25500000000E-02 0. -1.
    -200001    2    1    2    0    0 -0.18186650253E+02 -0.22501859010E+03  0.14034998198E+03  0.66762522884E+03  0.61242241027E+03 0.  0.
   -5000001    2    3    3    0    0  0.21185351679E+03  0.84526812903E+02 -0.16656403343E+02  0.23915254593E+03  0.69927174799E+02 0.  0.
     200001    1    1    2    0    0  0.18186650253E+02  0.22501859010E+03  0.12704810024E+04  0.14285849984E+04  0.61300000000E+03 0.  1.
         13    1    4    4    0    0  0.58150727846E+02  0.31940525258E+02  0.21245021552E+02  0.69663953431E+02  0.10566000000E+00 0.  1.
    -200003    1    4    4    0    0  0.15370278894E+03  0.52586287645E+02 -0.37901424896E+02  0.16948859250E+03  0.30000000000E+02 0.  1.
    -200000    1    3    3    0    0 -0.23004016704E+03 -0.30954540300E+03  0.15700638532E+03  0.42847268291E+03  0.10100000000E+03 0.  1.
<mgrwt>
<rscale>  0 0.15503720E+04</rscale>
<asrwt>0</asrwt>
<pdfrwt beam="1">  1        2 0.25050295E+00 0.15503720E+04</pdfrwt>
<pdfrwt beam="2">  1       -2 0.48955660E-01 0.15503720E+04</pdfrwt>
<totfact> 0.40971798E+01</totfact>
</mgrwt>
</event>
<event>
 8    2  0.4480234E-052  0.1619746E+04  0.7818608E-02  0.8808508E-01
          2   -1    0    0  501    0  0.00000000000E+00  0.00000000000E+00  0.12326119489E+04  0.12326119489E+04  0.25500000000E-02 0.  1.
         -2   -1    0    0    0  501 -0.00000000000E+00 -0.00000000000E+00 -0.53211750966E+03  0.53211750966E+03  0.25500000000E-02 0. -1.
    -200001    2    1    2    0    0  0.30933772302E+03 -0.21896457398E+03 -0.52295907915E+02  0.72256938531E+03  0.61297336243E+03 0.  0.
   -5000001    2    3    3    0    0 -0.47534435391E+02 -0.30333795933E+03  0.70648575052E+02  0.32282827972E+03  0.70380657209E+02 0.  0.
     200001    1    1    2    0    0 -0.30933772302E+03  0.21896457398E+03  0.75279034719E+03  0.10421600733E+04  0.61300000000E+03 0.  1.
         13    1    4    4    0    0 -0.36938327522E+02 -0.23466212810E+03  0.38741752894E+02  0.24069002677E+03  0.10566000000E+00 0.  1.
    -200003    1    4    4    0    0 -0.10596107869E+02 -0.68675831232E+02  0.31906822158E+02  0.82138252950E+02  0.30000000000E+02 0. -1.
    -200000    1    3    3    0    0  0.35687215841E+03  0.84373385347E+02 -0.12294448297E+03  0.39974110559E+03  0.10100000000E+03 0. -1.
<mgrwt>
<rscale>  0 0.16197462E+04</rscale>
<asrwt>0</asrwt>
<pdfrwt beam="1">  1        2 0.17608742E+00 0.16197462E+04</pdfrwt>
<pdfrwt beam="2">  1       -2 0.76016788E-01 0.16197462E+04</pdfrwt>
<totfact> 0.30458736E+01</totfact>
</mgrwt>
</event>
<event>
 8    2  0.4480234E-052  0.1379838E+04  0.7818608E-02  0.8968544E-01
          2   -1    0    0  501    0  0.00000000000E+00  0.00000000000E+00  0.31248135153E+03  0.31248135154E+03  0.25500000000E-02 0.  1.
         -2   -1    0    0    0  501 -0.00000000000E+00 -0.00000000000E+00 -0.15232526186E+04  0.15232526186E+04  0.25500000000E-02 0. -1.
    -200001    2    1    2    0    0  0.12080603076E+03 -0.27042296096E+03 -0.45940194677E+03  0.82180718266E+03  0.61367273191E+03 0.  0.
   -5000001    2    3    3    0    0  0.30655041309E+03 -0.55908990228E+02 -0.34176220123E+03  0.49845392547E+03  0.18589228782E+03 0.  0.
     200001    1    1    2    0    0 -0.12080603076E+03  0.27042296096E+03 -0.75136932027E+03  0.10139267875E+04  0.61300000000E+03 0.  1.
         13    1    4    4    0    0  0.87027105855E+02  0.56459971850E+02 -0.49709923727E+02  0.11503274862E+03  0.10566000000E+00 0.  1.
    -200003    1    4    4    0    0  0.21952330723E+03 -0.11236896208E+03 -0.29205227751E+03  0.38342117684E+03  0.30000000000E+02 0.  1.
    -200000    1    3    3    0    0 -0.18574438233E+03 -0.21451397073E+03 -0.11763974554E+03  0.32335325719E+03  0.10100000000E+03 0.  1.
<mgrwt>
<rscale>  0 0.13798377E+04</rscale>
<asrwt>0</asrwt>
<pdfrwt beam="1">  1        2 0.44640194E-01 0.13798377E+04</pdfrwt>
<pdfrwt beam="2">  1       -2 0.21760751E+00 0.13798377E+04</pdfrwt>
<totfact> 0.11384556E+01</totfact>
</mgrwt>
</event>
<event>
 8    2  0.4480234E-052  0.1697597E+04  0.7818608E-02  0.8762736E-01
          2   -1    0    0  501    0  0.00000000000E+00  0.00000000000E+00  0.57084788932E+03  0.57084788932E+03  0.25500000000E-02 0.  1.
         -2   -1    0    0    0  501 -0.00000000000E+00 -0.00000000000E+00 -0.12620850849E+04  0.12620850849E+04  0.25500000000E-02 0. -1.
    -200001    2    1    2    0    0 -0.51364694474E+03 -0.13253207284E+03 -0.72955471458E+02  0.81340405135E+03  0.61229544810E+03 0.  0.
   -5000001    2    3    3    0    0 -0.43981902702E+03  0.14885258565E+03  0.62394138076E+02  0.47702865946E+03  0.89807820955E+02 0.  0.
     200001    1    1    2    0    0  0.51364694474E+03  0.13253207284E+03 -0.61828172410E+03  0.10195289229E+04  0.61300000000E+03 0. -1.
         13    1    4    4    0    0 -0.22063453332E+02  0.37655021945E+01  0.22902386298E+02  0.32023513890E+02  0.10566000000E+00 0.  1.
    -200003    1    4    4    0    0 -0.41775557368E+03  0.14508708345E+03  0.39491751778E+02  0.44500514557E+03  0.30000000000E+02 0.  1.
    -200000    1    3    3    0    0 -0.73827917726E+02 -0.28138465848E+03 -0.13534960953E+03  0.33637539189E+03  0.10100000000E+03 0. -1.
<mgrwt>
<rscale>  0 0.16975967E+04</rscale>
<asrwt>0</asrwt>
<pdfrwt beam="1">  1        2 0.81549699E-01 0.16975967E+04</pdfrwt>
<pdfrwt beam="2">  1       -2 0.18029787E+00 0.16975967E+04</pdfrwt>
<totfact> 0.99029216E+00</totfact>
</mgrwt>
</event>
<event>
 8    2  0.4480234E-052  0.1450110E+04  0.7818608E-02  0.8918324E-01
         -2   -1    0    0    0  501 -0.00000000000E+00  0.00000000000E+00  0.13691993665E+04  0.13691993665E+04  0.25500000000E-02 0. -1.
          2   -1    0    0  501    0  0.00000000000E+00 -0.00000000000E+00 -0.38395037378E+03  0.38395037379E+03  0.25500000000E-02 0.  1.
    -200001    2    1    2    0    0 -0.10053295640E+03 -0.63204678409E+02  0.47816258764E+02  0.62680572650E+03  0.61359377236E+03 0.  0.
   -5000001    2    3    3    0    0  0.71562038359E+02  0.15867042030E+03 -0.15589591790E+03  0.26549575215E+03  0.12604376058E+03 0.  0.
     200001    1    1    2    0    0  0.10053295640E+03  0.63204678409E+02  0.93743273392E+03  0.11263440138E+04  0.61300000000E+03 0. -1.
         13    1    4    4    0    0  0.51021118595E+02  0.16921675930E+03 -0.13366659526E+03  0.22159475631E+03  0.10566000000E+00 0.  1.
    -200003    1    4    4    0    0  0.20540919765E+02 -0.10546339002E+02 -0.22229322635E+02  0.43900995842E+02  0.30000000000E+02 0.  1.
    -200000    1    3    3    0    0 -0.17209499476E+03 -0.22187509871E+03  0.20371217666E+03  0.36130997435E+03  0.10100000000E+03 0.  1.
<mgrwt>
<rscale>  0 0.14501098E+04</rscale>
<asrwt>0</asrwt>
<pdfrwt beam="1">  1        2 0.54850053E-01 0.14501098E+04</pdfrwt>
<pdfrwt beam="2">  1       -2 0.19559991E+00 0.14501098E+04</pdfrwt>
<totfact> 0.12497429E+01</totfact>
</mgrwt>
</event>
<event>
 8    2  0.4480234E-052  0.1781991E+04  0.7818608E-02  0.8715935E-01
          2   -1    0    0  501    0  0.00000000000E+00  0.00000000000E+00  0.13011947675E+04  0.13011947675E+04  0.25500000000E-02 0.  1.
         -2   -1    0    0    0  501 -0.00000000000E+00 -0.00000000000E+00 -0.61011099933E+03  0.61011099934E+03  0.25500000000E-02 0. -1.
    -200001    2    1    2    0    0  0.63455003220E+03 -0.10613833380E+03  0.42753703918E+03  0.98440503448E+03  0.61020182135E+03 0.  0.
   -5000001    2    3    3    0    0  0.21533604876E+03 -0.30308892990E+03  0.63872052183E+02  0.38692438711E+03  0.86013539469E+02 0.  0.
     200001    1    1    2    0    0 -0.63455003220E+03  0.10613833380E+03  0.26354672897E+03  0.92690073234E+03  0.61300000000E+03 0.  1.
         13    1    4    4    0    0  0.43266305910E+02 -0.12255751570E+03  0.30701864164E+02  0.13354749533E+03  0.10566000000E+00 0.  1.
    -200003    1    4    4    0    0  0.17206974285E+03 -0.18053141419E+03  0.33170188019E+02  0.25337689178E+03  0.30000000000E+02 0.  1.
    -200000    1    3    3    0    0  0.41921398343E+03  0.19695059610E+03  0.36366498700E+03  0.59748064737E+03  0.10100000000E+03 0.  1.
<mgrwt>
<rscale>  0 0.17819913E+04</rscale>
<asrwt>0</asrwt>
<pdfrwt beam="1">  1        2 0.18588496E+00 0.17819913E+04</pdfrwt>
<pdfrwt beam="2">  1       -2 0.87158715E-01 0.17819913E+04</pdfrwt>
<totfact> 0.20226964E+01</totfact>
</mgrwt>
</event>
<event>
 8    2  0.4480234E-052  0.1376610E+04  0.7818608E-02  0.8970926E-01
         -2   -1    0    0    0  501 -0.00000000000E+00  0.00000000000E+00  0.30096369410E+03  0.30096369411E+03  0.25500000000E-02 0. -1.
          2   -1    0    0  501    0  0.00000000000E+00 -0.00000000000E+00 -0.15741560742E+04  0.15741560742E+04  0.25500000000E-02 0.  1.
    -200001    2    1    2    0    0  0.10529039337E+02 -0.52752291251E+02 -0.21825250117E+03  0.65382504015E+03  0.61397016536E+03 0.  0.
   -5000001    2    3    3    0    0  0.11918941046E+03  0.20536692696E+03 -0.25133152071E+03  0.35427900263E+03  0.77229451317E+02 0.  0.
     200001    1    1    2    0    0 -0.10529039337E+02  0.52752291251E+02 -0.10549398789E+04  0.12212947281E+04  0.61300000000E+03 0.  1.
         13    1    4    4    0    0  0.58240672103E+02  0.15009166931E+03 -0.17845004234E+03  0.24034124460E+03  0.10566000000E+00 0.  1.
    -200003    1    4    4    0    0  0.60948738353E+02  0.55275257648E+02 -0.72881478369E+02  0.11393775803E+03  0.30000000000E+02 0.  1.
    -200000    1    3    3    0    0 -0.10866037112E+03 -0.25811921821E+03  0.33079019535E+02  0.29954603752E+03  0.10100000000E+03 0. -1.
<mgrwt>
<rscale>  0 0.13766101E+04</rscale>
<asrwt>0</asrwt>
<pdfrwt beam="1">  1        2 0.22487943E+00 0.13766101E+04</pdfrwt>
<pdfrwt beam="2">  1       -2 0.42994814E-01 0.13766101E+04</pdfrwt>
<totfact> 0.66798556E+01</totfact>
</mgrwt>
</event>
<event>
 8    2  0.4480234E-052  0.1335570E+04  0.7818608E-02  0.9001824E-01
          2   -1    0    0  501    0  0.00000000000E+00  0.00000000000E+00  0.20167113869E+04  0.20167113869E+04  0.25500000000E-02 0.  1.
         -2   -1    0    0    0  501 -0.00000000000E+00 -0.00000000000E+00 -0.22112087227E+03  0.22112087228E+03  0.25500000000E-02 0. -1.
    -200001    2    1    2    0    0  0.17545603746E+03 -0.26888017281E+02  0.56759118831E+03  0.85390338384E+03  0.61276704002E+03 0.  0.
   -5000001    2    3    3    0    0  0.15762227275E+03  0.24891874446E+03  0.43441676325E+03  0.53091137082E+03  0.79646953848E+02 0.  0.
     200001    1    1    2    0    0 -0.17545603746E+03  0.26888017281E+02  0.12279993264E+04  0.13839288754E+04  0.61300000000E+03 0.  1.
         13    1    4    4    0    0 -0.49988547980E+01  0.30551858625E+01  0.10791877615E+01  0.59580634611E+01  0.10566000000E+00 0.  1.
    -200003    1    4    4    0    0  0.16262112754E+03  0.24586355860E+03  0.43333757549E+03  0.52495330736E+03  0.30000000000E+02 0.  1.
    -200000    1    3    3    0    0  0.17833764710E+02 -0.27580676175E+03  0.13317442505E+03  0.32299201302E+03  0.10100000000E+03 0.  1.
<mgrwt>
<rscale>  0 0.13355703E+04</rscale>
<asrwt>0</asrwt>
<pdfrwt beam="1">  1        2 0.28810164E+00 0.13355703E+04</pdfrwt>
<pdfrwt beam="2">  1       -2 0.31588695E-01 0.13355703E+04</pdfrwt>
<totfact> 0.71645517E+01</totfact>
</mgrwt>
</event>
<event>
 8    2  0.4480234E-052  0.1307495E+04  0.7818608E-02  0.9023642E-01
         -2   -1    0    0    0  501 -0.00000000000E+00  0.00000000000E+00  0.77762443628E+03  0.77762443628E+03  0.25500000000E-02 0. -1.
          2   -1    0    0  501    0  0.00000000000E+00 -0.00000000000E+00 -0.54960465331E+03  0.54960465332E+03  0.25500000000E-02 0.  1.
    -200001    2    1    2    0    0 -0.36313501468E+02 -0.20678145862E+03  0.19965025719E+03  0.67865290132E+03  0.61370375040E+03 0.  0.
   -5000001    2    3    3    0    0 -0.29754321710E+03 -0.18290004094E+03  0.70343219920E+02  0.36924605536E+03  0.97005617344E+02 0.  0.
     200001    1    1    2    0    0  0.36313501468E+02  0.20678145862E+03  0.28369525776E+02  0.64857618828E+03  0.61300000000E+03 0.  1.
         13    1    4    4    0    0 -0.17496000108E+03 -0.72389492268E+02  0.55667025469E+01  0.18942608033E+03  0.10566000000E+00 0.  1.
    -200003    1    4    4    0    0 -0.12258321601E+03 -0.11051054867E+03  0.64776517373E+02  0.17981997503E+03  0.30000000000E+02 0. -1.
    -200000    1    3    3    0    0  0.26122971563E+03 -0.23881417674E+02  0.12930703727E+03  0.30940684596E+03  0.10100000000E+03 0. -1.
<mgrwt>
<rscale>  0 0.13074953E+04</rscale>
<asrwt>0</asrwt>
<pdfrwt beam="1">  1        2 0.78514951E-01 0.13074953E+04</pdfrwt>
<pdfrwt beam="2">  1       -2 0.11108921E+00 0.13074953E+04</pdfrwt>
<totfact> 0.37868095E+01</totfact>
</mgrwt>
</event>
<event>
 8    2  0.4480234E-052  0.1420228E+04  0.7818608E-02  0.8939305E-01
         -2   -1    0    0    0  501 -0.00000000000E+00  0.00000000000E+00  0.38164752734E+03  0.38164752735E+03  0.25500000000E-02 0. -1.
          2   -1    0    0  501    0  0.00000000000E+00 -0.00000000000E+00 -0.13212768012E+04  0.13212768012E+04  0.25500000000E-02 0.  1.
    -200001    2    1    2    0    0  0.26148300873E+03 -0.92127840778E+02 -0.74185206747E+03  0.10016784898E+04  0.61331427839E+03 0.  0.
   -5000001    2    3    3    0    0  0.32781208434E+03  0.16131703529E+03 -0.52242036004E+03  0.64532876596E+03  0.10021095290E+03 0.  0.
     200001    1    1    2    0    0 -0.26148300873E+03  0.92127840778E+02 -0.19777720634E+03  0.70124583867E+03  0.61300000000E+03 0. -1.
         13    1    4    4    0    0  0.99731825907E+02  0.33855056507E+01 -0.13472064343E+03  0.16765309922E+03  0.10566000000E+00 0.  1.
    -200003    1    4    4    0    0  0.22808025844E+03  0.15793152964E+03 -0.38769971661E+03  0.47767566675E+03  0.30000000000E+02 0.  1.
    -200000    1    3    3    0    0 -0.66329075611E+02 -0.25344487606E+03 -0.21943170743E+03  0.35634972387E+03  0.10100000000E+03 0. -1.
<mgrwt>
<rscale>  0 0.14202282E+04</rscale>
<asrwt>0</asrwt>
<pdfrwt beam="1">  1        2 0.18875383E+00 0.14202282E+04</pdfrwt>
<pdfrwt beam="2">  1       -2 0.54521076E-01 0.14202282E+04</pdfrwt>
<totfact> 0.56279668E+01</totfact>
</mgrwt>
</event>
<event>
 8    2  0.4480234E-052  0.1274635E+04  0.7818608E-02  0.9049925E-01
          2   -1    0    0  501    0  0.00000000000E+00  0.00000000000E+00  0.35093274803E+04  0.35093274803E+04  0.25500000000E-02 0.  1.
         -2   -1    0    0    0  501 -0.00000000000E+00 -0.00000000000E+00 -0.11574118596E+03  0.11574118599E+03  0.25500000000E-02 0. -1.
    -200001    2    1    2    0    0 -0.15725259614E+03 -0.40913724683E+01  0.14894629103E+04  0.16185293620E+04  0.61350828516E+03 0.  0.
   -5000001    2    3    3    0    0 -0.66868655208E+02  0.10647383155E+03  0.43584818279E+02  0.16210964973E+03  0.92584060702E+02 0.  0.
     200001    1    1    2    0    0  0.15725259614E+03  0.40913724683E+01  0.19041233840E+04  0.20065393044E+04  0.61300000000E+03 0.  1.
         13    1    4    4    0    0 -0.19419028914E+02  0.93432499465E+02  0.11423763954E+02  0.96110583117E+02  0.10566000000E+00 0.  1.
    -200003    1    4    4    0    0 -0.47449626294E+02  0.13041332083E+02  0.32161054326E+02  0.65999066609E+02  0.30000000000E+02 0.  1.
    -200000    1    3    3    0    0 -0.90383940930E+02 -0.11056520402E+03  0.14458780921E+04  0.14564197122E+04  0.10100000000E+03 0.  1.
<mgrwt>
<rscale>  0 0.12746352E+04</rscale>
<asrwt>0</asrwt>
<pdfrwt beam="1">  1        2 0.50133252E+00 0.12746352E+04</pdfrwt>
<pdfrwt beam="2">  1       -2 0.16534454E-01 0.12746352E+04</pdfrwt>
<totfact> 0.35287956E+01</totfact>
</mgrwt>
</event>
<event>
 8    2  0.4480234E-052  0.1517073E+04  0.7818608E-02  0.8873178E-01
         -2   -1    0    0    0  501 -0.00000000000E+00  0.00000000000E+00  0.55309128984E+03  0.55309128985E+03  0.25500000000E-02 0. -1.
          2   -1    0    0  501    0  0.00000000000E+00 -0.00000000000E+00 -0.10402940830E+04  0.10402940830E+04  0.25500000000E-02 0.  1.
    -200001    2    1    2    0    0 -0.15602595825E+03 -0.37016379693E+02  0.19445601415E+03  0.66271784813E+03  0.61291719896E+03 0.  0.
   -5000001    2    3    3    0    0 -0.24075063606E+03  0.16820780726E+03 -0.65428708852E+02  0.30629631793E+03  0.57286850566E+02 0.  0.
     200001    1    1    2    0    0  0.15602595825E+03  0.37016379693E+02 -0.68165880732E+03  0.93066752474E+03  0.61300000000E+03 0.  1.
         13    1    4    4    0    0 -0.16605929119E+03  0.10532874684E+03 -0.50909394009E+02  0.20312954158E+03  0.10566000000E+00 0.  1.
    -200003    1    4    4    0    0 -0.74691344870E+02  0.62879060426E+02 -0.14519314842E+02  0.10316677635E+03  0.30000000000E+02 0.  1.
    -200000    1    3    3    0    0  0.84724677813E+02 -0.20522418696E+03  0.25988472300E+03  0.35642153020E+03  0.10100000000E+03 0. -1.
<mgrwt>
<rscale>  0 0.15170730E+04</rscale>
<asrwt>0</asrwt>
<pdfrwt beam="1">  1        2 0.14861344E+00 0.15170730E+04</pdfrwt>
<pdfrwt beam="2">  1       -2 0.79013041E-01 0.15170730E+04</pdfrwt>
<totfact> 0.36467635E+01</totfact>
</mgrwt>
</event>
<event>
 8    2  0.4480234E-052  0.1329350E+04  0.7818608E-02  0.9006609E-01
          2   -1    0    0  501    0  0.00000000000E+00  0.00000000000E+00  0.21547371283E+04  0.21547371283E+04  0.25500000000E-02 0.  1.
         -2   -1    0    0    0  501 -0.00000000000E+00 -0.00000000000E+00 -0.20503322292E+03  0.20503322294E+03  0.25500000000E-02 0. -1.
    -200001    2    1    2    0    0 -0.75502705430E+02 -0.16919253436E+03  0.66257112364E+03  0.92213111623E+03  0.61400205979E+03 0.  0.
   -5000001    2    3    3    0    0 -0.70036168610E+02 -0.22149501736E+02  0.72502505456E+03  0.73304639988E+03  0.79372723917E+02 0.  0.
     200001    1    1    2    0    0  0.75502705430E+02  0.16919253436E+03  0.12871327817E+04  0.14376392350E+04  0.61300000000E+03 0.  1.
         13    1    4    4    0    0  0.13388325575E+01  0.17640010997E+02  0.67319905682E+02  0.69605627112E+02  0.10566000000E+00 0.  1.
    -200003    1    4    4    0    0 -0.71375001167E+02 -0.39789512733E+02  0.65770514888E+03  0.66344077277E+03  0.30000000000E+02 0.  1.
    -200000    1    3    3    0    0 -0.54665368207E+01 -0.14704303262E+03 -0.62453930921E+02  0.18908471634E+03  0.10100000000E+03 0. -1.
<mgrwt>
<rscale>  0 0.13293498E+04</rscale>
<asrwt>0</asrwt>
<pdfrwt beam="1">  1        2 0.30781958E+00 0.13293498E+04</pdfrwt>
<pdfrwt beam="2">  1       -2 0.29290462E-01 0.13293498E+04</pdfrwt>
<totfact> 0.70108823E+01</totfact>
</mgrwt>
</event>
<event>
 8    2  0.4480234E-052  0.1372973E+04  0.7818608E-02  0.8973618E-01
          2   -1    0    0  501    0  0.00000000000E+00  0.00000000000E+00  0.60369649775E+03  0.60369649775E+03  0.25500000000E-02 0.  1.
         -2   -1    0    0    0  501 -0.00000000000E+00 -0.00000000000E+00 -0.78063001004E+03  0.78063001005E+03  0.25500000000E-02 0. -1.
    -200001    2    1    2    0    0  0.32085887866E+02  0.13739705503E+03 -0.36731468509E+03  0.72711919965E+03  0.61145302165E+03 0.  0.
   -5000001    2    3    3    0    0  0.51937581599E+02  0.30786138717E+03 -0.14138996396E+02  0.32167346300E+03  0.76143019947E+02 0.  0.
     200001    1    1    2    0    0 -0.32085887866E+02 -0.13739705503E+03  0.19038117280E+03  0.65720730815E+03  0.61300000000E+03 0.  1.
         13    1    4    4    0    0  0.46188952626E+01  0.17983769957E+03  0.85347578584E+01  0.18009937711E+03  0.10566000000E+00 0.  1.
    -200003    1    4    4    0    0  0.47318686336E+02  0.12802368760E+03 -0.22673754255E+02  0.14157408589E+03  0.30000000000E+02 0. -1.
    -200000    1    3    3    0    0 -0.19851693732E+02 -0.17046433214E+03 -0.35317568870E+03  0.40544573665E+03  0.10100000000E+03 0. -1.
<mgrwt>
<rscale>  0 0.13729728E+04</rscale>
<asrwt>0</asrwt>
<pdfrwt beam="1">  1        2 0.86242358E-01 0.13729728E+04</pdfrwt>
<pdfrwt beam="2">  1       -2 0.11151857E+00 0.13729728E+04</pdfrwt>
<totfact> 0.33436948E+01</totfact>
</mgrwt>
</event>
<event>
 8    2  0.4480234E-052  0.1243687E+04  0.7818608E-02  0.9075454E-01
         -2   -1    0    0    0  501 -0.00000000000E+00  0.00000000000E+00  0.14715963001E+04  0.14715963001E+04  0.25500000000E-02 0. -1.
          2   -1    0    0  501    0  0.00000000000E+00 -0.00000000000E+00 -0.26276871188E+03  0.26276871189E+03  0.25500000000E-02 0.  1.
    -200001    2    1    2    0    0 -0.52500265979E+02  0.17012026492E+02  0.73954037093E+03  0.96038492226E+03  0.61022418151E+03 0.  0.
   -5000001    2    3    3    0    0  0.24479188572E+03 -0.66760848511E+02  0.33418857286E+03  0.44085475158E+03  0.13524360078E+03 0.  0.
     200001    1    1    2    0    0  0.52500265979E+02 -0.17012026492E+02  0.46928721728E+03  0.77398008972E+03  0.61300000000E+03 0.  1.
         13    1    4    4    0    0  0.24328465344E+03 -0.69104501355E+02  0.27001718332E+03  0.36996235641E+03  0.10566000000E+00 0.  1.
    -200003    1    4    4    0    0  0.15072322832E+01  0.23436528446E+01  0.64171389539E+02  0.70892395171E+02  0.30000000000E+02 0. -1.
    -200000    1    3    3    0    0 -0.29729215170E+03  0.83772875002E+02  0.40535179807E+03  0.51953017068E+03  0.10100000000E+03 0. -1.
<mgrwt>
<rscale>  0 0.12436872E+04</rscale>
<asrwt>0</asrwt>
<pdfrwt beam="1">  1        2 0.37538387E-01 0.12436872E+04</pdfrwt>
<pdfrwt beam="2">  1       -2 0.21022805E+00 0.12436872E+04</pdfrwt>
<totfact> 0.15545735E+01</totfact>
</mgrwt>
</event>
<event>
 8    2  0.4480234E-052  0.1250907E+04  0.7818608E-02  0.9069429E-01
          2   -1    0    0  501    0  0.00000000000E+00  0.00000000000E+00  0.24423106806E+04  0.24423106806E+04  0.25500000000E-02 0.  1.
         -2   -1    0    0    0  501 -0.00000000000E+00 -0.00000000000E+00 -0.16017287053E+03  0.16017287055E+03  0.25500000000E-02 0. -1.
    -200001    2    1    2    0    0  0.12098665468E+03  0.27367096199E+02  0.11090819806E+04  0.12731168946E+04  0.61268022573E+03 0.  0.
   -5000001    2    3    3    0    0  0.14145325042E+03  0.39247912897E+02  0.23510780932E+02  0.18260056508E+03  0.10602258639E+03 0.  0.
     200001    1    1    2    0    0 -0.12098665468E+03 -0.27367096199E+02  0.11730558295E+04  0.13293666566E+04  0.61300000000E+03 0.  1.
         13    1    4    4    0    0  0.13431380006E+03  0.53843217280E+01  0.25223342623E+02  0.13676774468E+03  0.10566000000E+00 0.  1.
    -200003    1    4    4    0    0  0.71394503605E+01  0.33863591170E+02 -0.17125616911E+01  0.45832820401E+02  0.30000000000E+02 0.  1.
    -200000    1    3    3    0    0 -0.20466595748E+02 -0.11880816699E+02  0.10855711997E+04  0.10905163295E+04  0.10100000000E+03 0.  1.
<mgrwt>
<rscale>  0 0.12509067E+04</rscale>
<asrwt>0</asrwt>
<pdfrwt beam="1">  1        2 0.34890149E+00 0.12509067E+04</pdfrwt>
<pdfrwt beam="2">  1       -2 0.22881841E-01 0.12509067E+04</pdfrwt>
<totfact> 0.78535679E+01</totfact>
</mgrwt>
</event>
<event>
 8    2  0.4480234E-052  0.1444435E+04  0.7818608E-02  0.8922268E-01
          2   -1    0    0  501    0  0.00000000000E+00  0.00000000000E+00  0.10272197640E+04  0.10272197640E+04  0.25500000000E-02 0.  1.
         -2   -1    0    0    0  501 -0.00000000000E+00 -0.00000000000E+00 -0.50777633845E+03  0.50777633846E+03  0.25500000000E-02 0. -1.
    -200001    2    1    2    0    0 -0.14704458307E+03  0.26148384632E+02 -0.11391281664E+03  0.64100786040E+03  0.61286956188E+03 0.  0.
   -5000001    2    3    3    0    0  0.43340853879E+01 -0.68962195529E+02 -0.31537967254E+03  0.35334239889E+03  0.14356860484E+03 0.  0.
     200001    1    1    2    0    0  0.14704458307E+03 -0.26148384632E+02  0.63335624219E+03  0.89398824207E+03  0.61300000000E+03 0.  1.
         13    1    4    4    0    0  0.56579535623E+02  0.12534474158E+02 -0.11819016598E+03  0.13163313941E+03  0.10566000000E+00 0.  1.
    -200003    1    4    4    0    0 -0.52245450235E+02 -0.81496669687E+02 -0.19718950656E+03  0.22170925947E+03  0.30000000000E+02 0.  1.
    -200000    1    3    3    0    0 -0.15137866846E+03  0.95110580160E+02  0.20146685590E+03  0.28766546152E+03  0.10100000000E+03 0.  1.
<mgrwt>
<rscale>  0 0.14444347E+04</rscale>
<asrwt>0</asrwt>
<pdfrwt beam="1">  1        2 0.14674568E+00 0.14444347E+04</pdfrwt>
<pdfrwt beam="2">  1       -2 0.72539478E-01 0.14444347E+04</pdfrwt>
<totfact> 0.45147465E+01</totfact>
</mgrwt>
</event>
<event>
 8    2  0.4480234E-052  0.1854957E+04  0.7818608E-02  0.8677608E-01
         -2   -1    0    0    0  501 -0.00000000000E+00  0.00000000000E+00  0.29711260023E+03  0.29711260024E+03  0.25500000000E-02 0. -1.
          2   -1    0    0  501    0  0.00000000000E+00 -0.00000000000E+00 -0.28952539617E+04  0.28952539617E+04  0.25500000000E-02 0.  1.
    -200001    2    1    2    0    0  0.29001550919E+03  0.60876889757E+02 -0.21455884590E+03  0.71344550635E+03  0.61249816400E+03 0.  0.
   -5000001    2    3    3    0    0 -0.93631905104E+02 -0.17865472818E+03 -0.22163502481E+02  0.21167095273E+03  0.60240566351E+02 0.  0.
     200001    1    1    2    0    0 -0.29001550919E+03 -0.60876889757E+02 -0.23835825156E+04  0.24789210556E+04  0.61300000000E+03 0.  1.
         13    1    4    4    0    0 -0.22567805936E+02 -0.47367013118E+02  0.15691473165E+02  0.54764708441E+02  0.10566000000E+00 0.  1.
    -200003    1    4    4    0    0 -0.71064099168E+02 -0.13128771506E+03 -0.37854975646E+02  0.15690624429E+03  0.30000000000E+02 0.  1.
    -200000    1    3    3    0    0  0.38364741430E+03  0.23953161794E+03 -0.19239534342E+03  0.50177455362E+03  0.10100000000E+03 0. -1.
<mgrwt>
<rscale>  0 0.18549571E+04</rscale>
<asrwt>0</asrwt>
<pdfrwt beam="1">  1        2 0.41360769E+00 0.18549571E+04</pdfrwt>
<pdfrwt beam="2">  1       -2 0.42444659E-01 0.18549571E+04</pdfrwt>
<totfact> 0.13399830E+01</totfact>
</mgrwt>
</event>
<event>
 8    2  0.4480234E-052  0.1811730E+04  0.7818608E-02  0.8700086E-01
         -2   -1    0    0    0  501 -0.00000000000E+00  0.00000000000E+00  0.40300176351E+03  0.40300176352E+03  0.25500000000E-02 0. -1.
          2   -1    0    0  501    0  0.00000000000E+00 -0.00000000000E+00 -0.20361991336E+04  0.20361991336E+04  0.25500000000E-02 0.  1.
    -200001    2    1    2    0    0 -0.60460934209E+03 -0.14046766333E+03 -0.11454641471E+04  0.14397328797E+04  0.61274711886E+03 0.  0.
   -5000001    2    3    3    0    0 -0.46467737126E+03 -0.35028797770E+03 -0.89170509569E+03  0.10679800358E+04  0.82563021481E+02 0.  0.
     200001    1    1    2    0    0  0.60460934209E+03  0.14046766333E+03 -0.48773322299E+03  0.99946801739E+03  0.61300000000E+03 0.  1.
         13    1    4    4    0    0 -0.25676258290E+03 -0.16439611748E+03 -0.51198095099E+03  0.59588389201E+03  0.10566000000E+00 0.  1.
    -200003    1    4    4    0    0 -0.20791478836E+03 -0.18589186022E+03 -0.37972414470E+03  0.47209614379E+03  0.30000000000E+02 0.  1.
    -200000    1    3    3    0    0 -0.13993197083E+03  0.20982031437E+03 -0.25375905138E+03  0.37175284389E+03  0.10100000000E+03 0. -1.
<mgrwt>
<rscale>  0 0.18117305E+04</rscale>
<asrwt>0</asrwt>
<pdfrwt beam="1">  1        2 0.29088558E+00 0.18117305E+04</pdfrwt>
<pdfrwt beam="2">  1       -2 0.57571682E-01 0.18117305E+04</pdfrwt>
<totfact> 0.20540081E+01</totfact>
</mgrwt>
</event>
<event>
 8    2  0.4480234E-052  0.1324035E+04  0.7818608E-02  0.9010719E-01
         -2   -1    0    0    0  501 -0.00000000000E+00  0.00000000000E+00  0.25355857855E+03  0.25355857856E+03  0.25500000000E-02 0. -1.
          2   -1    0    0  501    0  0.00000000000E+00 -0.00000000000E+00 -0.17284653819E+04  0.17284653819E+04  0.25500000000E-02 0.  1.
    -200001    2    1    2    0    0  0.19844991954E+03  0.93163145952E+02 -0.55548245566E+03  0.85544867516E+03  0.61251117130E+03 0.  0.
   -5000001    2    3    3    0    0  0.30062432710E+03 -0.12048605711E+03 -0.14539447316E+03  0.37123927323E+03  0.10856873014E+03 0.  0.
     200001    1    1    2    0    0 -0.19844991954E+03 -0.93163145952E+02 -0.91942434770E+03  0.11265752853E+04  0.61300000000E+03 0.  1.
         13    1    4    4    0    0  0.40919079444E+02 -0.79874061435E+01 -0.61907259951E+02  0.74637053252E+02  0.10566000000E+00 0.  1.
    -200003    1    4    4    0    0  0.25970524765E+03 -0.11249865097E+03 -0.83487213209E+02  0.29660221998E+03  0.30000000000E+02 0.  1.
    -200000    1    3    3    0    0 -0.10217440756E+03  0.21364920306E+03 -0.41008798250E+03  0.48420940193E+03  0.10100000000E+03 0.  1.
<mgrwt>
<rscale>  0 0.13240351E+04</rscale>
<asrwt>0</asrwt>
<pdfrwt beam="1">  1        2 0.24692362E+00 0.13240351E+04</pdfrwt>
<pdfrwt beam="2">  1       -2 0.36222655E-01 0.13240351E+04</pdfrwt>
<totfact> 0.77808909E+01</totfact>
</mgrwt>
</event>
<event>
 8    2  0.4480234E-052  0.1995623E+04  0.7818608E-02  0.8608670E-01
          2   -1    0    0  501    0  0.00000000000E+00  0.00000000000E+00  0.12960773056E+04  0.12960773056E+04  0.25500000000E-02 0.  1.
         -2   -1    0    0    0  501 -0.00000000000E+00 -0.00000000000E+00 -0.76818552382E+03  0.76818552383E+03  0.25500000000E-02 0. -1.
    -200001    2    1    2    0    0  0.16849721662E+03  0.57834277920E+03 -0.25944131961E+03  0.89870112159E+03  0.61439582141E+03 0.  0.
   -5000001    2    3    3    0    0 -0.14591538187E+03  0.41601768368E+03 -0.28369099902E+03  0.52992779599E+03  0.77336112074E+02 0.  0.
     200001    1    1    2    0    0 -0.16849721662E+03 -0.57834277920E+03  0.78733310137E+03  0.11655617078E+04  0.61300000000E+03 0.  1.
         13    1    4    4    0    0 -0.73147950444E+02  0.13788317798E+03 -0.73473619442E+02  0.17251312223E+03  0.10566000000E+00 0.  1.
    -200003    1    4    4    0    0 -0.72767431426E+02  0.27813450571E+03 -0.21021737958E+03  0.35741467376E+03  0.30000000000E+02 0.  1.
    -200000    1    3    3    0    0  0.31441259849E+03  0.16232509551E+03  0.24249679414E+02  0.36877332560E+03  0.10100000000E+03 0.  1.
<mgrwt>
<rscale>  0 0.19956230E+04</rscale>
<asrwt>0</asrwt>
<pdfrwt beam="1">  1        2 0.18515390E+00 0.19956230E+04</pdfrwt>
<pdfrwt beam="2">  1       -2 0.10974079E+00 0.19956230E+04</pdfrwt>
<totfact> 0.11635389E+01</totfact>
</mgrwt>
</event>
<event>
 8    2  0.4480234E-052  0.1367761E+04  0.7818608E-02  0.8977491E-01
         -2   -1    0    0    0  501 -0.00000000000E+00  0.00000000000E+00  0.26225048686E+03  0.26225048688E+03  0.25500000000E-02 0. -1.
          2   -1    0    0  501    0  0.00000000000E+00 -0.00000000000E+00 -0.17833816389E+04  0.17833816389E+04  0.25500000000E-02 0.  1.
    -200001    2    1    2    0    0  0.20364387535E+02  0.20442413167E+03 -0.10941532030E+04  0.12708527360E+04  0.61293679200E+03 0.  0.
   -5000001    2    3    3    0    0 -0.13307380087E+03 -0.64552369805E+02 -0.41119978931E+02  0.16859523111E+03  0.69698309591E+02 0.  0.
     200001    1    1    2    0    0 -0.20364387535E+02 -0.20442413167E+03 -0.42697794899E+03  0.77477938977E+03  0.61300000000E+03 0. -1.
         13    1    4    4    0    0 -0.98015522468E+02 -0.21758165039E+02 -0.29011345618E+02  0.10450899353E+03  0.10566000000E+00 0.  1.
    -200003    1    4    4    0    0 -0.35058278404E+02 -0.42794204766E+02 -0.12108633313E+02  0.64086237578E+02  0.30000000000E+02 0. -1.
    -200000    1    3    3    0    0  0.15343818841E+03  0.26897650147E+03 -0.10530332241E+04  0.11022575049E+04  0.10100000000E+03 0.  1.
<mgrwt>
<rscale>  0 0.13677612E+04</rscale>
<asrwt>0</asrwt>
<pdfrwt beam="1">  1        2 0.25476880E+00 0.13677612E+04</pdfrwt>
<pdfrwt beam="2">  1       -2 0.37464356E-01 0.13677612E+04</pdfrwt>
<totfact> 0.68082329E+01</totfact>
</mgrwt>
</event>
<event>
 8    2  0.4480234E-052  0.1983166E+04  0.7818608E-02  0.8614532E-01
          2   -1    0    0  501    0  0.00000000000E+00  0.00000000000E+00  0.22289153738E+04  0.22289153738E+04  0.25500000000E-02 0.  1.
         -2   -1    0    0    0  501 -0.00000000000E+00 -0.00000000000E+00 -0.44112807932E+03  0.44112807932E+03  0.25500000000E-02 0. -1.
    -200001    2    1    2    0    0  0.32231033549E+03  0.37359760553E+03  0.17060882680E+04  0.18789032290E+04  0.61325446809E+03 0.  0.
   -5000001    2    3    3    0    0 -0.28089958533E+02  0.30681548994E+03  0.12519080189E+04  0.12926260627E+04  0.93186156313E+02 0.  0.
     200001    1    1    2    0    0 -0.32231033549E+03 -0.37359760553E+03  0.81699026462E+02  0.79114022407E+03  0.61300000000E+03 0. -1.
         13    1    4    4    0    0 -0.51335855535E+00  0.37460651556E+01 -0.13042070520E+00  0.37848004904E+01  0.10566000000E+00 0.  1.
    -200003    1    4    4    0    0 -0.27576599978E+02  0.30306942479E+03  0.12520384396E+04  0.12888412623E+04  0.30000000000E+02 0.  1.
    -200000    1    3    3    0    0  0.35040029402E+03  0.66782115580E+02  0.45418024913E+03  0.58627716629E+03  0.10100000000E+03 0. -1.
<mgrwt>
<rscale>  0 0.19831663E+04</rscale>
<asrwt>0</asrwt>
<pdfrwt beam="1">  1        2 0.31841648E+00 0.19831663E+04</pdfrwt>
<pdfrwt beam="2">  1       -2 0.63018298E-01 0.19831663E+04</pdfrwt>
<totfact> 0.13309017E+01</totfact>
</mgrwt>
</event>
<event>
 8    2  0.4480234E-052  0.2975183E+04  0.7818608E-02  0.8250853E-01
         -2   -1    0    0    0  501 -0.00000000000E+00  0.00000000000E+00  0.99738101516E+03  0.99738101517E+03  0.25500000000E-02 0. -1.
          2   -1    0    0  501    0  0.00000000000E+00 -0.00000000000E+00 -0.22187386524E+04  0.22187386524E+04  0.25500000000E-02 0.  1.
    -200001    2    1    2    0    0 -0.45529842603E+03 -0.12728765884E+04 -0.50383144335E+03  0.15674461690E+04  0.61280494734E+03 0.  0.
   -5000001    2    3    3    0    0 -0.41155523376E+03 -0.82027823106E+03 -0.60079513976E+02  0.92411459453E+03  0.90244939130E+02 0.  0.
     200001    1    1    2    0    0  0.45529842603E+03  0.12728765884E+04 -0.71752619392E+03  0.16486734986E+04  0.61300000000E+03 0. -1.
         13    1    4    4    0    0 -0.28105018755E+03 -0.51649181954E+03 -0.79867334755E+01  0.58806190716E+03  0.10566000000E+00 0.  1.
    -200003    1    4    4    0    0 -0.13050504621E+03 -0.30378641152E+03 -0.52092780501E+02  0.33605268737E+03  0.30000000000E+02 0. -1.
    -200000    1    3    3    0    0 -0.43743192276E+02 -0.45259835732E+03 -0.44375192937E+03  0.64333157449E+03  0.10100000000E+03 0. -1.
<mgrwt>
<rscale>  0 0.29751826E+04</rscale>
<asrwt>0</asrwt>
<pdfrwt beam="1">  1        2 0.31696266E+00 0.29751826E+04</pdfrwt>
<pdfrwt beam="2">  1       -2 0.14248300E+00 0.29751826E+04</pdfrwt>
<totfact> 0.18342758E+00</totfact>
</mgrwt>
</event>
<event>
 8    2  0.4480234E-052  0.1958900E+04  0.7818608E-02  0.8626081E-01
         -2   -1    0    0    0  501 -0.00000000000E+00  0.00000000000E+00  0.12430256316E+04  0.12430256316E+04  0.25500000000E-02 0. -1.
          2   -1    0    0  501    0  0.00000000000E+00 -0.00000000000E+00 -0.77176354101E+03  0.77176354102E+03  0.25500000000E-02 0.  1.
    -200001    2    1    2    0    0 -0.50111511827E+03 -0.31330639688E+03 -0.26253519898E+03  0.89073191327E+03  0.61253681565E+03 0.  0.
   -5000001    2    3    3    0    0 -0.37605853240E+03  0.39528205236E+02  0.36670275701E+02  0.40098062721E+03  0.12828973254E+03 0.  0.
     200001    1    1    2    0    0  0.50111511827E+03  0.31330639688E+03  0.73379728954E+03  0.11240572593E+04  0.61300000000E+03 0. -1.
         13    1    4    4    0    0 -0.15185102776E+02  0.20321107155E+02 -0.22072166466E+02  0.33626276019E+02  0.10566000000E+00 0.  1.
    -200003    1    4    4    0    0 -0.36087342962E+03  0.19207098081E+02  0.58742442166E+02  0.36735435119E+03  0.30000000000E+02 0.  1.
    -200000    1    3    3    0    0 -0.12505658587E+03 -0.35283460212E+03 -0.29920547469E+03  0.48975128607E+03  0.10100000000E+03 0. -1.
<mgrwt>
<rscale>  0 0.19588996E+04</rscale>
<asrwt>0</asrwt>
<pdfrwt beam="1">  1        2 0.11025194E+00 0.19588996E+04</pdfrwt>
<pdfrwt beam="2">  1       -2 0.17757509E+00 0.19588996E+04</pdfrwt>
<totfact> 0.70158465E+00</totfact>
</mgrwt>
</event>
<event>
 8    2  0.4480234E-052  0.1434118E+04  0.7818608E-02  0.8929486E-01
          2   -1    0    0  501    0  0.00000000000E+00  0.00000000000E+00  0.65153374284E+03  0.65153374285E+03  0.25500000000E-02 0.  1.
         -2   -1    0    0    0  501 -0.00000000000E+00 -0.00000000000E+00 -0.78917402675E+03  0.78917402675E+03  0.25500000000E-02 0. -1.
    -200001    2    1    2    0    0  0.22144807766E+03 -0.28429344125E+03 -0.16437743507E+03  0.72912791667E+03  0.61216465586E+03 0.  0.
   -5000001    2    3    3    0    0 -0.88670277926E+02 -0.23690477019E+03  0.89954889700E+02  0.31282873095E+03  0.16057286321E+03 0.  0.
     200001    1    1    2    0    0 -0.22144807766E+03  0.28429344125E+03  0.26737151167E+02  0.71157985292E+03  0.61300000000E+03 0. -1.
         13    1    4    4    0    0 -0.77896155173E+02 -0.89508567195E+02 -0.27355483358E+02  0.12176998081E+03  0.10566000000E+00 0.  1.
    -200003    1    4    4    0    0 -0.10774122753E+02 -0.14739620299E+03  0.11731037306E+03  0.19105875014E+03  0.30000000000E+02 0.  1.
    -200000    1    3    3    0    0  0.31011835558E+03 -0.47388671061E+02 -0.25433232477E+03  0.41629918573E+03  0.10100000000E+03 0.  1.
<mgrwt>
<rscale>  0 0.14341179E+04</rscale>
<asrwt>0</asrwt>
<pdfrwt beam="1">  1        2 0.93076249E-01 0.14341179E+04</pdfrwt>
<pdfrwt beam="2">  1       -2 0.11273915E+00 0.14341179E+04</pdfrwt>
<totfact> 0.29585718E+01</totfact>
</mgrwt>
</event>
<event>
 8    2  0.4480234E-052  0.1647167E+04  0.7818608E-02  0.8792084E-01
          2   -1    0    0  501    0  0.00000000000E+00  0.00000000000E+00  0.16450873795E+04  0.16450873795E+04  0.25500000000E-02 0.  1.
         -2   -1    0    0    0  501 -0.00000000000E+00 -0.00000000000E+00 -0.41231235514E+03  0.41231235515E+03  0.25500000000E-02 0. -1.
    -200001    2    1    2    0    0 -0.26422539225E+03  0.42830287645E+03  0.33954708716E+03  0.86287742022E+03  0.61319393836E+03 0.  0.
   -5000001    2    3    3    0    0  0.49242749038E+02  0.42306906204E+03  0.30791587999E+03  0.53198287255E+03  0.82348697286E+02 0.  0.
     200001    1    1    2    0    0  0.26422539225E+03 -0.42830287645E+03  0.89322793721E+03  0.11945223144E+04  0.61300000000E+03 0.  1.
         13    1    4    4    0    0  0.12732189699E+02  0.36652277975E+02  0.58470130751E+01  0.39238971205E+02  0.10566000000E+00 0.  1.
    -200003    1    4    4    0    0  0.36510559340E+02  0.38641678407E+03  0.30206886691E+03  0.49274390134E+03  0.30000000000E+02 0.  1.
    -200000    1    3    3    0    0 -0.31346814129E+03  0.52338144039E+01  0.31631207177E+02  0.33089454768E+03  0.10100000000E+03 0. -1.
<mgrwt>
<rscale>  0 0.16471671E+04</rscale>
<asrwt>0</asrwt>
<pdfrwt beam="1">  1        2 0.23501248E+00 0.16471671E+04</pdfrwt>
<pdfrwt beam="2">  1       -2 0.58901765E-01 0.16471671E+04</pdfrwt>
<totfact> 0.31597182E+01</totfact>
</mgrwt>
</event>
<event>
 8    2  0.4480234E-052  0.1606494E+04  0.7818608E-02  0.8816568E-01
         -2   -1    0    0    0  501 -0.00000000000E+00  0.00000000000E+00  0.24869125738E+03  0.24869125740E+03  0.25500000000E-02 0. -1.
          2   -1    0    0  501    0  0.00000000000E+00 -0.00000000000E+00 -0.25944060654E+04  0.25944060654E+04  0.25500000000E-02 0.  1.
    -200001    2    1    2    0    0 -0.34678855881E+03  0.35977756120E+03 -0.14157611327E+04  0.16223250114E+04  0.61470046333E+03 0.  0.
   -5000001    2    3    3    0    0 -0.29486031687E+03  0.10124925743E+03 -0.20995615621E+03  0.38389856323E+03  0.78118504343E+02 0.  0.
     200001    1    1    2    0    0  0.34678855881E+03 -0.35977756120E+03 -0.92995367530E+03  0.12207723114E+04  0.61300000000E+03 0.  1.
         13    1    4    4    0    0 -0.21478801094E+03  0.97021337417E+02 -0.15824315126E+03  0.28388014310E+03  0.10566000000E+00 0.  1.
    -200003    1    4    4    0    0 -0.80072305932E+02  0.42279200112E+01 -0.51713004944E+02  0.10001842013E+03  0.30000000000E+02 0. -1.
    -200000    1    3    3    0    0 -0.51928241941E+02  0.25852830378E+03 -0.12058049765E+04  0.12384264481E+04  0.10100000000E+03 0.  1.
<mgrwt>
<rscale>  0 0.16064945E+04</rscale>
<asrwt>0</asrwt>
<pdfrwt beam="1">  1        2 0.37062942E+00 0.16064945E+04</pdfrwt>
<pdfrwt beam="2">  1       -2 0.35527324E-01 0.16064945E+04</pdfrwt>
<totfact> 0.28119183E+01</totfact>
</mgrwt>
</event>
<event>
 8    2  0.4480234E-052  0.1411974E+04  0.7818608E-02  0.8945196E-01
          2   -1    0    0  501    0  0.00000000000E+00  0.00000000000E+00  0.36008592587E+04  0.36008592587E+04  0.25500000000E-02 0.  1.
         -2   -1    0    0    0  501 -0.00000000000E+00 -0.00000000000E+00 -0.13841634683E+03  0.13841634686E+03  0.25500000000E-02 0. -1.
    -200001    2    1    2    0    0 -0.16445526978E+03  0.16379942533E+03  0.10383058817E+04  0.12280836319E+04  0.61337958515E+03 0.  0.
   -5000001    2    3    3    0    0  0.12922997400E+03  0.78629899006E+02  0.21817724940E+03  0.34699518904E+03  0.22343075406E+03 0.  0.
     200001    1    1    2    0    0  0.16445526978E+03 -0.16379942533E+03  0.24241370302E+04  0.25111919737E+04  0.61300000000E+03 0.  1.
         13    1    4    4    0    0  0.22126715804E+02 -0.74143442568E+02  0.39280758790E+02  0.86774597684E+02  0.10566000000E+00 0.  1.
    -200003    1    4    4    0    0  0.10710325820E+03  0.15277334157E+03  0.17889649061E+03  0.26022059135E+03  0.30000000000E+02 0.  1.
    -200000    1    3    3    0    0 -0.29368524379E+03  0.85169526324E+02  0.82012863227E+03  0.88108844283E+03  0.10100000000E+03 0.  1.
<mgrwt>
<rscale>  0 0.14119742E+04</rscale>
<asrwt>0</asrwt>
<pdfrwt beam="1">  1        2 0.51440843E+00 0.14119742E+04</pdfrwt>
<pdfrwt beam="2">  1       -2 0.19773765E-01 0.14119742E+04</pdfrwt>
<totfact> 0.22420739E+01</totfact>
</mgrwt>
</event>
<event>
 8    2  0.4480234E-052  0.1407769E+04  0.7818608E-02  0.8948214E-01
          2   -1    0    0  501    0  0.00000000000E+00  0.00000000000E+00  0.13973358413E+04  0.13973358413E+04  0.25500000000E-02 0. -1.
         -2   -1    0    0    0  501 -0.00000000000E+00 -0.00000000000E+00 -0.35456996329E+03  0.35456996330E+03  0.25500000000E-02 0.  1.
    -200001    2    1    2    0    0 -0.33316398662E+03 -0.99686212253E+02  0.53930423690E+03  0.88577751910E+03  0.61058756170E+03 0.  0.
   -5000001    2    3    3    0    0  0.75022617077E+02 -0.99982233279E+02  0.93233978161E+02  0.27275544217E+03  0.22378140339E+03 0.  0.
     200001    1    1    2    0    0  0.33316398662E+03  0.99686212253E+02  0.50346164112E+03  0.86612828552E+03  0.61300000000E+03 0. -1.
         13    1    4    4    0    0  0.11412350746E+03  0.11199202716E+02 -0.73896741980E+01  0.11490959727E+03  0.10566000000E+00 0.  1.
    -200003    1    4    4    0    0 -0.39100890378E+02 -0.11118143600E+03  0.10062365236E+03  0.15784584490E+03  0.30000000000E+02 0.  1.
    -200000    1    3    3    0    0 -0.40818660370E+03  0.29602102683E+00  0.44607025874E+03  0.61302207693E+03  0.10100000000E+03 0.  1.
<mgrwt>
<rscale>  0 0.14077689E+04</rscale>
<asrwt>0</asrwt>
<pdfrwt beam="1">  1        2 0.19961941E+00 0.14077689E+04</pdfrwt>
<pdfrwt beam="2">  1       -2 0.50652851E-01 0.14077689E+04</pdfrwt>
<totfact> 0.59559889E+01</totfact>
</mgrwt>
</event>
<event>
 8    2  0.4480234E-052  0.1342488E+04  0.7818608E-02  0.8996534E-01
          2   -1    0    0  501    0  0.00000000000E+00  0.00000000000E+00  0.11089407353E+04  0.11089407353E+04  0.25500000000E-02 0.  1.
         -2   -1    0    0    0  501 -0.00000000000E+00 -0.00000000000E+00 -0.40630519065E+03  0.40630519066E+03  0.25500000000E-02 0. -1.
    -200001    2    1    2    0    0 -0.14133681270E+02  0.27270296050E+03  0.34334819742E+03  0.75404748700E+03  0.61329679794E+03 0.  0.
   -5000001    2    3    3    0    0 -0.14342066557E+03 -0.60458042271E+01 -0.11377298824E+03  0.19406822263E+03  0.64125994115E+02 0.  0.
     200001    1    1    2    0    0  0.14133681270E+02 -0.27270296050E+03  0.35928734725E+03  0.76119843898E+03  0.61300000000E+03 0. -1.
         13    1    4    4    0    0 -0.89387158731E+02 -0.22834347463E+02 -0.56725499552E+02  0.10830173144E+03  0.10566000000E+00 0.  1.
    -200003    1    4    4    0    0 -0.54033506837E+02  0.16788543236E+02 -0.57047488688E+02  0.85766491187E+02  0.30000000000E+02 0.  1.
    -200000    1    3    3    0    0  0.12928698430E+03  0.27874876473E+03  0.45712118566E+03  0.55997926437E+03  0.10100000000E+03 0.  1.
<mgrwt>
<rscale>  0 0.13424878E+04</rscale>
<asrwt>0</asrwt>
<pdfrwt beam="1">  1        2 0.15842011E+00 0.13424878E+04</pdfrwt>
<pdfrwt beam="2">  1       -2 0.58043598E-01 0.13424878E+04</pdfrwt>
<totfact> 0.65581025E+01</totfact>
</mgrwt>
</event>
<event>
 8    2  0.4480234E-052  0.1932534E+04  0.7818608E-02  0.8638829E-01
         -2   -1    0    0    0  501 -0.00000000000E+00  0.00000000000E+00  0.74062127133E+03  0.74062127133E+03  0.25500000000E-02 0. -1.
          2   -1    0    0  501    0  0.00000000000E+00 -0.00000000000E+00 -0.12606607154E+04  0.12606607154E+04  0.25500000000E-02 0.  1.
    -200001    2    1    2    0    0  0.34191087904E+03 -0.39683131143E+03  0.29102238687E+03  0.85761751120E+03  0.61354350043E+03 0.  0.
   -5000001    2    3    3    0    0 -0.55135731647E+02 -0.23892529893E+03 -0.95448123854E+02  0.27268950238E+03  0.71581931988E+02 0.  0.
     200001    1    1    2    0    0 -0.34191087904E+03  0.39683131143E+03 -0.81106183090E+03  0.11436644755E+04  0.61300000000E+03 0.  1.
         13    1    4    4    0    0  0.93064062192E+01 -0.74595768488E+02 -0.16248341003E+02  0.76910061907E+02  0.10566000000E+00 0.  1.
    -200003    1    4    4    0    0 -0.64442137867E+02 -0.16432953045E+03 -0.79199782850E+02  0.19577944048E+03  0.30000000000E+02 0.  1.
    -200000    1    3    3    0    0  0.39704661069E+03 -0.15790601249E+03  0.38647051073E+03  0.58492800882E+03  0.10100000000E+03 0. -1.
<mgrwt>
<rscale>  0 0.19325342E+04</rscale>
<asrwt>0</asrwt>
<pdfrwt beam="1">  1        2 0.18009439E+00 0.19325342E+04</pdfrwt>
<pdfrwt beam="2">  1       -2 0.10580304E+00 0.19325342E+04</pdfrwt>
<totfact> 0.13364842E+01</totfact>
</mgrwt>
</event>
<event>
 8    2  0.4480234E-052  0.1803363E+04  0.7818608E-02  0.8704513E-01
          2   -1    0    0  501    0  0.00000000000E+00  0.00000000000E+00  0.11646435024E+04  0.11646435024E+04  0.25500000000E-02 0.  1.
         -2   -1    0    0    0  501 -0.00000000000E+00 -0.00000000000E+00 -0.69809332610E+03  0.69809332610E+03  0.25500000000E-02 0. -1.
    -200001    2    1    2    0    0  0.62859622369E+03 -0.19383219822E+03  0.30353097372E+03  0.94892700481E+03  0.61288438955E+03 0.  0.
   -5000001    2    3    3    0    0  0.20080364673E+03  0.19221992962E+03  0.21059898503E+03  0.35657568267E+03  0.74321457853E+02 0.  0.
     200001    1    1    2    0    0 -0.62859622369E+03  0.19383219822E+03  0.16301920260E+03  0.91380982371E+03  0.61300000000E+03 0. -1.
         13    1    4    4    0    0  0.82004600593E+02  0.11916552025E+03  0.11578034843E+03  0.18528431121E+03  0.10566000000E+00 0.  1.
    -200003    1    4    4    0    0  0.11879904613E+03  0.73054409370E+02  0.94818636599E+02  0.17129137146E+03  0.30000000000E+02 0.  1.
    -200000    1    3    3    0    0  0.42779257696E+03 -0.38605212784E+03  0.92931988691E+02  0.59235132214E+03  0.10100000000E+03 0.  1.
<mgrwt>
<rscale>  0 0.18033634E+04</rscale>
<asrwt>0</asrwt>
<pdfrwt beam="1">  1        2 0.16637764E+00 0.18033634E+04</pdfrwt>
<pdfrwt beam="2">  1       -2 0.99727618E-01 0.18033634E+04</pdfrwt>
<totfact> 0.17630711E+01</totfact>
</mgrwt>
</event>
<event>
 8    2  0.4480234E-052  0.1603505E+04  0.7818608E-02  0.8818398E-01
          2   -1    0    0  501    0  0.00000000000E+00  0.00000000000E+00  0.86838658768E+03  0.86838658768E+03  0.25500000000E-02 0.  1.
         -2   -1    0    0    0  501 -0.00000000000E+00 -0.00000000000E+00 -0.74023135170E+03  0.74023135171E+03  0.25500000000E-02 0. -1.
    -200001    2    1    2    0    0  0.32133648921E+03  0.39543514389E+03  0.14903152066E+03  0.81122787701E+03  0.61339561620E+03 0.  0.
   -5000001    2    3    3    0    0  0.42620240089E+03  0.40082545336E+03 -0.18674081425E+02  0.58907458795E+03  0.65959216649E+02 0.  0.
     200001    1    1    2    0    0 -0.32133648921E+03 -0.39543514389E+03 -0.20876284686E+02  0.79739006238E+03  0.61300000000E+03 0.  1.
         13    1    4    4    0    0  0.11283845396E+03  0.13218846412E+03  0.11188810336E+02  0.17415943092E+03  0.10566000000E+00 0.  1.
    -200003    1    4    4    0    0  0.31336394693E+03  0.26863698924E+03 -0.29862891761E+02  0.41491515702E+03  0.30000000000E+02 0.  1.
    -200000    1    3    3    0    0 -0.10486591169E+03 -0.53903094661E+01  0.16770560209E+03  0.22215328906E+03  0.10100000000E+03 0.  1.
<mgrwt>
<rscale>  0 0.16035049E+04</rscale>
<asrwt>0</asrwt>
<pdfrwt beam="1">  1        2 0.12405523E+00 0.16035049E+04</pdfrwt>
<pdfrwt beam="2">  1       -2 0.10574734E+00 0.16035049E+04</pdfrwt>
<totfact> 0.23699504E+01</totfact>
</mgrwt>
</event>
<event>
 8    2  0.4480234E-052  0.2152570E+04  0.7818608E-02  0.8538433E-01
          2   -1    0    0  501    0  0.00000000000E+00  0.00000000000E+00  0.16622674716E+04  0.16622674716E+04  0.25500000000E-02 0.  1.
         -2   -1    0    0    0  501 -0.00000000000E+00 -0.00000000000E+00 -0.69687327584E+03  0.69687327585E+03  0.25500000000E-02 0. -1.
    -200001    2    1    2    0    0 -0.49407682637E+03  0.80517295506E+02 -0.31732484405E+03  0.85191412868E+03  0.61193764450E+03 0.  0.
   -5000001    2    3    3    0    0 -0.46327488244E+03  0.23907925703E+03 -0.59465298692E+02  0.53131593697E+03  0.83534395847E+02 0.  0.
     200001    1    1    2    0    0  0.49407682637E+03 -0.80517295506E+02  0.12827190398E+04  0.15072266187E+04  0.61300000000E+03 0.  1.
         13    1    4    4    0    0 -0.33173474649E+03  0.14492136909E+03 -0.22613401185E+02  0.36271410549E+03  0.10566000000E+00 0.  1.
    -200003    1    4    4    0    0 -0.13154013595E+03  0.94157887947E+02 -0.36851897507E+02  0.16860183148E+03  0.30000000000E+02 0.  1.
    -200000    1    3    3    0    0 -0.30801943935E+02 -0.15856196153E+03 -0.25785954536E+03  0.32059819171E+03  0.10100000000E+03 0. -1.
<mgrwt>
<rscale>  0 0.21525704E+04</rscale>
<asrwt>0</asrwt>
<pdfrwt beam="1">  1        2 0.23746678E+00 0.21525704E+04</pdfrwt>
<pdfrwt beam="2">  1       -2 0.99553326E-01 0.21525704E+04</pdfrwt>
<totfact> 0.92381954E+00</totfact>
</mgrwt>
</event>
<event>
 8    2  0.4480234E-052  0.1918782E+04  0.7818608E-02  0.8645564E-01
         -2   -1    0    0    0  501 -0.00000000000E+00  0.00000000000E+00  0.58881992541E+03  0.58881992541E+03  0.25500000000E-02 0. -1.
          2   -1    0    0  501    0  0.00000000000E+00 -0.00000000000E+00 -0.15631786212E+04  0.15631786212E+04  0.25500000000E-02 0.  1.
    -200001    2    1    2    0    0 -0.57904609096E+03 -0.41139386746E+03 -0.26414941844E+03  0.97526344165E+03  0.61386038781E+03 0.  0.
   -5000001    2    3    3    0    0 -0.77982956345E+01  0.54777673425E+02  0.11128220456E+03  0.14172288911E+03  0.68119316826E+02 0.  0.
     200001    1    1    2    0    0  0.57904609096E+03  0.41139386746E+03 -0.71020927740E+03  0.11767351050E+04  0.61300000000E+03 0.  1.
         13    1    4    4    0    0 -0.23342111679E+02  0.81689073363E+00  0.22162113816E+02  0.32197700864E+02  0.10566000000E+00 0.  1.
    -200003    1    4    4    0    0  0.15543816044E+02  0.53960782691E+02  0.89120090741E+02  0.10952518824E+03  0.30000000000E+02 0.  1.
    -200000    1    3    3    0    0 -0.57124779533E+03 -0.46617154089E+03 -0.37543162299E+03  0.83354055255E+03  0.10100000000E+03 0. -1.
<mgrwt>
<rscale>  0 0.19187816E+04</rscale>
<asrwt>0</asrwt>
<pdfrwt beam="1">  1        2 0.22331123E+00 0.19187816E+04</pdfrwt>
<pdfrwt beam="2">  1       -2 0.84117133E-01 0.19187816E+04</pdfrwt>
<totfact> 0.15671574E+01</totfact>
</mgrwt>
</event>
<event>
 8    2  0.4480234E-052  0.1667696E+04  0.7818608E-02  0.8780006E-01
          2   -1    0    0  501    0  0.00000000000E+00  0.00000000000E+00  0.38718147209E+04  0.38718147209E+04  0.25500000000E-02 0. -1.
         -2   -1    0    0    0  501 -0.00000000000E+00 -0.00000000000E+00 -0.17958056861E+03  0.17958056863E+03  0.25500000000E-02 0.  1.
    -200001    2    1    2    0    0  0.48931899082E+03 -0.17493596981E+03  0.13063182901E+04  0.15337775327E+04  0.61316423273E+03 0.  0.
   -5000001    2    3    3    0    0  0.45926128170E+03 -0.35349002363E+03  0.10696924588E+04  0.12191701582E+04  0.79106236084E+02 0.  0.
     200001    1    1    2    0    0 -0.48931899082E+03  0.17493596981E+03  0.23859158621E+04  0.25176177568E+04  0.61300000000E+03 0. -1.
         13    1    4    4    0    0  0.20661902681E+02 -0.33763991366E+02  0.99229732973E+02  0.10683385421E+03  0.10566000000E+00 0.  1.
    -200003    1    4    4    0    0  0.43859937901E+03 -0.31972603227E+03  0.97046272583E+03  0.11123363040E+04  0.30000000000E+02 0.  1.
    -200000    1    3    3    0    0  0.30057709127E+02  0.17855405382E+03  0.23662583130E+03  0.31460737444E+03  0.10100000000E+03 0. -1.
<mgrwt>
<rscale>  0 0.16676962E+04</rscale>
<asrwt>0</asrwt>
<pdfrwt beam="1">  1        2 0.55311632E+00 0.16676962E+04</pdfrwt>
<pdfrwt beam="2">  1       -2 0.25654370E-01 0.16676962E+04</pdfrwt>
<totfact> 0.92083953E+00</totfact>
</mgrwt>
</event>
<event>
 8    2  0.4480234E-052  0.1429073E+04  0.7818608E-02  0.8933039E-01
          2   -1    0    0  501    0  0.00000000000E+00  0.00000000000E+00  0.13473215479E+04  0.13473215479E+04  0.25500000000E-02 0.  1.
         -2   -1    0    0    0  501 -0.00000000000E+00 -0.00000000000E+00 -0.37894611514E+03  0.37894611515E+03  0.25500000000E-02 0. -1.
    -200001    2    1    2    0    0  0.56954741315E+01  0.17091110365E+03  0.93590017700E+02  0.64448137817E+03  0.61429155261E+03 0.  0.
   -5000001    2    3    3    0    0  0.22950836948E+03 -0.61977232687E+02  0.61493470646E+02  0.30453965131E+03  0.18013240479E+03 0.  0.
     200001    1    1    2    0    0 -0.56954741315E+01 -0.17091110365E+03  0.87478541506E+03  0.10817862849E+04  0.61300000000E+03 0.  1.
         13    1    4    4    0    0 -0.13719705879E+02 -0.22475140104E+02  0.49437284249E+02  0.56012663658E+02  0.10566000000E+00 0.  1.
    -200003    1    4    4    0    0  0.24322807536E+03 -0.39502092584E+02  0.12056186397E+02  0.24852698765E+03  0.30000000000E+02 0.  1.
    -200000    1    3    3    0    0 -0.22381289535E+03  0.23288833634E+03  0.32096547054E+02  0.33994172686E+03  0.10100000000E+03 0. -1.
<mgrwt>
<rscale>  0 0.14290728E+04</rscale>
<asrwt>0</asrwt>
<pdfrwt beam="1">  1        2 0.19247450E+00 0.14290728E+04</pdfrwt>
<pdfrwt beam="2">  1       -2 0.54135161E-01 0.14290728E+04</pdfrwt>
<totfact> 0.55226697E+01</totfact>
</mgrwt>
</event>
<event>
 8    2  0.4480234E-052  0.1502197E+04  0.7818608E-02  0.8882993E-01
         -2   -1    0    0    0  501 -0.00000000000E+00  0.00000000000E+00  0.29441822469E+03  0.29441822470E+03  0.25500000000E-02 0. -1.
          2   -1    0    0  501    0  0.00000000000E+00 -0.00000000000E+00 -0.19161488622E+04  0.19161488622E+04  0.25500000000E-02 0.  1.
    -200001    2    1    2    0    0 -0.24377256873E+03 -0.31934589696E+03 -0.10602624094E+04  0.12872998242E+04  0.60957164749E+03 0.  0.
   -5000001    2    3    3    0    0 -0.98479581047E+02 -0.87884402324E+02 -0.96701054023E+03  0.98138907435E+03  0.10292343897E+03 0.  0.
     200001    1    1    2    0    0  0.24377256873E+03  0.31934589696E+03 -0.56146822806E+03  0.92326726266E+03  0.61300000000E+03 0.  1.
         13    1    4    4    0    0  0.57552186595E+01 -0.45113729862E+02 -0.17365140112E+03  0.17950819324E+03  0.10566000000E+00 0.  1.
    -200003    1    4    4    0    0 -0.10423479971E+03 -0.42770672462E+02 -0.79335913910E+03  0.80188088111E+03  0.30000000000E+02 0.  1.
    -200000    1    3    3    0    0 -0.14529298768E+03 -0.23146149464E+03 -0.93251869173E+02  0.30591074985E+03  0.10100000000E+03 0. -1.
<mgrwt>
<rscale>  0 0.15021973E+04</rscale>
<asrwt>0</asrwt>
<pdfrwt beam="1">  1        2 0.27373554E+00 0.15021973E+04</pdfrwt>
<pdfrwt beam="2">  1       -2 0.42059747E-01 0.15021973E+04</pdfrwt>
<totfact> 0.45931264E+01</totfact>
</mgrwt>
</event>
<event>
 8    2  0.4480234E-052  0.1750958E+04  0.7818608E-02  0.8732823E-01
          2   -1    0    0  501    0  0.00000000000E+00  0.00000000000E+00  0.11216396757E+04  0.11216396757E+04  0.25500000000E-02 0. -1.
         -2   -1    0    0    0  501 -0.00000000000E+00 -0.00000000000E+00 -0.68334185883E+03  0.68334185884E+03  0.25500000000E-02 0.  1.
    -200001    2    1    2    0    0 -0.35699388231E+03  0.40530997323E+03 -0.10416354598E+03  0.82429089191E+03  0.61390929604E+03 0.  0.
   -5000001    2    3    3    0    0  0.10024534965E+03  0.14271988091E+03 -0.20334391810E+03  0.27834307568E+03  0.75551467320E+02 0.  0.
     200001    1    1    2    0    0  0.35699388231E+03 -0.40530997323E+03  0.54246136289E+03  0.98069064268E+03  0.61300000000E+03 0. -1.
         13    1    4    4    0    0  0.74112583900E+02  0.10126486754E+03 -0.17194011562E+03  0.21286301466E+03  0.10566000000E+00 0.  1.
    -200003    1    4    4    0    0  0.26132765753E+02  0.41455013376E+02 -0.31403802486E+02  0.65480061015E+02  0.30000000000E+02 0.  1.
    -200000    1    3    3    0    0 -0.45723923197E+03  0.26259009232E+03  0.99180372125E+02  0.54594781623E+03  0.10100000000E+03 0. -1.
<mgrwt>
<rscale>  0 0.17509578E+04</rscale>
<asrwt>0</asrwt>
<pdfrwt beam="1">  1        2 0.16023424E+00 0.17509578E+04</pdfrwt>
<pdfrwt beam="2">  1       -2 0.97620266E-01 0.17509578E+04</pdfrwt>
<totfact> 0.19720872E+01</totfact>
</mgrwt>
</event>
<event>
 8    2  0.4480234E-052  0.1453143E+04  0.7818608E-02  0.8916224E-01
         -2   -1    0    0    0  501 -0.00000000000E+00  0.00000000000E+00  0.22451292519E+03  0.22451292521E+03  0.25500000000E-02 0. -1.
          2   -1    0    0  501    0  0.00000000000E+00 -0.00000000000E+00 -0.23513408570E+04  0.23513408570E+04  0.25500000000E-02 0.  1.
    -200001    2    1    2    0    0  0.32129313708E+03  0.69346036872E+02 -0.14346680802E+04  0.15945829669E+04  0.61350157722E+03 0.  0.
   -5000001    2    3    3    0    0 -0.22080025864E+02  0.60292943642E+02  0.15420591790E+02  0.10094805698E+03  0.76354102457E+02 0.  0.
     200001    1    1    2    0    0 -0.32129313708E+03 -0.69346036872E+02 -0.69215985160E+03  0.98127081528E+03  0.61300000000E+03 0. -1.
         13    1    4    4    0    0 -0.30499056062E+02  0.34831864539E+02  0.33185273128E+02  0.56962485238E+02  0.10566000000E+00 0.  1.
    -200003    1    4    4    0    0  0.84190301979E+01  0.25461079103E+02 -0.17764681338E+02  0.43985571743E+02  0.30000000000E+02 0.  1.
    -200000    1    3    3    0    0  0.34337316294E+03  0.90530932301E+01 -0.14500886720E+04  0.14936349099E+04  0.10100000000E+03 0.  1.
<mgrwt>
<rscale>  0 0.14531434E+04</rscale>
<asrwt>0</asrwt>
<pdfrwt beam="1">  1        2 0.33590582E+00 0.14531434E+04</pdfrwt>
<pdfrwt beam="2">  1       -2 0.32073276E-01 0.14531434E+04</pdfrwt>
<totfact> 0.46378512E+01</totfact>
</mgrwt>
</event>
<event>
 8    2  0.4480234E-052  0.2056715E+04  0.7818608E-02  0.8580554E-01
         -2   -1    0    0    0  501 -0.00000000000E+00  0.00000000000E+00  0.31029518439E+03  0.31029518440E+03  0.25500000000E-02 0.  1.
          2   -1    0    0  501    0  0.00000000000E+00 -0.00000000000E+00 -0.34081056582E+04  0.34081056582E+04  0.25500000000E-02 0. -1.
    -200001    2    1    2    0    0  0.10855645529E+03 -0.30815165336E+03 -0.29199383319E+04  0.30013586930E+04  0.61267625728E+03 0.  0.
   -5000001    2    3    3    0    0 -0.68720467249E+02 -0.18450414271E+02 -0.74819346106E+02  0.13425964365E+03  0.85818395209E+02 0.  0.
     200001    1    1    2    0    0 -0.10855645529E+03  0.30815165336E+03 -0.17787214186E+03  0.71704214960E+03  0.61300000000E+03 0.  1.
         13    1    4    4    0    0 -0.52440422761E+02 -0.32010404837E+02 -0.13689477905E+02  0.62945030992E+02  0.10566000000E+00 0.  1.
    -200003    1    4    4    0    0 -0.16280044488E+02  0.13559990566E+02 -0.61129868201E+02  0.71314612660E+02  0.30000000000E+02 0.  1.
    -200000    1    3    3    0    0  0.17727692253E+03 -0.28970123909E+03 -0.28451189858E+04  0.28670990493E+04  0.10100000000E+03 0. -1.
<mgrwt>
<rscale>  0 0.20567146E+04</rscale>
<asrwt>0</asrwt>
<pdfrwt beam="1">  1        2 0.48687221E+00 0.20567146E+04</pdfrwt>
<pdfrwt beam="2">  1       -2 0.44327885E-01 0.20567146E+04</pdfrwt>
<totfact> 0.61387741E+00</totfact>
</mgrwt>
</event>
<event>
 8    2  0.4480234E-052  0.1991102E+04  0.7818608E-02  0.8610792E-01
          2   -1    0    0  501    0  0.00000000000E+00  0.00000000000E+00  0.14269078523E+04  0.14269078523E+04  0.25500000000E-02 0.  1.
         -2   -1    0    0    0  501 -0.00000000000E+00 -0.00000000000E+00 -0.69459440214E+03  0.69459440215E+03  0.25500000000E-02 0. -1.
    -200001    2    1    2    0    0 -0.36455249108E+03 -0.34010545203E+03  0.10116581912E+04  0.12834254551E+04  0.61250172705E+03 0.  0.
   -5000001    2    3    3    0    0 -0.46435237810E+03 -0.13211896493E+03  0.43806163692E+03  0.65698120108E+03  0.81533728548E+02 0.  0.
     200001    1    1    2    0    0  0.36455249108E+03  0.34010545203E+03 -0.27934474107E+03  0.83807679936E+03  0.61300000000E+03 0. -1.
         13    1    4    4    0    0 -0.48101888215E+02 -0.37295087142E+02  0.42770036972E+02  0.74390875794E+02  0.10566000000E+00 0.  1.
    -200003    1    4    4    0    0 -0.41625048989E+03 -0.94823877790E+02  0.39529159995E+03  0.58259032529E+03  0.30000000000E+02 0.  1.
    -200000    1    3    3    0    0  0.99799887026E+02 -0.20798648710E+03  0.57359655428E+03  0.62644425398E+03  0.10100000000E+03 0.  1.
<mgrwt>
<rscale>  0 0.19911024E+04</rscale>
<asrwt>0</asrwt>
<pdfrwt beam="1">  1        2 0.20384398E+00 0.19911024E+04</pdfrwt>
<pdfrwt beam="2">  1       -2 0.99227773E-01 0.19911024E+04</pdfrwt>
<totfact> 0.12566387E+01</totfact>
</mgrwt>
</event>
<event>
 8    2  0.4480234E-052  0.1325940E+04  0.7818608E-02  0.9009244E-01
          2   -1    0    0  501    0  0.00000000000E+00  0.00000000000E+00  0.11953669716E+04  0.11953669716E+04  0.25500000000E-02 0.  1.
         -2   -1    0    0    0  501 -0.00000000000E+00 -0.00000000000E+00 -0.36769386121E+03  0.36769386122E+03  0.25500000000E-02 0. -1.
    -200001    2    1    2    0    0  0.56399121382E+02 -0.10523691725E+03  0.67686312130E+03  0.92059034908E+03  0.61244365961E+03 0.  0.
   -5000001    2    3    3    0    0 -0.18544906466E+03 -0.22234212281E+03  0.42519622024E+03  0.53882942474E+03  0.16036816424E+03 0.  0.
     200001    1    1    2    0    0 -0.56399121382E+02  0.10523691725E+03  0.15080998906E+03  0.64247048371E+03  0.61300000000E+03 0. -1.
         13    1    4    4    0    0 -0.91449974430E+02 -0.10393843414E+03  0.32951882724E+03  0.35741987156E+03  0.10566000000E+00 0.  1.
    -200003    1    4    4    0    0 -0.93999090233E+02 -0.11840368867E+03  0.95677393000E+02  0.18140955319E+03  0.30000000000E+02 0.  1.
    -200000    1    3    3    0    0  0.24184818604E+03  0.11710520556E+03  0.25166690106E+03  0.38176092434E+03  0.10100000000E+03 0. -1.
<mgrwt>
<rscale>  0 0.13259398E+04</rscale>
<asrwt>0</asrwt>
<pdfrwt beam="1">  1        2 0.17076671E+00 0.13259398E+04</pdfrwt>
<pdfrwt beam="2">  1       -2 0.52527695E-01 0.13259398E+04</pdfrwt>
<totfact> 0.71990644E+01</totfact>
</mgrwt>
</event>
<event>
 8    2  0.4480234E-052  0.1291162E+04  0.7818608E-02  0.9036603E-01
         -2   -1    0    0    0  501 -0.00000000000E+00  0.00000000000E+00  0.14786455248E+03  0.14786455250E+03  0.25500000000E-02 0. -1.
          2   -1    0    0  501    0  0.00000000000E+00 -0.00000000000E+00 -0.28186258003E+04  0.28186258003E+04  0.25500000000E-02 0.  1.
    -200001    2    1    2    0    0  0.40082294010E+02 -0.77177342306E+02 -0.17555913802E+04  0.18615614777E+04  0.61298214371E+03 0.  0.
   -5000001    2    3    3    0    0  0.26078175828E+03 -0.15847780352E+03 -0.61858621023E+03  0.69610029212E+03  0.93725010238E+02 0.  0.
     200001    1    1    2    0    0 -0.40082294010E+02  0.77177342306E+02 -0.91516986756E+03  0.11049288751E+04  0.61300000000E+03 0. -1.
         13    1    4    4    0    0  0.23530679336E+03 -0.14896999852E+03 -0.54872752428E+03  0.61535620134E+03  0.10566000000E+00 0.  1.
    -200003    1    4    4    0    0  0.25474964919E+02 -0.95078050060E+01 -0.69858685954E+02  0.80744090786E+02  0.30000000000E+02 0. -1.
    -200000    1    3    3    0    0 -0.22069946427E+03  0.81300461216E+02 -0.11370051700E+04  0.11654611856E+04  0.10100000000E+03 0.  1.
<mgrwt>
<rscale>  0 0.12911620E+04</rscale>
<asrwt>0</asrwt>
<pdfrwt beam="1">  1        2 0.40266079E+00 0.12911620E+04</pdfrwt>
<pdfrwt beam="2">  1       -2 0.21123509E-01 0.12911620E+04</pdfrwt>
<totfact> 0.56984278E+01</totfact>
</mgrwt>
</event>
<event>
 8    2  0.4480234E-052  0.1411749E+04  0.7818608E-02  0.8945357E-01
          2   -1    0    0  501    0  0.00000000000E+00  0.00000000000E+00  0.13924402385E+04  0.13924402385E+04  0.25500000000E-02 0.  1.
         -2   -1    0    0    0  501 -0.00000000000E+00 -0.00000000000E+00 -0.35783160768E+03  0.35783160769E+03  0.25500000000E-02 0. -1.
    -200001    2    1    2    0    0  0.30210991307E+03  0.10384032665E+03  0.33917158370E+03  0.76973377986E+03  0.61269855202E+03 0.  0.
   -5000001    2    3    3    0    0  0.43634129835E+03  0.19544089383E+03  0.31241291317E+03  0.57653503464E+03  0.78739737293E+02 0.  0.
     200001    1    1    2    0    0 -0.30210991307E+03 -0.10384032665E+03  0.69543704708E+03  0.98053806630E+03  0.61300000000E+03 0.  1.
         13    1    4    4    0    0  0.11543289227E+03  0.60461031083E+02  0.50120561460E+02  0.13961508064E+03  0.10566000000E+00 0.  1.
    -200003    1    4    4    0    0  0.32090840608E+03  0.13497986275E+03  0.26229235171E+03  0.43691995401E+03  0.30000000000E+02 0.  1.
    -200000    1    3    3    0    0 -0.13423138528E+03 -0.91600567184E+02  0.26758670531E+02  0.19319874521E+03  0.10100000000E+03 0. -1.
<mgrwt>
<rscale>  0 0.14117495E+04</rscale>
<asrwt>0</asrwt>
<pdfrwt beam="1">  1        2 0.19892004E+00 0.14117495E+04</pdfrwt>
<pdfrwt beam="2">  1       -2 0.51118801E-01 0.14117495E+04</pdfrwt>
<totfact> 0.58796442E+01</totfact>
</mgrwt>
</event>
<event>
 8    2  0.4480234E-052  0.1575630E+04  0.7818608E-02  0.8835661E-01
         -2   -1    0    0    0  501 -0.00000000000E+00  0.00000000000E+00  0.38943545310E+03  0.38943545311E+03  0.25500000000E-02 0. -1.
          2   -1    0    0  501    0  0.00000000000E+00 -0.00000000000E+00 -0.15937245830E+04  0.15937245830E+04  0.25500000000E-02 0.  1.
    -200001    2    1    2    0    0  0.60229664648E+01  0.39668938826E+03 -0.97497551372E+03  0.12178153547E+04  0.61245264207E+03 0.  0.
   -5000001    2    3    3    0    0 -0.79243320113E+02  0.76497774144E+02 -0.52789216026E+03  0.65223818545E+03  0.36689658552E+03 0.  0.
     200001    1    1    2    0    0 -0.60229664648E+01 -0.39668938826E+03 -0.22931361618E+03  0.76534468147E+03  0.61300000000E+03 0. -1.
         13    1    4    4    0    0  0.47713071957E+01 -0.74787430912E+01  0.55456951095E+02  0.56162100738E+02  0.10566000000E+00 0.  1.
    -200003    1    4    4    0    0 -0.84014627308E+02  0.83976517235E+02 -0.58334911135E+03  0.59607608471E+03  0.30000000000E+02 0.  1.
    -200000    1    3    3    0    0  0.85266286577E+02  0.32019161412E+03 -0.44708335347E+03  0.56557716920E+03  0.10100000000E+03 0.  1.
<mgrwt>
<rscale>  0 0.15756305E+04</rscale>
<asrwt>0</asrwt>
<pdfrwt beam="1">  1        2 0.22767494E+00 0.15756305E+04</pdfrwt>
<pdfrwt beam="2">  1       -2 0.55633637E-01 0.15756305E+04</pdfrwt>
<totfact> 0.38092775E+01</totfact>
</mgrwt>
</event>
<event>
 8    2  0.4480234E-052  0.2130947E+04  0.7818608E-02  0.8547732E-01
         -2   -1    0    0    0  501 -0.00000000000E+00  0.00000000000E+00  0.29578956174E+03  0.29578956175E+03  0.25500000000E-02 0. -1.
          2   -1    0    0  501    0  0.00000000000E+00 -0.00000000000E+00 -0.38379791752E+04  0.38379791752E+04  0.25500000000E-02 0.  1.
    -200001    2    1    2    0    0 -0.71480232257E+03 -0.36692135907E+03 -0.24259385187E+04  0.26279934713E+04  0.61286078722E+03 0.  0.
   -5000001    2    3    3    0    0 -0.28202313757E+03 -0.44507226930E+02 -0.47521465673E+03  0.60147594577E+03  0.23329466344E+03 0.  0.
     200001    1    1    2    0    0  0.71480232257E+03  0.36692135907E+03 -0.11162510947E+04  0.15057752656E+04  0.61300000000E+03 0. -1.
         13    1    4    4    0    0  0.34986774271E+02 -0.27306001560E+02 -0.97655370338E+02  0.10726730450E+03  0.10566000000E+00 0.  1.
    -200003    1    4    4    0    0 -0.31700991185E+03 -0.17201225370E+02 -0.37755928639E+03  0.49420864127E+03  0.30000000000E+02 0.  1.
    -200000    1    3    3    0    0 -0.43277918500E+03 -0.32241413215E+03 -0.19507238620E+04  0.20265175255E+04  0.10100000000E+03 0.  1.
<mgrwt>
<rscale>  0 0.21309474E+04</rscale>
<asrwt>0</asrwt>
<pdfrwt beam="1">  1        2 0.54828271E+00 0.21309474E+04</pdfrwt>
<pdfrwt beam="2">  1       -2 0.42255654E-01 0.21309474E+04</pdfrwt>
<totfact> 0.36035485E+00</totfact>
</mgrwt>
</event>
<event>
 8    2  0.4480234E-052  0.1429981E+04  0.7818608E-02  0.8932398E-01
         -2   -1    0    0    0  501 -0.00000000000E+00  0.00000000000E+00  0.34420621857E+03  0.34420621858E+03  0.25500000000E-02 0. -1.
          2   -1    0    0  501    0  0.00000000000E+00 -0.00000000000E+00 -0.14851896669E+04  0.14851896669E+04  0.25500000000E-02 0.  1.
    -200001    2    1    2    0    0  0.18386731805E+03  0.50351296576E+02 -0.97166394132E+03  0.11654828346E+04  0.61471699107E+03 0.  0.
   -5000001    2    3    3    0    0  0.28373385038E+03 -0.17718098736E+03 -0.71726444923E+03  0.79580139592E+03  0.83268069970E+02 0.  0.
     200001    1    1    2    0    0 -0.18386731805E+03 -0.50351296576E+02 -0.16931950700E+03  0.66391305091E+03  0.61300000000E+03 0. -1.
         13    1    4    4    0    0  0.19595395084E+03 -0.93043220492E+02 -0.40664672764E+03  0.46088671492E+03  0.10566000000E+00 0.  1.
    -200003    1    4    4    0    0  0.87779899539E+02 -0.84137766870E+02 -0.31061772159E+03  0.33491468099E+03  0.30000000000E+02 0.  1.
    -200000    1    3    3    0    0 -0.99866532332E+02  0.22753228394E+03 -0.25439949209E+03  0.36968143866E+03  0.10100000000E+03 0. -1.
<mgrwt>
<rscale>  0 0.14299811E+04</rscale>
<asrwt>0</asrwt>
<pdfrwt beam="1">  1        2 0.21216995E+00 0.14299811E+04</pdfrwt>
<pdfrwt beam="2">  1       -2 0.49172318E-01 0.14299811E+04</pdfrwt>
<totfact> 0.56659772E+01</totfact>
</mgrwt>
</event>
<event>
 8    2  0.4480234E-052  0.2289698E+04  0.7818608E-02  0.8481994E-01
         -2   -1    0    0    0  501 -0.00000000000E+00  0.00000000000E+00  0.88888665158E+03  0.88888665158E+03  0.25500000000E-02 0. -1.
          2   -1    0    0  501    0  0.00000000000E+00 -0.00000000000E+00 -0.14745177743E+04  0.14745177743E+04  0.25500000000E-02 0.  1.
    -200001    2    1    2    0    0 -0.67625494489E+03  0.57771113346E+03 -0.68439059759E+03  0.12786955534E+04  0.61286289173E+03 0.  0.
   -5000001    2    3    3    0    0 -0.37039930498E+03  0.52673640414E+03 -0.69670225574E+03  0.95235421000E+03  0.83292398103E+02 0.  0.
     200001    1    1    2    0    0  0.67625494489E+03 -0.57771113346E+03  0.98759474820E+02  0.10847088725E+04  0.61300000000E+03 0. -1.
         13    1    4    4    0    0 -0.31666140771E+02  0.79252540041E+02 -0.68534187979E+02  0.10945618146E+03  0.10566000000E+00 0.  1.
    -200003    1    4    4    0    0 -0.33873316421E+03  0.44748386410E+03 -0.62816806776E+03  0.84289802854E+03  0.30000000000E+02 0.  1.
    -200000    1    3    3    0    0 -0.30585563992E+03  0.50974729325E+02  0.12311658156E+02  0.32634134342E+03  0.10100000000E+03 0.  1.
<mgrwt>
<rscale>  0 0.22896979E+04</rscale>
<asrwt>0</asrwt>
<pdfrwt beam="1">  1        2 0.21064540E+00 0.22896979E+04</pdfrwt>
<pdfrwt beam="2">  1       -2 0.12698381E+00 0.22896979E+04</pdfrwt>
<totfact> 0.63417309E+00</totfact>
</mgrwt>
</event>
<event>
 8    2  0.4480234E-052  0.2008208E+04  0.7818608E-02  0.8602793E-01
         -2   -1    0    0    0  501 -0.00000000000E+00  0.00000000000E+00  0.52461787148E+03  0.52461787148E+03  0.25500000000E-02 0. -1.
          2   -1    0    0  501    0  0.00000000000E+00 -0.00000000000E+00 -0.19218267691E+04  0.19218267691E+04  0.25500000000E-02 0.  1.
    -200001    2    1    2    0    0  0.75793496810E+03 -0.71900116081E+02 -0.41528032615E+03  0.10609527561E+04  0.61116933722E+03 0.  0.
   -5000001    2    3    3    0    0  0.30807565916E+03  0.22202712633E+03 -0.27665191200E+03  0.49687345413E+03  0.16167959800E+03 0.  0.
     200001    1    1    2    0    0 -0.75793496810E+03  0.71900116081E+02 -0.98192857144E+03  0.13854918845E+04  0.61300000000E+03 0.  1.
         13    1    4    4    0    0  0.20529349143E+03  0.85459840910E+02 -0.22374115712E+03  0.31545034250E+03  0.10566000000E+00 0.  1.
    -200003    1    4    4    0    0  0.10278216773E+03  0.13656728542E+03 -0.52910754886E+02  0.18142311163E+03  0.30000000000E+02 0.  1.
    -200000    1    3    3    0    0  0.44985930893E+03 -0.29392724241E+03 -0.13862841414E+03  0.56407930193E+03  0.10100000000E+03 0. -1.
<mgrwt>
<rscale>  0 0.20082078E+04</rscale>
<asrwt>0</asrwt>
<pdfrwt beam="1">  1        2 0.27454668E+00 0.20082078E+04</pdfrwt>
<pdfrwt beam="2">  1       -2 0.74945411E-01 0.20082078E+04</pdfrwt>
<totfact> 0.13122533E+01</totfact>
</mgrwt>
</event>
<event>
 8    2  0.4480234E-052  0.1524757E+04  0.7818608E-02  0.8868155E-01
          2   -1    0    0  501    0  0.00000000000E+00  0.00000000000E+00  0.19116759909E+04  0.19116759909E+04  0.25500000000E-02 0.  1.
         -2   -1    0    0    0  501 -0.00000000000E+00 -0.00000000000E+00 -0.30403747422E+03  0.30403747423E+03  0.25500000000E-02 0. -1.
    -200001    2    1    2    0    0  0.19439146482E+03 -0.23100884946E+03  0.12956013038E+04  0.14645215107E+04  0.61244378258E+03 0.  0.
   -5000001    2    3    3    0    0  0.47965671133E+02  0.10225120690E+03  0.92607535879E+03  0.93607737719E+03  0.76611167714E+02 0.  0.
     200001    1    1    2    0    0 -0.19439146482E+03  0.23100884946E+03  0.31203721282E+03  0.75119195437E+03  0.61300000000E+03 0. -1.
         13    1    4    4    0    0 -0.64654816203E+01  0.56192991307E+02  0.48287498853E+03  0.48617663502E+03  0.10566000000E+00 0.  1.
    -200003    1    4    4    0    0  0.54431152753E+02  0.46058215594E+02  0.44320037025E+03  0.44990074217E+03  0.30000000000E+02 0. -1.
    -200000    1    3    3    0    0  0.14642579369E+03 -0.33326005636E+03  0.36952594504E+03  0.52844413355E+03  0.10100000000E+03 0. -1.
<mgrwt>
<rscale>  0 0.15247572E+04</rscale>
<asrwt>0</asrwt>
<pdfrwt beam="1">  1        2 0.27309657E+00 0.15247572E+04</pdfrwt>
<pdfrwt beam="2">  1       -2 0.43433925E-01 0.15247572E+04</pdfrwt>
<totfact> 0.43253712E+01</totfact>
</mgrwt>
</event>
<event>
 8    2  0.4480234E-052  0.1295547E+04  0.7818608E-02  0.9033104E-01
         -2   -1    0    0    0  501 -0.00000000000E+00  0.00000000000E+00  0.24384688603E+03  0.24384688604E+03  0.25500000000E-02 0. -1.
          2   -1    0    0  501    0  0.00000000000E+00 -0.00000000000E+00 -0.17207963355E+04  0.17207963355E+04  0.25500000000E-02 0.  1.
    -200001    2    1    2    0    0  0.20850957355E+02 -0.20218499097E+03 -0.64908297399E+03  0.91466920557E+03  0.61155336276E+03 0.  0.
   -5000001    2    3    3    0    0 -0.90707875057E+02 -0.16226613733E+02 -0.63459238708E+03  0.67500930433E+03  0.21080522198E+03 0.  0.
     200001    1    1    2    0    0 -0.20850957355E+02  0.20218499097E+03 -0.82786647547E+03  0.10499740160E+04  0.61300000000E+03 0.  1.
         13    1    4    4    0    0 -0.15288424955E+03  0.13503447357E+02 -0.38942172878E+03  0.41857523919E+03  0.10566000000E+00 0.  1.
    -200003    1    4    4    0    0  0.62176374497E+02 -0.29730061090E+02 -0.24517065829E+03  0.25643406515E+03  0.30000000000E+02 0.  1.
    -200000    1    3    3    0    0  0.11155883241E+03 -0.18595837723E+03 -0.14490586914E+02  0.23965990124E+03  0.10100000000E+03 0. -1.
<mgrwt>
<rscale>  0 0.12955475E+04</rscale>
<asrwt>0</asrwt>
<pdfrwt beam="1">  1        2 0.24582804E+00 0.12955475E+04</pdfrwt>
<pdfrwt beam="2">  1       -2 0.34835270E-01 0.12955475E+04</pdfrwt>
<totfact> 0.84793680E+01</totfact>
</mgrwt>
</event>
<event>
 8    2  0.4480234E-052  0.1600374E+04  0.7818608E-02  0.8820318E-01
          2   -1    0    0  501    0  0.00000000000E+00  0.00000000000E+00  0.92771698948E+03  0.92771698948E+03  0.25500000000E-02 0.  1.
         -2   -1    0    0    0  501 -0.00000000000E+00 -0.00000000000E+00 -0.69018787992E+03  0.69018787992E+03  0.25500000000E-02 0. -1.
    -200001    2    1    2    0    0  0.26924304161E+03 -0.22476591156E+03  0.49881787849E+03  0.86487608428E+03  0.61333501026E+03 0.  0.
   -5000001    2    3    3    0    0 -0.73526647562E+02  0.78451901232E+02 -0.59088694838E+02  0.13625214399E+03  0.59264695867E+02 0.  0.
     200001    1    1    2    0    0 -0.26924304161E+03  0.22476591156E+03 -0.26128876892E+03  0.75302878512E+03  0.61300000000E+03 0. -1.
         13    1    4    4    0    0 -0.37153715705E+02  0.96073673133E+01 -0.10895297530E+02  0.39892590411E+02  0.10566000000E+00 0.  1.
    -200003    1    4    4    0    0 -0.36372931857E+02  0.68844533919E+02 -0.48193397308E+02  0.96359553582E+02  0.30000000000E+02 0.  1.
    -200000    1    3    3    0    0  0.34276968917E+03 -0.30321781279E+03  0.55790657332E+03  0.72862394029E+03  0.10100000000E+03 0.  1.
<mgrwt>
<rscale>  0 0.16003737E+04</rscale>
<asrwt>0</asrwt>
<pdfrwt beam="1">  1        2 0.13253100E+00 0.16003737E+04</pdfrwt>
<pdfrwt beam="2">  1       -2 0.98598269E-01 0.16003737E+04</pdfrwt>
<totfact> 0.25613827E+01</totfact>
</mgrwt>
</event>
<event>
 8    2  0.4480234E-052  0.1334797E+04  0.7818608E-02  0.9002417E-01
         -2   -1    0    0    0  501 -0.00000000000E+00  0.00000000000E+00  0.69843391530E+03  0.69843391530E+03  0.25500000000E-02 0. -1.
          2   -1    0    0  501    0  0.00000000000E+00 -0.00000000000E+00 -0.63774191072E+03  0.63774191073E+03  0.25500000000E-02 0.  1.
    -200001    2    1    2    0    0  0.22468487036E+03  0.12031241222E+03  0.42260418259E+02  0.67204700504E+03  0.62040540498E+03 0.  0.
   -5000001    2    3    3    0    0 -0.56244289418E+02 -0.17852884009E+03 -0.70283662566E+02  0.23490348510E+03  0.12330404395E+03 0.  0.
     200001    1    1    2    0    0 -0.22468487036E+03 -0.12031241222E+03  0.18431586314E+02  0.66412882099E+03  0.61300000000E+03 0.  1.
         13    1    4    4    0    0 -0.79986260733E+02 -0.61150553415E+02 -0.32173202637E+02  0.10569918742E+03  0.10566000000E+00 0.  1.
    -200003    1    4    4    0    0  0.23741971315E+02 -0.11737828667E+03 -0.38110459929E+02  0.12920429768E+03  0.30000000000E+02 0.  1.
    -200000    1    3    3    0    0  0.28092915977E+03  0.29884125231E+03  0.11254408083E+03  0.43714351993E+03  0.10100000000E+03 0. -1.
<mgrwt>
<rscale>  0 0.13347967E+04</rscale>
<asrwt>0</asrwt>
<pdfrwt beam="1">  1        2 0.91105987E-01 0.13347967E+04</pdfrwt>
<pdfrwt beam="2">  1       -2 0.99776274E-01 0.13347967E+04</pdfrwt>
<totfact> 0.41021940E+01</totfact>
</mgrwt>
</event>
<event>
 8    2  0.4480234E-052  0.1606385E+04  0.7818608E-02  0.8816635E-01
          2   -1    0    0  501    0  0.00000000000E+00  0.00000000000E+00  0.75623648694E+03  0.75623648695E+03  0.25500000000E-02 0.  1.
         -2   -1    0    0    0  501 -0.00000000000E+00 -0.00000000000E+00 -0.85306366294E+03  0.85306366295E+03  0.25500000000E-02 0. -1.
    -200001    2    1    2    0    0  0.34906850161E+03  0.37483178549E+03  0.33732618774E+02  0.79987903191E+03  0.61344998972E+03 0.  0.
   -5000001    2    3    3    0    0  0.21195239194E+03 -0.12871950986E+03  0.23074989674E+02  0.26820307831E+03  0.99538471934E+02 0.  0.
     200001    1    1    2    0    0 -0.34906850161E+03 -0.37483178549E+03 -0.13055979478E+03  0.80942111799E+03  0.61300000000E+03 0.  1.
         13    1    4    4    0    0  0.20025118618E+02 -0.56520197631E+02  0.58444201323E+01  0.60247045792E+02  0.10566000000E+00 0.  1.
    -200003    1    4    4    0    0  0.19192727332E+03 -0.72199312233E+02  0.17230569542E+02  0.20795603251E+03  0.30000000000E+02 0.  1.
    -200000    1    3    3    0    0  0.13711610967E+03  0.50355129535E+03  0.10657629100E+02  0.53167595360E+03  0.10100000000E+03 0. -1.
<mgrwt>
<rscale>  0 0.16063846E+04</rscale>
<asrwt>0</asrwt>
<pdfrwt beam="1">  1        2 0.10803378E+00 0.16063846E+04</pdfrwt>
<pdfrwt beam="2">  1       -2 0.12186624E+00 0.16063846E+04</pdfrwt>
<totfact> 0.20053411E+01</totfact>
</mgrwt>
</event>
<event>
 8    2  0.4480234E-052  0.1525339E+04  0.7818608E-02  0.8867775E-01
         -2   -1    0    0    0  501 -0.00000000000E+00  0.00000000000E+00  0.66509898299E+03  0.66509898300E+03  0.25500000000E-02 0. -1.
          2   -1    0    0  501    0  0.00000000000E+00 -0.00000000000E+00 -0.87455363624E+03  0.87455363624E+03  0.25500000000E-02 0.  1.
    -200001    2    1    2    0    0  0.33412751317E+03 -0.30399481787E+03 -0.14492693960E+03  0.77546228289E+03  0.61341983177E+03 0.  0.
   -5000001    2    3    3    0    0 -0.64140909706E+02 -0.17227566704E+02 -0.23962133780E+03  0.26553952202E+03  0.93177287302E+02 0.  0.
     200001    1    1    2    0    0 -0.33412751317E+03  0.30399481787E+03 -0.64527713642E+02  0.76419033635E+03  0.61300000000E+03 0. -1.
         13    1    4    4    0    0  0.10857407247E+02 -0.27378322378E+02 -0.37821457034E+02  0.47936725009E+02  0.10566000000E+00 0.  1.
    -200003    1    4    4    0    0 -0.74998316953E+02  0.10150755674E+02 -0.20179988077E+03  0.21760279701E+03  0.30000000000E+02 0.  1.
    -200000    1    3    3    0    0  0.39826842288E+03 -0.28676725116E+03  0.94694398203E+02  0.50992276087E+03  0.10100000000E+03 0. -1.
<mgrwt>
<rscale>  0 0.15253390E+04</rscale>
<asrwt>0</asrwt>
<pdfrwt beam="1">  1        2 0.12493623E+00 0.15253390E+04</pdfrwt>
<pdfrwt beam="2">  1       -2 0.95014140E-01 0.15253390E+04</pdfrwt>
<totfact> 0.30438852E+01</totfact>
</mgrwt>
</event>
<event>
 8    2  0.4480234E-052  0.1291869E+04  0.7818608E-02  0.9036038E-01
          2   -1    0    0  501    0  0.00000000000E+00  0.00000000000E+00  0.88018807556E+03  0.88018807557E+03  0.25500000000E-02 0. -1.
         -2   -1    0    0    0  501 -0.00000000000E+00 -0.00000000000E+00 -0.47402515394E+03  0.47402515395E+03  0.25500000000E-02 0.  1.
    -200001    2    1    2    0    0  0.33828911345E+02  0.14928676292E+03  0.67310820881E+02  0.63726087475E+03  0.61493068150E+03 0.  0.
   -5000001    2    3    3    0    0  0.11475981240E+03  0.32838611616E+03 -0.88807558719E+02  0.36670526581E+03  0.74690786976E+02 0.  0.
     200001    1    1    2    0    0 -0.33828911345E+02 -0.14928676292E+03  0.33885210074E+03  0.71695235477E+03  0.61300000000E+03 0.  1.
         13    1    4    4    0    0  0.26542786019E+02  0.14092139857E+03 -0.12721700111E+02  0.14396253986E+03  0.10566000000E+00 0.  1.
    -200003    1    4    4    0    0  0.88217026383E+02  0.18746471759E+03 -0.76085858608E+02  0.22274272595E+03  0.30000000000E+02 0.  1.
    -200000    1    3    3    0    0 -0.80930901057E+02 -0.17909935324E+03  0.15611837960E+03  0.27055560893E+03  0.10100000000E+03 0. -1.
<mgrwt>
<rscale>  0 0.12918689E+04</rscale>
<asrwt>0</asrwt>
<pdfrwt beam="1">  1        2 0.12574115E+00 0.12918689E+04</pdfrwt>
<pdfrwt beam="2">  1       -2 0.67717879E-01 0.12918689E+04</pdfrwt>
<totfact> 0.65751377E+01</totfact>
</mgrwt>
</event>
<event>
 8    2  0.4480234E-052  0.2075175E+04  0.7818608E-02  0.8572258E-01
         -2   -1    0    0    0  501 -0.00000000000E+00  0.00000000000E+00  0.38260342632E+03  0.38260342633E+03  0.25500000000E-02 0. -1.
          2   -1    0    0  501    0  0.00000000000E+00 -0.00000000000E+00 -0.28138490300E+04  0.28138490300E+04  0.25500000000E-02 0.  1.
    -200001    2    1    2    0    0  0.16609479093E+03  0.70611214678E+03 -0.18608584445E+04  0.20886201789E+04  0.61103048874E+03 0.  0.
   -5000001    2    3    3    0    0  0.10845945223E+03  0.63692470210E+03 -0.85818779538E+03  0.10768602443E+04  0.75532541021E+02 0.  0.
     200001    1    1    2    0    0 -0.16609479093E+03 -0.70611214678E+03 -0.57038715920E+03  0.11078322774E+04  0.61300000000E+03 0. -1.
         13    1    4    4    0    0  0.43757330463E+02  0.40468256315E+03 -0.51670775578E+03  0.65777625142E+03  0.10566000000E+00 0.  1.
    -200003    1    4    4    0    0  0.64702121770E+02  0.23224213894E+03 -0.34148003961E+03  0.41908399291E+03  0.30000000000E+02 0.  1.
    -200000    1    3    3    0    0  0.57635338701E+02  0.69187444680E+02 -0.10026706491E+04  0.10117599346E+04  0.10100000000E+03 0.  1.
<mgrwt>
<rscale>  0 0.20751754E+04</rscale>
<asrwt>0</asrwt>
<pdfrwt beam="1">  1        2 0.40197842E+00 0.20751754E+04</pdfrwt>
<pdfrwt beam="2">  1       -2 0.54657634E-01 0.20751754E+04</pdfrwt>
<totfact> 0.87344800E+00</totfact>
</mgrwt>
</event>
<event>
 8    2  0.4480234E-052  0.1816405E+04  0.7818608E-02  0.8697624E-01
          2   -1    0    0  501    0  0.00000000000E+00  0.00000000000E+00  0.11049975218E+04  0.11049975218E+04  0.25500000000E-02 0.  1.
         -2   -1    0    0    0  501 -0.00000000000E+00 -0.00000000000E+00 -0.74645605202E+03  0.74645605203E+03  0.25500000000E-02 0. -1.
    -200001    2    1    2    0    0  0.54531276861E+03 -0.41701650245E+02 -0.21475564062E+03  0.84968333070E+03  0.61378883506E+03 0.  0.
   -5000001    2    3    3    0    0  0.43780803893E+03  0.23778449538E+03 -0.11876202987E+03  0.51940232034E+03  0.86353954453E+02 0.  0.
     200001    1    1    2    0    0 -0.54531276861E+03  0.41701650245E+02  0.57329711040E+03  0.10017702431E+04  0.61300000000E+03 0.  1.
         13    1    4    4    0    0  0.22923285343E+03  0.12251606020E+03 -0.99964994741E+02  0.27847961763E+03  0.10566000000E+00 0.  1.
    -200003    1    4    4    0    0  0.20857518549E+03  0.11526843517E+03 -0.18797035131E+02  0.24092270271E+03  0.30000000000E+02 0.  1.
    -200000    1    3    3    0    0  0.10750472969E+03 -0.27948614562E+03 -0.95993610743E+02  0.33028101036E+03  0.10100000000E+03 0.  1.
<mgrwt>
<rscale>  0 0.18164053E+04</rscale>
<asrwt>0</asrwt>
<pdfrwt beam="1">  1        2 0.15785679E+00 0.18164053E+04</pdfrwt>
<pdfrwt beam="2">  1       -2 0.10663658E+00 0.18164053E+04</pdfrwt>
<totfact> 0.16258271E+01</totfact>
</mgrwt>
</event>
<event>
 8    2  0.4480234E-052  0.1771276E+04  0.7818608E-02  0.8721726E-01
         -2   -1    0    0    0  501 -0.00000000000E+00  0.00000000000E+00  0.26920316868E+03  0.26920316869E+03  0.25500000000E-02 0. -1.
          2   -1    0    0  501    0  0.00000000000E+00 -0.00000000000E+00 -0.29136146956E+04  0.29136146956E+04  0.25500000000E-02 0.  1.
    -200001    2    1    2    0    0  0.61543460218E+03 -0.11404486495E+03 -0.10937303006E+04  0.14017655780E+04  0.61395014817E+03 0.  0.
   -5000001    2    3    3    0    0 -0.16234600258E+02  0.15804488236E+03 -0.26025458872E+03  0.31644462354E+03  0.84634518542E+02 0.  0.
     200001    1    1    2    0    0 -0.61543460218E+03  0.11404486495E+03 -0.15506812263E+04  0.17810522863E+04  0.61300000000E+03 0.  1.
         13    1    4    4    0    0  0.18372290646E+02  0.92205364002E+02 -0.17948964683E+03  0.20262259177E+03  0.10566000000E+00 0.  1.
    -200003    1    4    4    0    0 -0.34606890904E+02  0.65839518361E+02 -0.80764941894E+02  0.11382203177E+03  0.30000000000E+02 0.  1.
    -200000    1    3    3    0    0  0.63166920244E+03 -0.27208974732E+03 -0.83347571183E+03  0.10853209544E+04  0.10100000000E+03 0. -1.
<mgrwt>
<rscale>  0 0.17712756E+04</rscale>
<asrwt>0</asrwt>
<pdfrwt beam="1">  1        2 0.41623065E+00 0.17712756E+04</pdfrwt>
<pdfrwt beam="2">  1       -2 0.38457597E-01 0.17712756E+04</pdfrwt>
<totfact> 0.15998073E+01</totfact>
</mgrwt>
</event>
<event>
 8    2  0.4480234E-052  0.1669980E+04  0.7818608E-02  0.8778673E-01
         -2   -1    0    0    0  501 -0.00000000000E+00  0.00000000000E+00  0.50424350386E+03  0.50424350387E+03  0.25500000000E-02 0. -1.
          2   -1    0    0  501    0  0.00000000000E+00 -0.00000000000E+00 -0.13826819000E+04  0.13826819000E+04  0.25500000000E-02 0.  1.
    -200001    2    1    2    0    0  0.26567966975E+03 -0.22056967906E+03 -0.94730847351E+03  0.11799963001E+04  0.61299368182E+03 0.  0.
   -5000001    2    3    3    0    0 -0.51368891629E+02 -0.18786037734E+03 -0.78012081729E+03  0.80617495091E+03  0.58303323268E+02 0.  0.
     200001    1    1    2    0    0 -0.26567966975E+03  0.22056967906E+03  0.68870077369E+02  0.70692910380E+03  0.61300000000E+03 0. -1.
         13    1    4    4    0    0  0.77313225898E+01 -0.70329715904E+01 -0.32093852383E+02  0.33752963769E+02  0.10566000000E+00 0.  1.
    -200003    1    4    4    0    0 -0.59100214218E+02 -0.18082740575E+03 -0.74802696491E+03  0.77242198714E+03  0.30000000000E+02 0.  1.
    -200000    1    3    3    0    0  0.31704856138E+03 -0.32709301724E+02 -0.16718765622E+03  0.37382134916E+03  0.10100000000E+03 0. -1.
<mgrwt>
<rscale>  0 0.16699801E+04</rscale>
<asrwt>0</asrwt>
<pdfrwt beam="1">  1        2 0.19752598E+00 0.16699801E+04</pdfrwt>
<pdfrwt beam="2">  1       -2 0.72034787E-01 0.16699801E+04</pdfrwt>
<totfact> 0.28221864E+01</totfact>
</mgrwt>
</event>
<event>
 8    2  0.4480234E-052  0.1308950E+04  0.7818608E-02  0.9022498E-01
         -2   -1    0    0    0  501 -0.00000000000E+00  0.00000000000E+00  0.31310483952E+03  0.31310483953E+03  0.25500000000E-02 0. -1.
          2   -1    0    0  501    0  0.00000000000E+00 -0.00000000000E+00 -0.13680325268E+04  0.13680325268E+04  0.25500000000E-02 0.  1.
    -200001    2    1    2    0    0 -0.99651477805E+01  0.10694354179E+03 -0.79070460764E+03  0.10050315602E+04  0.61101426749E+03 0.  0.
   -5000001    2    3    3    0    0  0.14600418456E+03  0.29028004433E+03 -0.58331625987E+03  0.67164044962E+03  0.72548662916E+02 0.  0.
     200001    1    1    2    0    0  0.99651477805E+01 -0.10694354179E+03 -0.26422307960E+03  0.67610580614E+03  0.61300000000E+03 0. -1.
         13    1    4    4    0    0  0.71843009016E+02  0.78666376525E+02 -0.19671624461E+03  0.22371211142E+03  0.10566000000E+00 0.  1.
    -200003    1    4    4    0    0  0.74161175546E+02  0.21161366781E+03 -0.38660001526E+03  0.44792833820E+03  0.30000000000E+02 0.  1.
    -200000    1    3    3    0    0 -0.15596933234E+03 -0.18333650254E+03 -0.20738834777E+03  0.33339111054E+03  0.10100000000E+03 0.  1.
<mgrwt>
<rscale>  0 0.13089501E+04</rscale>
<asrwt>0</asrwt>
<pdfrwt beam="1">  1        2 0.19543322E+00 0.13089501E+04</pdfrwt>
<pdfrwt beam="2">  1       -2 0.44729263E-01 0.13089501E+04</pdfrwt>
<totfact> 0.79976281E+01</totfact>
</mgrwt>
</event>
<event>
 8    2  0.4480234E-052  0.1960514E+04  0.7818608E-02  0.8625307E-01
         -2   -1    0    0    0  501 -0.00000000000E+00  0.00000000000E+00  0.10566963451E+04  0.10566963451E+04  0.25500000000E-02 0. -1.
          2   -1    0    0  501    0  0.00000000000E+00 -0.00000000000E+00 -0.90934744377E+03  0.90934744378E+03  0.25500000000E-02 0.  1.
    -200001    2    1    2    0    0 -0.73422255718E+03 -0.78916157800E+02  0.27618670770E+03  0.99770567451E+03  0.61141392854E+03 0.  0.
   -5000001    2    3    3    0    0 -0.41807435517E+03 -0.29361687227E+03  0.43438145440E+01  0.51797070499E+03  0.85309720264E+02 0.  0.
     200001    1    1    2    0    0  0.73422255718E+03  0.78916157800E+02 -0.12883780635E+03  0.96833811439E+03  0.61300000000E+03 0.  1.
         13    1    4    4    0    0 -0.24388406879E+03 -0.13815315134E+03 -0.21720985599E+02  0.28113616739E+03  0.10566000000E+00 0.  1.
    -200003    1    4    4    0    0 -0.17419028637E+03 -0.15546372093E+03  0.26064800143E+02  0.23683453759E+03  0.30000000000E+02 0.  1.
    -200000    1    3    3    0    0 -0.31614820201E+03  0.21470071447E+03  0.27184289315E+03  0.47973496953E+03  0.10100000000E+03 0. -1.
<mgrwt>
<rscale>  0 0.19605143E+04</rscale>
<asrwt>0</asrwt>
<pdfrwt beam="1">  1        2 0.12990678E+00 0.19605143E+04</pdfrwt>
<pdfrwt beam="2">  1       -2 0.15095662E+00 0.19605143E+04</pdfrwt>
<totfact> 0.88345832E+00</totfact>
</mgrwt>
</event>
<event>
 8    2  0.4480234E-052  0.1371458E+04  0.7818608E-02  0.8974742E-01
         -2   -1    0    0    0  501 -0.00000000000E+00  0.00000000000E+00  0.33631224103E+03  0.33631224104E+03  0.25500000000E-02 0. -1.
          2   -1    0    0  501    0  0.00000000000E+00 -0.00000000000E+00 -0.13981773323E+04  0.13981773323E+04  0.25500000000E-02 0.  1.
    -200001    2    1    2    0    0 -0.28101906133E+03 -0.11916452359E+03 -0.48630526566E+03  0.83994499124E+03  0.61306025837E+03 0.  0.
   -5000001    2    3    3    0    0 -0.37055172097E+03 -0.26490652613E+03 -0.43234960317E+03  0.63410757491E+03  0.87648112916E+02 0.  0.
     200001    1    1    2    0    0  0.28101906133E+03  0.11916452359E+03 -0.57555982560E+03  0.89454458210E+03  0.61300000000E+03 0.  1.
         13    1    4    4    0    0 -0.15249344028E+03 -0.80927103069E+02 -0.20540643949E+03  0.26831932821E+03  0.10566000000E+00 0.  1.
    -200003    1    4    4    0    0 -0.21805828069E+03 -0.18397942306E+03 -0.22694316367E+03  0.36578824671E+03  0.30000000000E+02 0.  1.
    -200000    1    3    3    0    0  0.89532659642E+02  0.14574200254E+03 -0.53955662493E+02  0.20583741633E+03  0.10100000000E+03 0. -1.
<mgrwt>
<rscale>  0 0.13714578E+04</rscale>
<asrwt>0</asrwt>
<pdfrwt beam="1">  1        2 0.19973962E+00 0.13714578E+04</pdfrwt>
<pdfrwt beam="2">  1       -2 0.48044606E-01 0.13714578E+04</pdfrwt>
<totfact> 0.66420033E+01</totfact>
</mgrwt>
</event>
<event>
 8    2  0.4480234E-052  0.1651511E+04  0.7818608E-02  0.8789513E-01
          2   -1    0    0  501    0  0.00000000000E+00  0.00000000000E+00  0.10407637634E+04  0.10407637634E+04  0.25500000000E-02 0.  1.
         -2   -1    0    0    0  501 -0.00000000000E+00 -0.00000000000E+00 -0.65516478675E+03  0.65516478675E+03  0.25500000000E-02 0. -1.
    -200001    2    1    2    0    0 -0.93760411011E+02 -0.51913608242E+03  0.21486932837E+02  0.80900134503E+03  0.61296672114E+03 0.  0.
   -5000001    2    3    3    0    0 -0.21218239076E+02 -0.18667162557E+03  0.29590705825E+03  0.36033399942E+03  0.83564912193E+02 0.  0.
     200001    1    1    2    0    0  0.93760411011E+02  0.51913608242E+03  0.36411204383E+03  0.88692720513E+03  0.61300000000E+03 0.  1.
         13    1    4    4    0    0 -0.10058862863E+02 -0.15299275230E+03  0.18625665029E+03  0.24124575420E+03  0.10566000000E+00 0.  1.
    -200003    1    4    4    0    0 -0.11159376213E+02 -0.33678873265E+02  0.10965040796E+03  0.11908824521E+03  0.30000000000E+02 0.  1.
    -200000    1    3    3    0    0 -0.72542171935E+02 -0.33246445686E+03 -0.27442012542E+03  0.44866734561E+03  0.10100000000E+03 0. -1.
<mgrwt>
<rscale>  0 0.16515105E+04</rscale>
<asrwt>0</asrwt>
<pdfrwt beam="1">  1        2 0.14868054E+00 0.16515105E+04</pdfrwt>
<pdfrwt beam="2">  1       -2 0.93594969E-01 0.16515105E+04</pdfrwt>
<totfact> 0.24504725E+01</totfact>
</mgrwt>
</event>
<event>
 8    2  0.4480234E-052  0.1277490E+04  0.7818608E-02  0.9047609E-01
          2   -1    0    0  501    0  0.00000000000E+00  0.00000000000E+00  0.79032981670E+03  0.79032981670E+03  0.25500000000E-02 0.  1.
         -2   -1    0    0    0  501 -0.00000000000E+00 -0.00000000000E+00 -0.51623398920E+03  0.51623398920E+03  0.25500000000E-02 0. -1.
    -200001    2    1    2    0    0  0.15539266463E+02  0.15303562001E+03  0.22892949175E+03  0.67294691244E+03  0.61383015972E+03 0.  0.
   -5000001    2    3    3    0    0  0.10482767020E+03 -0.59931969418E+02 -0.14305031578E+03  0.22361675499E+03  0.12231262759E+03 0.  0.
     200001    1    1    2    0    0 -0.15539266463E+02 -0.15303562001E+03  0.45166335754E+02  0.63361689346E+03  0.61300000000E+03 0. -1.
         13    1    4    4    0    0  0.48852428448E+02  0.31735003489E+02 -0.66209139310E+02  0.88189180197E+02  0.10566000000E+00 0.  1.
    -200003    1    4    4    0    0  0.55975241756E+02 -0.91666972907E+02 -0.76841176472E+02  0.13542757479E+03  0.30000000000E+02 0.  1.
    -200000    1    3    3    0    0 -0.89288403741E+02  0.21296758943E+03  0.37197980753E+03  0.44933015745E+03  0.10100000000E+03 0.  1.
<mgrwt>
<rscale>  0 0.12774899E+04</rscale>
<asrwt>0</asrwt>
<pdfrwt beam="1">  1        2 0.11290426E+00 0.12774899E+04</pdfrwt>
<pdfrwt beam="2">  1       -2 0.73747713E-01 0.12774899E+04</pdfrwt>
<totfact> 0.62917266E+01</totfact>
</mgrwt>
</event>
<event>
 8    2  0.4480234E-052  0.1307801E+04  0.7818608E-02  0.9023402E-01
         -2   -1    0    0    0  501 -0.00000000000E+00  0.00000000000E+00  0.37874186990E+03  0.37874186991E+03  0.25500000000E-02 0. -1.
          2   -1    0    0  501    0  0.00000000000E+00 -0.00000000000E+00 -0.11289639987E+04  0.11289639987E+04  0.25500000000E-02 0.  1.
    -200001    2    1    2    0    0 -0.56169598749E+02  0.16842028446E+03 -0.54094153020E+03  0.83607517767E+03  0.61227734531E+03 0.  0.
   -5000001    2    3    3    0    0 -0.11148259297E+03 -0.12442984283E+03 -0.48238713969E+03  0.51599652947E+03  0.75125971315E+02 0.  0.
     200001    1    1    2    0    0  0.56169598749E+02 -0.16842028446E+03 -0.20928059857E+03  0.67163069091E+03  0.61300000000E+03 0. -1.
         13    1    4    4    0    0 -0.28362361165E+01 -0.12263795396E+01 -0.83645533555E+02  0.83702656408E+02  0.10566000000E+00 0.  1.
    -200003    1    4    4    0    0 -0.10864635686E+03 -0.12320346329E+03 -0.39874160613E+03  0.43229387306E+03  0.30000000000E+02 0.  1.
    -200000    1    3    3    0    0  0.55312994225E+02  0.29285012729E+03 -0.58554390515E+02  0.32007864820E+03  0.10100000000E+03 0. -1.
<mgrwt>
<rscale>  0 0.13078011E+04</rscale>
<asrwt>0</asrwt>
<pdfrwt beam="1">  1        2 0.16128057E+00 0.13078011E+04</pdfrwt>
<pdfrwt beam="2">  1       -2 0.54105982E-01 0.13078011E+04</pdfrwt>
<totfact> 0.74073102E+01</totfact>
</mgrwt>
</event>
<event>
 8    2  0.4480234E-052  0.1585329E+04  0.7818608E-02  0.8829612E-01
         -2   -1    0    0    0  501 -0.00000000000E+00  0.00000000000E+00  0.42660856776E+03  0.42660856777E+03  0.25500000000E-02 0.  1.
          2   -1    0    0  501    0  0.00000000000E+00 -0.00000000000E+00 -0.14728190398E+04  0.14728190398E+04  0.25500000000E-02 0. -1.
    -200001    2    1    2    0    0  0.17049615899E+03  0.13645131638E+03  0.19251908805E+02  0.65096175423E+03  0.61293773542E+03 0.  0.
   -5000001    2    3    3    0    0  0.37081853030E+03  0.13112077510E+03  0.50728570879E+02  0.42435803102E+03  0.15102089428E+03 0.  0.
     200001    1    1    2    0    0 -0.17049615899E+03 -0.13645131638E+03 -0.10654623809E+04  0.12484658534E+04  0.61300000000E+03 0. -1.
         13    1    4    4    0    0  0.65626635634E+02 -0.20304478872E+02  0.45330328929E+02  0.82304173963E+02  0.10566000000E+00 0.  1.
    -200003    1    4    4    0    0  0.30519189467E+03  0.15142525397E+03  0.53982419499E+01  0.34205385706E+03  0.30000000000E+02 0.  1.
    -200000    1    3    3    0    0 -0.20032237131E+03  0.53305412837E+01 -0.31476662074E+02  0.22660372321E+03  0.10100000000E+03 0. -1.
<mgrwt>
<rscale>  0 0.15853293E+04</rscale>
<asrwt>0</asrwt>
<pdfrwt beam="1">  1        2 0.21040272E+00 0.15853293E+04</pdfrwt>
<pdfrwt beam="2">  1       -2 0.60944082E-01 0.15853293E+04</pdfrwt>
<totfact> 0.36428251E+01</totfact>
</mgrwt>
</event>
<event>
 8    2  0.4480234E-052  0.1876019E+04  0.7818608E-02  0.8666886E-01
          2   -1    0    0  501    0  0.00000000000E+00  0.00000000000E+00  0.17596886760E+04  0.17596886760E+04  0.25500000000E-02 0.  1.
         -2   -1    0    0    0  501 -0.00000000000E+00 -0.00000000000E+00 -0.50000991853E+03  0.50000991853E+03  0.25500000000E-02 0. -1.
    -200001    2    1    2    0    0  0.10219101586E+03 -0.15421273157E+03  0.14555970149E+04  0.15900886081E+04  0.61269449279E+03 0.  0.
   -5000001    2    3    3    0    0  0.13022343129E+03 -0.14909467671E+03  0.14696379476E+04  0.14842105717E+04  0.62112473585E+02 0.  0.
     200001    1    1    2    0    0 -0.10219101586E+03  0.15421273157E+03 -0.19591825746E+03  0.66960998641E+03  0.61300000000E+03 0. -1.
         13    1    4    4    0    0  0.84380247427E+02 -0.91067308122E+02  0.75626498098E+03  0.76638763911E+03  0.10566000000E+00 0.  1.
    -200003    1    4    4    0    0  0.45843183863E+02 -0.58027368587E+02  0.71337296666E+03  0.71782293260E+03  0.30000000000E+02 0.  1.
    -200000    1    3    3    0    0 -0.28032415426E+02 -0.51180548582E+01 -0.14040932711E+02  0.10587803640E+03  0.10100000000E+03 0.  1.
<mgrwt>
<rscale>  0 0.18760190E+04</rscale>
<asrwt>0</asrwt>
<pdfrwt beam="1">  1        2 0.25138409E+00 0.18760190E+04</pdfrwt>
<pdfrwt beam="2">  1       -2 0.71429989E-01 0.18760190E+04</pdfrwt>
<totfact> 0.17878416E+01</totfact>
</mgrwt>
</event>
<event>
 8    2  0.4480234E-052  0.1479541E+04  0.7818608E-02  0.8898173E-01
          2   -1    0    0  501    0  0.00000000000E+00  0.00000000000E+00  0.21059328444E+04  0.21059328444E+04  0.25500000000E-02 0.  1.
         -2   -1    0    0    0  501 -0.00000000000E+00 -0.00000000000E+00 -0.25986603083E+03  0.25986603084E+03  0.25500000000E-02 0. -1.
    -200001    2    1    2    0    0  0.13973272009E+03 -0.15544195479E+03  0.35161820075E+03  0.73704687119E+03  0.61311931698E+03 0.  0.
   -5000001    2    3    3    0    0  0.42195546077E-01 -0.23167749306E+03  0.45263457907E+03  0.52319970934E+03  0.12322910012E+03 0.  0.
     200001    1    1    2    0    0 -0.13973272009E+03  0.15544195479E+03  0.14944486129E+04  0.16287520041E+04  0.61300000000E+03 0.  1.
         13    1    4    4    0    0  0.11337615646E+02 -0.19626804452E+03  0.42437801524E+03  0.46770332243E+03  0.10566000000E+00 0.  1.
    -200003    1    4    4    0    0 -0.11295420100E+02 -0.35409448538E+02  0.28256563830E+02  0.55496386914E+02  0.30000000000E+02 0.  1.
    -200000    1    3    3    0    0  0.13969052454E+03  0.76235538267E+02 -0.10101637832E+03  0.21384716185E+03  0.10100000000E+03 0. -1.
<mgrwt>
<rscale>  0 0.14795410E+04</rscale>
<asrwt>0</asrwt>
<pdfrwt beam="1">  1        2 0.30084756E+00 0.14795410E+04</pdfrwt>
<pdfrwt beam="2">  1       -2 0.37123718E-01 0.14795410E+04</pdfrwt>
<totfact> 0.46890792E+01</totfact>
</mgrwt>
</event>
<event>
 8    2  0.4480234E-052  0.1328377E+04  0.7818608E-02  0.9007360E-01
         -2   -1    0    0    0  501 -0.00000000000E+00  0.00000000000E+00  0.14224588968E+03  0.14224588970E+03  0.25500000000E-02 0. -1.
          2   -1    0    0  501    0  0.00000000000E+00 -0.00000000000E+00 -0.31012956879E+04  0.31012956879E+04  0.25500000000E-02 0.  1.
    -200001    2    1    2    0    0  0.23883308953E+03  0.88379861228E+02 -0.15118820101E+04  0.16513996707E+04  0.61358081425E+03 0.  0.
   -5000001    2    3    3    0    0 -0.13008230094E+03  0.18409811729E+03 -0.40105032876E+03  0.47266790563E+03  0.10844381500E+03 0.  0.
     200001    1    1    2    0    0 -0.23883308953E+03 -0.88379861228E+02 -0.14471677882E+04  0.15921419069E+04  0.61300000000E+03 0. -1.
         13    1    4    4    0    0 -0.11470371920E+03  0.99870790170E+02 -0.30334887032E+03  0.33934004512E+03  0.10566000000E+00 0.  1.
    -200003    1    4    4    0    0 -0.15378581736E+02  0.84227327118E+02 -0.97701458431E+02  0.13332786051E+03  0.30000000000E+02 0.  1.
    -200000    1    3    3    0    0  0.36891539046E+03 -0.95718256061E+02 -0.11108316813E+04  0.11787317651E+04  0.10100000000E+03 0. -1.
<mgrwt>
<rscale>  0 0.13283773E+04</rscale>
<asrwt>0</asrwt>
<pdfrwt beam="1">  1        2 0.44304220E+00 0.13283773E+04</pdfrwt>
<pdfrwt beam="2">  1       -2 0.20320843E-01 0.13283773E+04</pdfrwt>
<totfact> 0.42454157E+01</totfact>
</mgrwt>
</event>
<event>
 8    2  0.4480234E-052  0.2089498E+04  0.7818608E-02  0.8565884E-01
          2   -1    0    0  501    0  0.00000000000E+00  0.00000000000E+00  0.80019257000E+03  0.80019257000E+03  0.25500000000E-02 0. -1.
         -2   -1    0    0    0  501 -0.00000000000E+00 -0.00000000000E+00 -0.13640469780E+04  0.13640469780E+04  0.25500000000E-02 0.  1.
    -200001    2    1    2    0    0  0.62203983136E+03  0.57320977514E+03 -0.26540828083E+03  0.10778040511E+04  0.61295759962E+03 0.  0.
   -5000001    2    3    3    0    0  0.67961315034E+03  0.51295246047E+03 -0.93144535418E+02  0.86142145242E+03  0.91524605390E+02 0.  0.
     200001    1    1    2    0    0 -0.62203983136E+03 -0.57320977514E+03 -0.29844612718E+03  0.10864354969E+04  0.61300000000E+03 0. -1.
         13    1    4    4    0    0  0.27870066681E+03  0.26077653828E+03 -0.34499675243E+02  0.38323452787E+03  0.10566000000E+00 0.  1.
    -200003    1    4    4    0    0  0.40091248353E+03  0.25217592219E+03 -0.58644860174E+02  0.47818692454E+03  0.30000000000E+02 0. -1.
    -200000    1    3    3    0    0 -0.57573318984E+02  0.60257314676E+02 -0.17226374541E+03  0.21638259868E+03  0.10100000000E+03 0. -1.
<mgrwt>
<rscale>  0 0.20894978E+04</rscale>
<asrwt>0</asrwt>
<pdfrwt beam="1">  1        2 0.11431323E+00 0.20894978E+04</pdfrwt>
<pdfrwt beam="2">  1       -2 0.19486385E+00 0.20894978E+04</pdfrwt>
<totfact> 0.50580389E+00</totfact>
</mgrwt>
</event>
<event>
 8    2  0.4480234E-052  0.1593019E+04  0.7818608E-02  0.8824848E-01
          2   -1    0    0  501    0  0.00000000000E+00  0.00000000000E+00  0.16436141259E+04  0.16436141259E+04  0.25500000000E-02 0.  1.
         -2   -1    0    0    0  501 -0.00000000000E+00 -0.00000000000E+00 -0.38599513824E+03  0.38599513825E+03  0.25500000000E-02 0. -1.
    -200001    2    1    2    0    0 -0.50523143213E+03 -0.46466838276E+02  0.66569540796E+03  0.10378630813E+04  0.61367045898E+03 0.  0.
   -5000001    2    3    3    0    0 -0.51354291647E+03 -0.16887521573E+03  0.68696584356E+03  0.87753116594E+03  0.76770511548E+02 0.  0.
     200001    1    1    2    0    0  0.50523143213E+03  0.46466838276E+02  0.59192357975E+03  0.99174618292E+03  0.61300000000E+03 0.  1.
         13    1    4    4    0    0 -0.70279467414E+01 -0.13629835342E+02  0.21605583498E+02  0.26494845710E+02  0.10566000000E+00 0.  1.
    -200003    1    4    4    0    0 -0.50651496973E+03 -0.15524538039E+03  0.66536026006E+03  0.85103632023E+03  0.30000000000E+02 0.  1.
    -200000    1    3    3    0    0  0.83114843350E+01  0.12240837746E+03 -0.21270435596E+02  0.16033191533E+03  0.10100000000E+03 0. -1.
<mgrwt>
<rscale>  0 0.15930186E+04</rscale>
<asrwt>0</asrwt>
<pdfrwt beam="1">  1        2 0.23480202E+00 0.15930186E+04</pdfrwt>
<pdfrwt beam="2">  1       -2 0.55142162E-01 0.15930186E+04</pdfrwt>
<totfact> 0.36486242E+01</totfact>
</mgrwt>
</event>
<event>
 8    2  0.4480234E-052  0.1265614E+04  0.7818608E-02  0.9057287E-01
          2   -1    0    0  501    0  0.00000000000E+00  0.00000000000E+00  0.85845263237E+03  0.85845263238E+03  0.25500000000E-02 0.  1.
         -2   -1    0    0    0  501 -0.00000000000E+00 -0.00000000000E+00 -0.46647251612E+03  0.46647251612E+03  0.25500000000E-02 0. -1.
    -200001    2    1    2    0    0  0.40983539949E+02  0.13919025484E+03  0.26054098948E+03  0.68142004235E+03  0.61269738806E+03 0.  0.
   -5000001    2    3    3    0    0 -0.12137974124E+03 -0.16972727496E+03 -0.21002739207E+02  0.22179003196E+03  0.72175576015E+02 0.  0.
     200001    1    1    2    0    0 -0.40983539949E+02 -0.13919025484E+03  0.13143912678E+03  0.64350510615E+03  0.61300000000E+03 0. -1.
         13    1    4    4    0    0 -0.21244509468E+02 -0.53764619029E+02 -0.30530586315E+02  0.65376534832E+02  0.10566000000E+00 0.  1.
    -200003    1    4    4    0    0 -0.10013523178E+03 -0.11596265593E+03  0.95278471079E+01  0.15641349713E+03  0.30000000000E+02 0.  1.
    -200000    1    3    3    0    0  0.16236328119E+03  0.30891752979E+03  0.28154372869E+03  0.45963001040E+03  0.10100000000E+03 0.  1.
<mgrwt>
<rscale>  0 0.12656138E+04</rscale>
<asrwt>0</asrwt>
<pdfrwt beam="1">  1        2 0.12263609E+00 0.12656138E+04</pdfrwt>
<pdfrwt beam="2">  1       -2 0.66638932E-01 0.12656138E+04</pdfrwt>
<totfact> 0.70515853E+01</totfact>
</mgrwt>
</event>
<event>
 8    2  0.4480234E-052  0.1232380E+04  0.7818608E-02  0.9084977E-01
          2   -1    0    0  501    0  0.00000000000E+00  0.00000000000E+00  0.81149395007E+03  0.81149395007E+03  0.25500000000E-02 0.  1.
         -2   -1    0    0    0  501 -0.00000000000E+00 -0.00000000000E+00 -0.46789028168E+03  0.46789028168E+03  0.25500000000E-02 0. -1.
    -200001    2    1    2    0    0  0.55330265279E+02 -0.34030539369E+02  0.17205700616E+03  0.63952739372E+03  0.61251298605E+03 0.  0.
   -5000001    2    3    3    0    0  0.27535444691E+03  0.19981785082E+02  0.23671321540E+03  0.38318895125E+03  0.12075298276E+03 0.  0.
     200001    1    1    2    0    0 -0.55330265279E+02  0.34030539369E+02  0.17154666223E+03  0.63985683804E+03  0.61300000000E+03 0. -1.
         13    1    4    4    0    0  0.10828072838E+03  0.64601745826E+01  0.24684320258E+02  0.11124646882E+03  0.10566000000E+00 0.  1.
    -200003    1    4    4    0    0  0.16707371853E+03  0.13521610499E+02  0.21202889514E+03  0.27194248243E+03  0.30000000000E+02 0.  1.
    -200000    1    3    3    0    0 -0.22002418163E+03 -0.54012324450E+02 -0.64656209241E+02  0.25633844247E+03  0.10100000000E+03 0. -1.
<mgrwt>
<rscale>  0 0.12323800E+04</rscale>
<asrwt>0</asrwt>
<pdfrwt beam="1">  1        2 0.11592771E+00 0.12323800E+04</pdfrwt>
<pdfrwt beam="2">  1       -2 0.66841469E-01 0.12323800E+04</pdfrwt>
<totfact> 0.75601202E+01</totfact>
</mgrwt>
</event>
<event>
 8    2  0.4480234E-052  0.1291945E+04  0.7818608E-02  0.9035978E-01
          2   -1    0    0  501    0  0.00000000000E+00  0.00000000000E+00  0.93498437941E+03  0.93498437941E+03  0.25500000000E-02 0.  1.
         -2   -1    0    0    0  501 -0.00000000000E+00 -0.00000000000E+00 -0.44629646288E+03  0.44629646289E+03  0.25500000000E-02 0. -1.
    -200001    2    1    2    0    0  0.43274102560E+02  0.17583366279E+03  0.14475952565E+03  0.65543935617E+03  0.61307039109E+03 0.  0.
   -5000001    2    3    3    0    0 -0.10507759839E+03 -0.17270867256E+03  0.19257179132E+02  0.24380623593E+03  0.13491128370E+03 0.  0.
     200001    1    1    2    0    0 -0.43274102560E+02 -0.17583366279E+03  0.34392839088E+03  0.72584148612E+03  0.61300000000E+03 0.  1.
         13    1    4    4    0    0 -0.83101858810E+02 -0.14051908405E+03 -0.38714945486E+02  0.16778077985E+03  0.10566000000E+00 0.  1.
    -200003    1    4    4    0    0 -0.21975739578E+02 -0.32189588508E+02  0.57972124618E+02  0.76025456073E+02  0.30000000000E+02 0.  1.
    -200000    1    3    3    0    0  0.14835170095E+03  0.34854233535E+03  0.12550234652E+03  0.41163312025E+03  0.10100000000E+03 0.  1.
<mgrwt>
<rscale>  0 0.12919446E+04</rscale>
<asrwt>0</asrwt>
<pdfrwt beam="1">  1        2 0.13356919E+00 0.12919446E+04</pdfrwt>
<pdfrwt beam="2">  1       -2 0.63756639E-01 0.12919446E+04</pdfrwt>
<totfact> 0.68955811E+01</totfact>
</mgrwt>
</event>
<event>
 8    2  0.4480234E-052  0.1635495E+04  0.7818608E-02  0.8799034E-01
          2   -1    0    0  501    0  0.00000000000E+00  0.00000000000E+00  0.18262430967E+04  0.18262430967E+04  0.25500000000E-02 0.  1.
         -2   -1    0    0    0  501 -0.00000000000E+00 -0.00000000000E+00 -0.36616735522E+03  0.36616735523E+03  0.25500000000E-02 0. -1.
    -200001    2    1    2    0    0 -0.26170242235E+03 -0.11990874402E+03  0.13439162142E+04  0.15052945224E+04  0.61394995220E+03 0.  0.
   -5000001    2    3    3    0    0 -0.30629056246E+02 -0.46248806731E+02  0.11139044705E+04  0.11561139258E+04  0.30453103068E+03 0.  0.
     200001    1    1    2    0    0  0.26170242235E+03  0.11990874402E+03  0.11615952728E+03  0.68711592947E+03  0.61300000000E+03 0. -1.
         13    1    4    4    0    0  0.10250098784E+03  0.30104619533E+02  0.18085111648E+03  0.21004732353E+03  0.10566000000E+00 0.  1.
    -200003    1    4    4    0    0 -0.13313004409E+03 -0.76353426263E+02  0.93305335405E+03  0.94606660223E+03  0.30000000000E+02 0.  1.
    -200000    1    3    3    0    0 -0.23107336611E+03 -0.73659937294E+02  0.23001174364E+03  0.34918059668E+03  0.10100000000E+03 0. -1.
<mgrwt>
<rscale>  0 0.16354945E+04</rscale>
<asrwt>0</asrwt>
<pdfrwt beam="1">  1        2 0.26089187E+00 0.16354945E+04</pdfrwt>
<pdfrwt beam="2">  1       -2 0.52309623E-01 0.16354945E+04</pdfrwt>
<totfact> 0.32601452E+01</totfact>
</mgrwt>
</event>
<event>
 8    2  0.4480234E-052  0.1397478E+04  0.7818608E-02  0.8955646E-01
          2   -1    0    0  501    0  0.00000000000E+00  0.00000000000E+00  0.20097682579E+04  0.20097682579E+04  0.25500000000E-02 0.  1.
         -2   -1    0    0    0  501 -0.00000000000E+00 -0.00000000000E+00 -0.24293151720E+03  0.24293151721E+03  0.25500000000E-02 0. -1.
    -200001    2    1    2    0    0 -0.22207131879E+03 -0.24274734953E+03  0.99280053688E+03  0.12119582168E+04  0.61232986776E+03 0.  0.
   -5000001    2    3    3    0    0  0.86297773690E+02 -0.24834497667E+03  0.16427211723E+03  0.32213622743E+03  0.87543631104E+02 0.  0.
     200001    1    1    2    0    0  0.22207131879E+03  0.24274734953E+03  0.77403620381E+03  0.10407415583E+04  0.61300000000E+03 0.  1.
         13    1    4    4    0    0  0.63864346339E+02 -0.14535561246E+03  0.56741824571E+02  0.16860176342E+03  0.10566000000E+00 0.  1.
    -200003    1    4    4    0    0  0.22433427351E+02 -0.10298936420E+03  0.10753029266E+03  0.15353446402E+03  0.30000000000E+02 0.  1.
    -200000    1    3    3    0    0 -0.30836909248E+03  0.55976271348E+01  0.82852841965E+03  0.88982198938E+03  0.10100000000E+03 0.  1.
<mgrwt>
<rscale>  0 0.13974778E+04</rscale>
<asrwt>0</asrwt>
<pdfrwt beam="1">  1        2 0.28710975E+00 0.13974778E+04</pdfrwt>
<pdfrwt beam="2">  1       -2 0.34704502E-01 0.13974778E+04</pdfrwt>
<totfact> 0.60172412E+01</totfact>
</mgrwt>
</event>
<event>
 8    2  0.4480234E-052  0.1328512E+04  0.7818608E-02  0.9007256E-01
          2   -1    0    0  501    0  0.00000000000E+00  0.00000000000E+00  0.45568029810E+04  0.45568029810E+04  0.25500000000E-02 0.  1.
         -2   -1    0    0    0  501 -0.00000000000E+00 -0.00000000000E+00 -0.96830164340E+02  0.96830164373E+02  0.25500000000E-02 0. -1.
    -200001    2    1    2    0    0  0.97912972603E+02  0.19549725172E+03  0.26986764236E+04  0.27759377202E+04  0.61251094790E+03 0.  0.
   -5000001    2    3    3    0    0  0.26369525375E+03 -0.75518993878E+02  0.16893872336E+04  0.17130175730E+04  0.71844799372E+02 0.  0.
     200001    1    1    2    0    0 -0.97912972603E+02 -0.19549725172E+03  0.17612963930E+04  0.18776954252E+04  0.61300000000E+03 0. -1.
         13    1    4    4    0    0  0.84452580988E+02 -0.49120422705E+02  0.69229372295E+03  0.69915353419E+03  0.10566000000E+00 0.  1.
    -200003    1    4    4    0    0  0.17924267276E+03 -0.26398571172E+02  0.99709351064E+03  0.10138640388E+04  0.30000000000E+02 0.  1.
    -200000    1    3    3    0    0 -0.16578228115E+03  0.27101624560E+03  0.10092891900E+04  0.10629201471E+04  0.10100000000E+03 0. -1.
<mgrwt>
<rscale>  0 0.13285119E+04</rscale>
<asrwt>0</asrwt>
<pdfrwt beam="1">  1        2 0.65097171E+00 0.13285119E+04</pdfrwt>
<pdfrwt beam="2">  1       -2 0.13832884E-01 0.13285119E+04</pdfrwt>
<totfact> 0.89533105E+00</totfact>
</mgrwt>
</event>
<event>
 8    2  0.4480234E-052  0.2532563E+04  0.7818608E-02  0.8391476E-01
          2   -1    0    0  501    0  0.00000000000E+00  0.00000000000E+00  0.11618652033E+04  0.11618652033E+04  0.25500000000E-02 0.  1.
         -2   -1    0    0    0  501 -0.00000000000E+00 -0.00000000000E+00 -0.13800820724E+04  0.13800820724E+04  0.25500000000E-02 0. -1.
    -200001    2    1    2    0    0 -0.16735301030E+02  0.85061970355E+03  0.60323003220E+03  0.12098894834E+04  0.61327982188E+03 0.  0.
   -5000001    2    3    3    0    0 -0.10463456615E+03  0.87454948837E+03  0.43921078813E+03  0.99681149807E+03  0.15792987756E+03 0.  0.
     200001    1    1    2    0    0  0.16735301030E+02 -0.85061970355E+03 -0.82144690132E+03  0.13320577923E+04  0.61300000000E+03 0. -1.
         13    1    4    4    0    0 -0.12484212619E+03  0.77640656378E+03  0.41614624126E+03  0.88970243004E+03  0.10566000000E+00 0.  1.
    -200003    1    4    4    0    0  0.20207560041E+02  0.98142924591E+02  0.23064546875E+02  0.10710906802E+03  0.30000000000E+02 0. -1.
    -200000    1    3    3    0    0  0.87899265117E+02 -0.23929784818E+02  0.16401924407E+03  0.21307798534E+03  0.10100000000E+03 0. -1.
<mgrwt>
<rscale>  0 0.25325634E+04</rscale>
<asrwt>0</asrwt>
<pdfrwt beam="1">  1        2 0.16598074E+00 0.25325634E+04</pdfrwt>
<pdfrwt beam="2">  1       -2 0.19715458E+00 0.25325634E+04</pdfrwt>
<totfact> 0.27922501E+00</totfact>
</mgrwt>
</event>
<event>
 8    2  0.4480234E-052  0.1582497E+04  0.7818608E-02  0.8831373E-01
         -2   -1    0    0    0  501 -0.00000000000E+00  0.00000000000E+00  0.47941688562E+03  0.47941688563E+03  0.25500000000E-02 0. -1.
          2   -1    0    0  501    0  0.00000000000E+00 -0.00000000000E+00 -0.13059084260E+04  0.13059084260E+04  0.25500000000E-02 0.  1.
    -200001    2    1    2    0    0 -0.15770450949E+03  0.20167485744E+03 -0.89809996971E+03  0.11171634842E+04  0.61312905200E+03 0.  0.
   -5000001    2    3    3    0    0 -0.31782910610E+03 -0.37184607673E+01 -0.70716116865E+03  0.77880727050E+03  0.73720272016E+02 0.  0.
     200001    1    1    2    0    0  0.15770450949E+03 -0.20167485744E+03  0.71608429364E+02  0.66816182740E+03  0.61300000000E+03 0. -1.
         13    1    4    4    0    0 -0.13959223784E+02 -0.56215086242E+01 -0.78281276806E+02  0.79714683404E+02  0.10566000000E+00 0.  1.
    -200003    1    4    4    0    0 -0.30386988231E+03  0.19030478569E+01 -0.62887989184E+03  0.69909258709E+03  0.30000000000E+02 0.  1.
    -200000    1    3    3    0    0  0.16012459660E+03  0.20539331821E+03 -0.19093880106E+03  0.33835621370E+03  0.10100000000E+03 0. -1.
<mgrwt>
<rscale>  0 0.15824975E+04</rscale>
<asrwt>0</asrwt>
<pdfrwt beam="1">  1        2 0.18655835E+00 0.15824975E+04</pdfrwt>
<pdfrwt beam="2">  1       -2 0.68488127E-01 0.15824975E+04</pdfrwt>
<totfact> 0.34953045E+01</totfact>
</mgrwt>
</event>
<event>
 8    2  0.4480234E-052  0.1362099E+04  0.7818608E-02  0.8981719E-01
          2   -1    0    0  501    0  0.00000000000E+00  0.00000000000E+00  0.22144406394E+04  0.22144406394E+04  0.25500000000E-02 0.  1.
         -2   -1    0    0    0  501 -0.00000000000E+00 -0.00000000000E+00 -0.20945637407E+03  0.20945637409E+03  0.25500000000E-02 0. -1.
    -200001    2    1    2    0    0 -0.20655628637E+03  0.83304994441E+02  0.65914249504E+03  0.92834885572E+03  0.61461983991E+03 0.  0.
   -5000001    2    3    3    0    0 -0.37229416007E+03 -0.85021851475E+02  0.37322720381E+03  0.54396425197E+03  0.10376369746E+03 0.  0.
     200001    1    1    2    0    0  0.20655628637E+03 -0.83304994441E+02  0.13458417703E+04  0.14955481577E+04  0.61300000000E+03 0.  1.
         13    1    4    4    0    0 -0.85054578102E+01  0.14902246221E+02  0.13635129278E+02  0.21916835297E+02  0.10566000000E+00 0.  1.
    -200003    1    4    4    0    0 -0.36378870226E+03 -0.99924097696E+02  0.35959207453E+03  0.52204741667E+03  0.30000000000E+02 0.  1.
    -200000    1    3    3    0    0  0.16573787371E+03  0.16832684592E+03  0.28591529123E+03  0.38438460375E+03  0.10100000000E+03 0. -1.
<mgrwt>
<rscale>  0 0.13620994E+04</rscale>
<asrwt>0</asrwt>
<pdfrwt beam="1">  1        2 0.31634867E+00 0.13620994E+04</pdfrwt>
<pdfrwt beam="2">  1       -2 0.29922338E-01 0.13620994E+04</pdfrwt>
<totfact> 0.62620302E+01</totfact>
</mgrwt>
</event>
<event>
 8    2  0.4480234E-052  0.1669875E+04  0.7818608E-02  0.8778734E-01
          2   -1    0    0  501    0  0.00000000000E+00  0.00000000000E+00  0.16888700064E+04  0.16888700064E+04  0.25500000000E-02 0.  1.
         -2   -1    0    0    0  501 -0.00000000000E+00 -0.00000000000E+00 -0.41277359556E+03  0.41277359557E+03  0.25500000000E-02 0. -1.
    -200001    2    1    2    0    0 -0.12693163449E+03 -0.36712412462E+03  0.11559023009E+04  0.13660435838E+04  0.61568919176E+03 0.  0.
   -5000001    2    3    3    0    0 -0.14477645791E+03 -0.79438692791E+02  0.15010701093E+02  0.18497796837E+03  0.81980479123E+02 0.  0.
     200001    1    1    2    0    0  0.12693163449E+03  0.36712412462E+03  0.12019410995E+03  0.73560001820E+03  0.61300000000E+03 0. -1.
         13    1    4    4    0    0 -0.36245947207E+02  0.12669556983E+02 -0.23661248780E+01  0.38469417387E+02  0.10566000000E+00 0.  1.
    -200003    1    4    4    0    0 -0.10853051070E+03 -0.92108249775E+02  0.17376825971E+02  0.14650855098E+03  0.30000000000E+02 0.  1.
    -200000    1    3    3    0    0  0.17844823415E+02 -0.28768543183E+03  0.11408915998E+04  0.11810656154E+04  0.10100000000E+03 0.  1.
<mgrwt>
<rscale>  0 0.16698754E+04</rscale>
<asrwt>0</asrwt>
<pdfrwt beam="1">  1        2 0.24126714E+00 0.16698754E+04</pdfrwt>
<pdfrwt beam="2">  1       -2 0.58967656E-01 0.16698754E+04</pdfrwt>
<totfact> 0.29854892E+01</totfact>
</mgrwt>
</event>
<event>
 8    2  0.4480234E-052  0.1994373E+04  0.7818608E-02  0.8609256E-01
         -2   -1    0    0    0  501 -0.00000000000E+00  0.00000000000E+00  0.83239675538E+03  0.83239675538E+03  0.25500000000E-02 0. -1.
          2   -1    0    0  501    0  0.00000000000E+00 -0.00000000000E+00 -0.11945994936E+04  0.11945994936E+04  0.25500000000E-02 0.  1.
    -200001    2    1    2    0    0  0.58831608522E+02 -0.72464882528E+03 -0.48552782781E+03  0.10680618634E+04  0.61354852638E+03 0.  0.
   -5000001    2    3    3    0    0  0.24499063520E+03 -0.63947685585E+03 -0.27855997898E+03  0.75992855122E+03  0.17591100185E+03 0.  0.
     200001    1    1    2    0    0 -0.58831608522E+02  0.72464882528E+03  0.12332508963E+03  0.95893438559E+03  0.61300000000E+03 0. -1.
         13    1    4    4    0    0  0.51654233850E+02 -0.28932712812E+03 -0.49540788761E+02  0.29804806300E+03  0.10566000000E+00 0.  1.
    -200003    1    4    4    0    0  0.19333640135E+03 -0.35014972774E+03 -0.22901919021E+03  0.46188048823E+03  0.30000000000E+02 0.  1.
    -200000    1    3    3    0    0 -0.18615902668E+03 -0.85171969425E+02 -0.20696784884E+03  0.30813331213E+03  0.10100000000E+03 0.  1.
<mgrwt>
<rscale>  0 0.19943728E+04</rscale>
<asrwt>0</asrwt>
<pdfrwt beam="1">  1        2 0.17065707E+00 0.19943728E+04</pdfrwt>
<pdfrwt beam="2">  1       -2 0.11891382E+00 0.19943728E+04</pdfrwt>
<totfact> 0.10910501E+01</totfact>
</mgrwt>
</event>
<event>
 8    2  0.4480234E-052  0.1761709E+04  0.7818608E-02  0.8726931E-01
         -2   -1    0    0    0  501 -0.00000000000E+00  0.00000000000E+00  0.35961125914E+03  0.35961125915E+03  0.25500000000E-02 0. -1.
          2   -1    0    0  501    0  0.00000000000E+00 -0.00000000000E+00 -0.21576211068E+04  0.21576211068E+04  0.25500000000E-02 0.  1.
    -200001    2    1    2    0    0  0.40732197681E+03  0.15294976848E+03 -0.15555352597E+04  0.17273793731E+04  0.61224564533E+03 0.  0.
   -5000001    2    3    3    0    0 -0.10416893415E+02  0.28494469424E+03 -0.51695330214E+03  0.59566301883E+03  0.79194223055E+02 0.  0.
     200001    1    1    2    0    0 -0.40732197681E+03 -0.15294976848E+03 -0.24247458802E+03  0.78985299284E+03  0.61300000000E+03 0. -1.
         13    1    4    4    0    0 -0.32818855116E+02  0.85180858259E+02 -0.18795293354E+03  0.20894777399E+03  0.10566000000E+00 0.  1.
    -200003    1    4    4    0    0  0.22401961701E+02  0.19976383598E+03 -0.32900036860E+03  0.38671524484E+03  0.30000000000E+02 0.  1.
    -200000    1    3    3    0    0  0.41773887022E+03 -0.13199492576E+03 -0.10385819575E+04  0.11317163543E+04  0.10100000000E+03 0.  1.
<mgrwt>
<rscale>  0 0.17617092E+04</rscale>
<asrwt>0</asrwt>
<pdfrwt beam="1">  1        2 0.30823158E+00 0.17617092E+04</pdfrwt>
<pdfrwt beam="2">  1       -2 0.51373038E-01 0.17617092E+04</pdfrwt>
<totfact> 0.22610774E+01</totfact>
</mgrwt>
</event>
<event>
 8    2  0.4480234E-052  0.1351470E+04  0.7818608E-02  0.8989716E-01
         -2   -1    0    0    0  501 -0.00000000000E+00  0.00000000000E+00  0.10082241002E+03  0.10082241005E+03  0.25500000000E-02 0. -1.
          2   -1    0    0  501    0  0.00000000000E+00 -0.00000000000E+00 -0.45289340680E+04  0.45289340680E+04  0.25500000000E-02 0.  1.
    -200001    2    1    2    0    0  0.15321556276E+03  0.17158803727E+03 -0.16481956809E+04  0.17737769083E+04  0.61385507629E+03 0.  0.
   -5000001    2    3    3    0    0  0.65958609155E+02 -0.21696288270E+03 -0.69583503244E+03  0.73658001374E+03  0.83308425019E+02 0.  0.
     200001    1    1    2    0    0 -0.15321556276E+03 -0.17158803727E+03 -0.27799159771E+04  0.28559795698E+04  0.61300000000E+03 0.  1.
         13    1    4    4    0    0  0.23608282746E+02 -0.50082597103E+02 -0.28153465201E+03  0.28692749780E+03  0.10566000000E+00 0.  1.
    -200003    1    4    4    0    0  0.42350326409E+02 -0.16688028559E+03 -0.41430038044E+03  0.44965251595E+03  0.30000000000E+02 0.  1.
    -200000    1    3    3    0    0  0.87256953601E+02  0.38855091997E+03 -0.95236064843E+03  0.10371968945E+04  0.10100000000E+03 0. -1.
<mgrwt>
<rscale>  0 0.13514704E+04</rscale>
<asrwt>0</asrwt>
<pdfrwt beam="1">  1        2 0.64699045E+00 0.13514704E+04</pdfrwt>
<pdfrwt beam="2">  1       -2 0.14403204E-01 0.13514704E+04</pdfrwt>
<totfact> 0.87784984E+00</totfact>
</mgrwt>
</event>
<event>
 8    2  0.4480234E-052  0.1263629E+04  0.7818608E-02  0.9058915E-01
          2   -1    0    0  501    0  0.00000000000E+00  0.00000000000E+00  0.34943836418E+04  0.34943836418E+04  0.25500000000E-02 0.  1.
         -2   -1    0    0    0  501 -0.00000000000E+00 -0.00000000000E+00 -0.11423751162E+03  0.11423751165E+03  0.25500000000E-02 0. -1.
    -200001    2    1    2    0    0 -0.68754569645E+02 -0.10841717784E+03  0.19234562208E+04  0.20229995191E+04  0.61348328871E+03 0.  0.
   -5000001    2    3    3    0    0  0.13427231719E+02 -0.13701275289E+02 -0.19643435549E+02  0.73239988982E+02  0.67898570896E+02 0.  0.
     200001    1    1    2    0    0  0.68754569645E+02  0.10841717784E+03  0.14566899094E+04  0.15856216344E+04  0.61300000000E+03 0. -1.
         13    1    4    4    0    0  0.15463444572E+02 -0.14551769673E+01  0.17837648205E+02  0.23652241238E+02  0.10566000000E+00 0.  1.
    -200003    1    4    4    0    0 -0.20362128530E+01 -0.12246098322E+02 -0.37481083755E+02  0.49587747744E+02  0.30000000000E+02 0. -1.
    -200000    1    3    3    0    0 -0.82181801364E+02 -0.94715902553E+02  0.19430996563E+04  0.19497595301E+04  0.10100000000E+03 0.  1.
<mgrwt>
<rscale>  0 0.12636292E+04</rscale>
<asrwt>0</asrwt>
<pdfrwt beam="1">  1        2 0.49919768E+00 0.12636292E+04</pdfrwt>
<pdfrwt beam="2">  1       -2 0.16319644E-01 0.12636292E+04</pdfrwt>
<totfact> 0.36889176E+01</totfact>
</mgrwt>
</event>
<event>
 8    2  0.4480234E-052  0.2018524E+04  0.7818608E-02  0.8598009E-01
         -2   -1    0    0    0  501 -0.00000000000E+00  0.00000000000E+00  0.63339563631E+03  0.63339563631E+03  0.25500000000E-02 0. -1.
          2   -1    0    0  501    0  0.00000000000E+00 -0.00000000000E+00 -0.16081725731E+04  0.16081725731E+04  0.25500000000E-02 0.  1.
    -200001    2    1    2    0    0 -0.54946519413E+03  0.80227316512E+02 -0.11332132814E+04  0.13994165026E+04  0.60485187017E+03 0.  0.
   -5000001    2    3    3    0    0 -0.26981157373E+03  0.34878694206E+02 -0.10495870188E+04  0.10872354706E+04  0.80207543247E+02 0.  0.
     200001    1    1    2    0    0  0.54946519413E+03 -0.80227316512E+02  0.15843634464E+03  0.84215170675E+03  0.61300000000E+03 0. -1.
         13    1    4    4    0    0 -0.16877691789E+03  0.43097651450E+02 -0.73506433649E+03  0.75542216377E+03  0.10566000000E+00 0.  1.
    -200003    1    4    4    0    0 -0.10103465584E+03 -0.82189572448E+01 -0.31452268228E+03  0.33181330686E+03  0.30000000000E+02 0.  1.
    -200000    1    3    3    0    0 -0.27965362040E+03  0.45348622306E+02 -0.83626262631E+02  0.31218103201E+03  0.10100000000E+03 0. -1.
<mgrwt>
<rscale>  0 0.20185237E+04</rscale>
<asrwt>0</asrwt>
<pdfrwt beam="1">  1        2 0.22973894E+00 0.20185237E+04</pdfrwt>
<pdfrwt beam="2">  1       -2 0.90485092E-01 0.20185237E+04</pdfrwt>
<totfact> 0.12457511E+01</totfact>
</mgrwt>
</event>
<event>
 8    2  0.4480234E-052  0.1322363E+04  0.7818608E-02  0.9012017E-01
         -2   -1    0    0    0  501 -0.00000000000E+00  0.00000000000E+00  0.33198973907E+03  0.33198973908E+03  0.25500000000E-02 0. -1.
          2   -1    0    0  501    0  0.00000000000E+00 -0.00000000000E+00 -0.13167906951E+04  0.13167906951E+04  0.25500000000E-02 0.  1.
    -200001    2    1    2    0    0 -0.76825603350E+02 -0.23163728191E+03 -0.42495338638E+03  0.78347337600E+03  0.61129955554E+03 0.  0.
   -5000001    2    3    3    0    0  0.19816660473E+03 -0.89863583107E+02  0.25404400570E+02  0.22782633656E+03  0.62561883457E+02 0.  0.
     200001    1    1    2    0    0  0.76825603350E+02  0.23163728191E+03 -0.55984756965E+03  0.86530705818E+03  0.61300000000E+03 0.  1.
         13    1    4    4    0    0  0.15398912500E+03 -0.72091587471E+02  0.16212878630E+02  0.17080022307E+03  0.10566000000E+00 0.  1.
    -200003    1    4    4    0    0  0.44177479731E+02 -0.17771995635E+02  0.91915219402E+01  0.57026113491E+02  0.30000000000E+02 0. -1.
    -200000    1    3    3    0    0 -0.27499220808E+03 -0.14177369880E+03 -0.45035778695E+03  0.55564703944E+03  0.10100000000E+03 0.  1.
<mgrwt>
<rscale>  0 0.13223630E+04</rscale>
<asrwt>0</asrwt>
<pdfrwt beam="1">  1        2 0.18811295E+00 0.13223630E+04</pdfrwt>
<pdfrwt beam="2">  1       -2 0.47427106E-01 0.13223630E+04</pdfrwt>
<totfact> 0.75794106E+01</totfact>
</mgrwt>
</event>
<event>
 8    2  0.4480234E-052  0.1810017E+04  0.7818608E-02  0.8700991E-01
          2   -1    0    0  501    0  0.00000000000E+00  0.00000000000E+00  0.43457173063E+03  0.43457173064E+03  0.25500000000E-02 0.  1.
         -2   -1    0    0    0  501 -0.00000000000E+00 -0.00000000000E+00 -0.18847074743E+04  0.18847074743E+04  0.25500000000E-02 0. -1.
    -200001    2    1    2    0    0  0.54674111098E+03 -0.31278872646E+03 -0.44843644656E+03  0.98663780093E+03  0.61285909783E+03 0.  0.
   -5000001    2    3    3    0    0  0.10113508094E+03  0.22417911202E+02 -0.39533742452E+03  0.41747285991E+03  0.85211749212E+02 0.  0.
     200001    1    1    2    0    0 -0.54674111098E+03  0.31278872646E+03 -0.10016992971E+04  0.13326414040E+04  0.61300000000E+03 0. -1.
         13    1    4    4    0    0 -0.12735785606E+02  0.57383782589E+00 -0.22370651601E+02  0.25748528928E+02  0.10566000000E+00 0.  1.
    -200003    1    4    4    0    0  0.11387086654E+03  0.21844073376E+02 -0.37296677291E+03  0.39172433099E+03  0.30000000000E+02 0.  1.
    -200000    1    3    3    0    0  0.44560603005E+03 -0.33520663766E+03 -0.53099022041E+02  0.56916494102E+03  0.10100000000E+03 0.  1.
<mgrwt>
<rscale>  0 0.18100172E+04</rscale>
<asrwt>0</asrwt>
<pdfrwt beam="1">  1        2 0.62081677E-01 0.18100172E+04</pdfrwt>
<pdfrwt beam="2">  1       -2 0.26924392E+00 0.18100172E+04</pdfrwt>
<totfact> 0.36521110E+00</totfact>
</mgrwt>
</event>
<event>
 8    2  0.4480234E-052  0.1737020E+04  0.7818608E-02  0.8740528E-01
          2   -1    0    0  501    0  0.00000000000E+00  0.00000000000E+00  0.19849519361E+04  0.19849519361E+04  0.25500000000E-02 0.  1.
         -2   -1    0    0    0  501 -0.00000000000E+00 -0.00000000000E+00 -0.38001406723E+03  0.38001406723E+03  0.25500000000E-02 0. -1.
    -200001    2    1    2    0    0  0.31362049791E+03  0.29221367125E+02  0.15218786465E+04  0.16707905649E+04  0.61336350710E+03 0.  0.
   -5000001    2    3    3    0    0  0.28893865466E+03  0.67734608392E+02  0.26817156720E+03  0.41219018987E+03  0.99555210034E+02 0.  0.
     200001    1    1    2    0    0 -0.31362049791E+03 -0.29221367125E+02  0.83059222373E+02  0.69417543851E+03  0.61300000000E+03 0. -1.
         13    1    4    4    0    0  0.24644309152E+03  0.51829718194E+02  0.18368046701E+03  0.31170345229E+03  0.10566000000E+00 0.  1.
    -200003    1    4    4    0    0  0.42495563138E+02  0.15904890198E+02  0.84491100189E+02  0.10048673758E+03  0.30000000000E+02 0.  1.
    -200000    1    3    3    0    0  0.24681843249E+02 -0.38513241267E+02  0.12537070793E+04  0.12586003750E+04  0.10100000000E+03 0.  1.
<mgrwt>
<rscale>  0 0.17370200E+04</rscale>
<asrwt>0</asrwt>
<pdfrwt beam="1">  1        2 0.28356456E+00 0.17370200E+04</pdfrwt>
<pdfrwt beam="2">  1       -2 0.54287724E-01 0.17370200E+04</pdfrwt>
<totfact> 0.24815761E+01</totfact>
</mgrwt>
</event>
<event>
 8    2  0.4480234E-052  0.1449222E+04  0.7818608E-02  0.8918940E-01
          2   -1    0    0  501    0  0.00000000000E+00  0.00000000000E+00  0.10878839977E+04  0.10878839977E+04  0.25500000000E-02 0.  1.
         -2   -1    0    0    0  501 -0.00000000000E+00 -0.00000000000E+00 -0.48264438648E+03  0.48264438649E+03  0.25500000000E-02 0. -1.
    -200001    2    1    2    0    0 -0.28331017536E+03 -0.26112141334E+03  0.33314989124E+03  0.79706160163E+03  0.61308180432E+03 0.  0.
   -5000001    2    3    3    0    0  0.50582075581E+02  0.12683257760E+03  0.21203989081E+03  0.26146757018E+03  0.68987867434E+02 0.  0.
     200001    1    1    2    0    0  0.28331017536E+03  0.26112141334E+03  0.27208971993E+03  0.77346678252E+03  0.61300000000E+03 0. -1.
         13    1    4    4    0    0  0.20963240702E+02  0.10627228133E+02  0.12190619492E+02  0.26476740852E+02  0.10566000000E+00 0.  1.
    -200003    1    4    4    0    0  0.29618834879E+02  0.11620534946E+03  0.19984927132E+03  0.23499082933E+03  0.30000000000E+02 0.  1.
    -200000    1    3    3    0    0 -0.33389225094E+03 -0.38795399093E+03  0.12111000043E+03  0.53559403145E+03  0.10100000000E+03 0. -1.
<mgrwt>
<rscale>  0 0.14492220E+04</rscale>
<asrwt>0</asrwt>
<pdfrwt beam="1">  1        2 0.15541200E+00 0.14492220E+04</pdfrwt>
<pdfrwt beam="2">  1       -2 0.68949199E-01 0.14492220E+04</pdfrwt>
<totfact> 0.46363335E+01</totfact>
</mgrwt>
</event>
<event>
 8    2  0.4480234E-052  0.4137143E+04  0.7818608E-02  0.7977438E-01
         -2   -1    0    0    0  501 -0.00000000000E+00  0.00000000000E+00  0.15741012085E+04  0.15741012085E+04  0.25500000000E-02 0. -1.
          2   -1    0    0  501    0  0.00000000000E+00 -0.00000000000E+00 -0.27183694458E+04  0.27183694458E+04  0.25500000000E-02 0.  1.
    -200001    2    1    2    0    0 -0.78071868293E+03  0.15147856173E+04  0.46511716819E+03  0.18696649436E+04  0.61254868622E+03 0.  0.
   -5000001    2    3    3    0    0 -0.63825774932E+03  0.98196595685E+03  0.54412664798E+02  0.11746317809E+04  0.71895671857E+02 0.  0.
     200001    1    1    2    0    0  0.78071868293E+03 -0.15147856173E+04 -0.16093854055E+04  0.24228057106E+04  0.61300000000E+03 0.  1.
         13    1    4    4    0    0 -0.13831962947E+03  0.25269430806E+03 -0.28883792371E+01  0.28808867927E+03  0.10566000000E+00 0.  1.
    -200003    1    4    4    0    0 -0.49993811985E+03  0.72927164879E+03  0.57301044035E+02  0.88654310164E+03  0.30000000000E+02 0.  1.
    -200000    1    3    3    0    0 -0.14246093361E+03  0.53281966041E+03  0.41070450339E+03  0.69503316268E+03  0.10100000000E+03 0.  1.
<mgrwt>
<rscale>  0 0.41371433E+04</rscale>
<asrwt>0</asrwt>
<pdfrwt beam="1">  1        2 0.38833849E+00 0.41371433E+04</pdfrwt>
<pdfrwt beam="2">  1       -2 0.22487160E+00 0.41371433E+04</pdfrwt>
<totfact> 0.24494996E-01</totfact>
</mgrwt>
</event>
<event>
 8    2  0.4480234E-052  0.1439908E+04  0.7818608E-02  0.8925427E-01
         -2   -1    0    0    0  501 -0.00000000000E+00  0.00000000000E+00  0.19809950129E+03  0.19809950131E+03  0.25500000000E-02 0. -1.
          2   -1    0    0  501    0  0.00000000000E+00 -0.00000000000E+00 -0.26165338336E+04  0.26165338336E+04  0.25500000000E-02 0.  1.
    -200001    2    1    2    0    0  0.20763203872E+02  0.28108244460E+03 -0.71680705492E+03  0.98412989528E+03  0.61258537814E+03 0.  0.
   -5000001    2    3    3    0    0 -0.20784210388E+03  0.28668149949E+03 -0.61502276281E+03  0.71421735710E+03  0.80428925832E+02 0.  0.
     200001    1    1    2    0    0 -0.20763203872E+02 -0.28108244460E+03 -0.17016272773E+04  0.18305034396E+04  0.61300000000E+03 0.  1.
         13    1    4    4    0    0 -0.69590423136E+02  0.14818647203E+03 -0.24712073457E+03  0.29642996829E+03  0.10566000000E+00 0.  1.
    -200003    1    4    4    0    0 -0.13825168075E+03  0.13849502746E+03 -0.36790202824E+03  0.41778738881E+03  0.30000000000E+02 0.  1.
    -200000    1    3    3    0    0  0.22860530776E+03 -0.55990548853E+01 -0.10178429211E+03  0.26991253819E+03  0.10100000000E+03 0. -1.
<mgrwt>
<rscale>  0 0.14399084E+04</rscale>
<asrwt>0</asrwt>
<pdfrwt beam="1">  1        2 0.37379053E+00 0.14399084E+04</pdfrwt>
<pdfrwt beam="2">  1       -2 0.28299930E-01 0.14399084E+04</pdfrwt>
<totfact> 0.42563448E+01</totfact>
</mgrwt>
</event>
<event>
 8    2  0.4480234E-052  0.1507218E+04  0.7818608E-02  0.8879667E-01
          2   -1    0    0  501    0  0.00000000000E+00  0.00000000000E+00  0.82764057173E+03  0.82764057173E+03  0.25500000000E-02 0.  1.
         -2   -1    0    0    0  501 -0.00000000000E+00 -0.00000000000E+00 -0.68619911984E+03  0.68619911985E+03  0.25500000000E-02 0. -1.
    -200001    2    1    2    0    0  0.30368355359E+03 -0.26896380422E+03  0.23820635210E+03  0.77242369862E+03  0.61264253469E+03 0.  0.
   -5000001    2    3    3    0    0  0.93822654325E+02  0.16915139602E+03 -0.27765748144E+02  0.20945950453E+03  0.75415263889E+02 0.  0.
     200001    1    1    2    0    0 -0.30368355359E+03  0.26896380422E+03 -0.96764900212E+02  0.74141599296E+03  0.61300000000E+03 0. -1.
         13    1    4    4    0    0  0.69706894097E+02  0.65470373732E+02 -0.84777235788E+00  0.95635510159E+02  0.10566000000E+00 0.  1.
    -200003    1    4    4    0    0  0.24115760228E+02  0.10368102229E+03 -0.26917975786E+02  0.11382399437E+03  0.30000000000E+02 0.  1.
    -200000    1    3    3    0    0  0.20986089927E+03 -0.43811520024E+03  0.26597210024E+03  0.56296419409E+03  0.10100000000E+03 0. -1.
<mgrwt>
<rscale>  0 0.15072176E+04</rscale>
<asrwt>0</asrwt>
<pdfrwt beam="1">  1        2 0.11823437E+00 0.15072176E+04</pdfrwt>
<pdfrwt beam="2">  1       -2 0.98028446E-01 0.15072176E+04</pdfrwt>
<totfact> 0.30471884E+01</totfact>
</mgrwt>
</event>
<event>
 8    2  0.4480234E-052  0.1567513E+04  0.7818608E-02  0.8840758E-01
          2   -1    0    0  501    0  0.00000000000E+00  0.00000000000E+00  0.55571064190E+03  0.55571064190E+03  0.25500000000E-02 0.  1.
         -2   -1    0    0    0  501 -0.00000000000E+00 -0.00000000000E+00 -0.11053857536E+04  0.11053857536E+04  0.25500000000E-02 0. -1.
    -200001    2    1    2    0    0 -0.38448996444E+03 -0.30017905089E+03 -0.24537715156E+03  0.82067611739E+03  0.61266577169E+03 0.  0.
   -5000001    2    3    3    0    0 -0.45419300338E+02 -0.34185429980E+03 -0.29412086015E+03  0.46111709476E+03  0.84821103354E+02 0.  0.
     200001    1    1    2    0    0  0.38448996444E+03  0.30017905089E+03 -0.30429796017E+03  0.84042027814E+03  0.61300000000E+03 0. -1.
         13    1    4    4    0    0 -0.15984061943E+02 -0.12760493819E+03 -0.63096780720E+02  0.14324707811E+03  0.10566000000E+00 0.  1.
    -200003    1    4    4    0    0 -0.29435238395E+02 -0.21424936161E+03 -0.23102407943E+03  0.31787001665E+03  0.30000000000E+02 0.  1.
    -200000    1    3    3    0    0 -0.33907066410E+03  0.41675248910E+02  0.48743708590E+02  0.35955902263E+03  0.10100000000E+03 0. -1.
<mgrwt>
<rscale>  0 0.15675135E+04</rscale>
<asrwt>0</asrwt>
<pdfrwt beam="1">  1        2 0.79387235E-01 0.15675135E+04</pdfrwt>
<pdfrwt beam="2">  1       -2 0.15791225E+00 0.15675135E+04</pdfrwt>
<totfact> 0.14927811E+01</totfact>
</mgrwt>
</event>
<event>
 8    2  0.4480234E-052  0.1951287E+04  0.7818608E-02  0.8629740E-01
          2   -1    0    0  501    0  0.00000000000E+00  0.00000000000E+00  0.13846142335E+04  0.13846142335E+04  0.25500000000E-02 0.  1.
         -2   -1    0    0    0  501 -0.00000000000E+00 -0.00000000000E+00 -0.68746983840E+03  0.68746983841E+03  0.25500000000E-02 0. -1.
    -200001    2    1    2    0    0  0.48260177245E+03  0.54921613346E+03  0.56502863942E+03  0.11088777571E+04  0.61303318411E+03 0.  0.
   -5000001    2    3    3    0    0  0.50724475581E+03  0.14157471119E+03  0.30308344343E+03  0.61330224168E+03  0.83303210210E+02 0.  0.
     200001    1    1    2    0    0 -0.48260177245E+03 -0.54921613346E+03  0.13211575571E+03  0.96320631483E+03  0.61300000000E+03 0. -1.
         13    1    4    4    0    0  0.37384614683E+03  0.12970733964E+03  0.21715206367E+03  0.45137563667E+03  0.10566000000E+00 0.  1.
    -200003    1    4    4    0    0  0.13339860898E+03  0.11867371542E+02  0.85931379763E+02  0.16192660502E+03  0.30000000000E+02 0. -1.
    -200000    1    3    3    0    0 -0.24642983361E+02  0.40764142228E+03  0.26194519598E+03  0.49557551542E+03  0.10100000000E+03 0.  1.
<mgrwt>
<rscale>  0 0.19512873E+04</rscale>
<asrwt>0</asrwt>
<pdfrwt beam="1">  1        2 0.19780203E+00 0.19512873E+04</pdfrwt>
<pdfrwt beam="2">  1       -2 0.98209978E-01 0.19512873E+04</pdfrwt>
<totfact> 0.13615349E+01</totfact>
</mgrwt>
</event>
<event>
 8    2  0.4480234E-052  0.1656587E+04  0.7818608E-02  0.8786519E-01
          2   -1    0    0  501    0  0.00000000000E+00  0.00000000000E+00  0.64158700189E+03  0.64158700190E+03  0.25500000000E-02 0. -1.
         -2   -1    0    0    0  501 -0.00000000000E+00 -0.00000000000E+00 -0.10693325202E+04  0.10693325202E+04  0.25500000000E-02 0.  1.
    -200001    2    1    2    0    0  0.97205953575E+02 -0.53419783979E+03 -0.34275620201E+03  0.88762825331E+03  0.61285053040E+03 0.  0.
   -5000001    2    3    3    0    0  0.29336459637E+03 -0.43561232891E+03 -0.19714239353E+03  0.60549052573E+03  0.22788761688E+03 0.  0.
     200001    1    1    2    0    0 -0.97205953575E+02  0.53419783979E+03 -0.84989316343E+02  0.82329126883E+03  0.61300000000E+03 0.  1.
         13    1    4    4    0    0  0.15527088814E+03 -0.32068723353E+03 -0.22475083395E+03  0.42126274340E+03  0.10566000000E+00 0.  1.
    -200003    1    4    4    0    0  0.13809370823E+03 -0.11492509537E+03  0.27608440421E+02  0.18422778233E+03  0.30000000000E+02 0.  1.
    -200000    1    3    3    0    0 -0.19615864280E+03 -0.98585510878E+02 -0.14561380848E+03  0.28213772757E+03  0.10100000000E+03 0.  1.
<mgrwt>
<rscale>  0 0.16565867E+04</rscale>
<asrwt>0</asrwt>
<pdfrwt beam="1">  1        2 0.91655287E-01 0.16565867E+04</pdfrwt>
<pdfrwt beam="2">  1       -2 0.15276179E+00 0.16565867E+04</pdfrwt>
<totfact> 0.13671342E+01</totfact>
</mgrwt>
</event>
<event>
 8    2  0.4480234E-052  0.1493538E+04  0.7818608E-02  0.8888762E-01
          2   -1    0    0  501    0  0.00000000000E+00  0.00000000000E+00  0.13241847066E+04  0.13241847066E+04  0.25500000000E-02 0.  1.
         -2   -1    0    0    0  501 -0.00000000000E+00 -0.00000000000E+00 -0.42113753728E+03  0.42113753729E+03  0.25500000000E-02 0. -1.
    -200001    2    1    2    0    0  0.32721947069E+03 -0.26187917732E+03  0.35971231042E+03  0.82519450581E+03  0.61310663073E+03 0.  0.
   -5000001    2    3    3    0    0  0.31715467435E+03  0.28004136479E+02  0.39617417470E+03  0.51589836408E+03  0.88463700128E+02 0.  0.
     200001    1    1    2    0    0 -0.32721947069E+03  0.26187917732E+03  0.54333485892E+03  0.92012773810E+03  0.61300000000E+03 0. -1.
         13    1    4    4    0    0  0.10415970813E+03 -0.27206183295E+02  0.14568174639E+03  0.18114249530E+03  0.10566000000E+00 0.  1.
    -200003    1    4    4    0    0  0.21299496623E+03  0.55210319773E+02  0.25049242831E+03  0.33475586879E+03  0.30000000000E+02 0.  1.
    -200000    1    3    3    0    0  0.10064796342E+02 -0.28988331380E+03 -0.36461864280E+02  0.30929614173E+03  0.10100000000E+03 0. -1.
<mgrwt>
<rscale>  0 0.14935379E+04</rscale>
<asrwt>0</asrwt>
<pdfrwt beam="1">  1        2 0.18916924E+00 0.14935379E+04</pdfrwt>
<pdfrwt beam="2">  1       -2 0.60162505E-01 0.14935379E+04</pdfrwt>
<totfact> 0.45383439E+01</totfact>
</mgrwt>
</event>
<event>
 8    2  0.4480234E-052  0.1680049E+04  0.7818608E-02  0.8772825E-01
         -2   -1    0    0    0  501 -0.00000000000E+00  0.00000000000E+00  0.13626637137E+04  0.13626637137E+04  0.25500000000E-02 0. -1.
          2   -1    0    0  501    0  0.00000000000E+00 -0.00000000000E+00 -0.51783983448E+03  0.51783983448E+03  0.25500000000E-02 0.  1.
    -200001    2    1    2    0    0 -0.20666170647E+03  0.53499767113E+03  0.37729477670E+03  0.91962684915E+03  0.61190736563E+03 0.  0.
   -5000001    2    3    3    0    0  0.13585606465E+02  0.21497871458E+03  0.43549336727E+03  0.51402965075E+03  0.16784395277E+03 0.  0.
     200001    1    1    2    0    0  0.20666170647E+03 -0.53499767113E+03  0.46752910252E+03  0.96087669903E+03  0.61300000000E+03 0. -1.
         13    1    4    4    0    0 -0.40595360674E+02  0.16212609605E+03  0.17887214383E+03  0.24480218408E+03  0.10566000000E+00 0.  1.
    -200003    1    4    4    0    0  0.54180967139E+02  0.52852618535E+02  0.25662122344E+03  0.26922746666E+03  0.30000000000E+02 0.  1.
    -200000    1    3    3    0    0 -0.22024731294E+03  0.32001895654E+03 -0.58198590577E+02  0.40559719840E+03  0.10100000000E+03 0.  1.
<mgrwt>
<rscale>  0 0.16800495E+04</rscale>
<asrwt>0</asrwt>
<pdfrwt beam="1">  1        2 0.73977118E-01 0.16800495E+04</pdfrwt>
<pdfrwt beam="2">  1       -2 0.19466625E+00 0.16800495E+04</pdfrwt>
<totfact> 0.88792589E+00</totfact>
</mgrwt>
</event>
<event>
 8    2  0.4480234E-052  0.2028628E+04  0.7818608E-02  0.8593352E-01
         -2   -1    0    0    0  501 -0.00000000000E+00  0.00000000000E+00  0.34656441571E+03  0.34656441572E+03  0.25500000000E-02 0. -1.
          2   -1    0    0  501    0  0.00000000000E+00 -0.00000000000E+00 -0.29686622689E+04  0.29686622689E+04  0.25500000000E-02 0.  1.
    -200001    2    1    2    0    0  0.64638187311E+03  0.16523800175E+03 -0.56518909215E+03  0.10676155585E+04  0.61257746263E+03 0.  0.
   -5000001    2    3    3    0    0  0.57710045287E+03 -0.12042134490E+03 -0.35562395320E+03  0.69275595145E+03  0.76786581978E+02 0.  0.
     200001    1    1    2    0    0 -0.64638187311E+03 -0.16523800175E+03 -0.20569087610E+04  0.22476111261E+04  0.61300000000E+03 0.  1.
         13    1    4    4    0    0  0.48402774995E+03 -0.10798027201E+03 -0.29533346542E+03  0.57720400971E+03  0.10566000000E+00 0.  1.
    -200003    1    4    4    0    0  0.93072702923E+02 -0.12441072894E+02 -0.60290487777E+02  0.11555194174E+03  0.30000000000E+02 0. -1.
    -200000    1    3    3    0    0  0.69281420239E+02  0.28565934665E+03 -0.20956513895E+03  0.37485960703E+03  0.10100000000E+03 0.  1.
<mgrwt>
<rscale>  0 0.20286278E+04</rscale>
<asrwt>0</asrwt>
<pdfrwt beam="1">  1        2 0.42409459E+00 0.20286278E+04</pdfrwt>
<pdfrwt beam="2">  1       -2 0.49509204E-01 0.20286278E+04</pdfrwt>
<totfact> 0.88296787E+00</totfact>
</mgrwt>
</event>
<event>
 8    2  0.4480234E-052  0.1456369E+04  0.7818608E-02  0.8913997E-01
          2   -1    0    0  501    0  0.00000000000E+00  0.00000000000E+00  0.38125749852E+04  0.38125749852E+04  0.25500000000E-02 0.  1.
         -2   -1    0    0    0  501 -0.00000000000E+00 -0.00000000000E+00 -0.13907995072E+03  0.13907995074E+03  0.25500000000E-02 0. -1.
    -200001    2    1    2    0    0  0.38519774020E+03  0.28300937236E+02  0.16458272597E+04  0.17984285552E+04  0.61353048586E+03 0.  0.
   -5000001    2    3    3    0    0  0.50123069016E+03 -0.99263086875E+02  0.12975582726E+04  0.13968958503E+04  0.81087486553E+02 0.  0.
     200001    1    1    2    0    0 -0.38519774020E+03 -0.28300937236E+02  0.20276677747E+04  0.21532263808E+04  0.61300000000E+03 0. -1.
         13    1    4    4    0    0  0.13953616351E+03 -0.48668049713E+02  0.30667037176E+03  0.34041981151E+03  0.10566000000E+00 0.  1.
    -200003    1    4    4    0    0  0.36169452664E+03 -0.50595037162E+02  0.99088790088E+03  0.10564760388E+04  0.30000000000E+02 0.  1.
    -200000    1    3    3    0    0 -0.11603294996E+03  0.12756402411E+03  0.34826898710E+03  0.40153270489E+03  0.10100000000E+03 0. -1.
<mgrwt>
<rscale>  0 0.14563691E+04</rscale>
<asrwt>0</asrwt>
<pdfrwt beam="1">  1        2 0.54465353E+00 0.14563691E+04</pdfrwt>
<pdfrwt beam="2">  1       -2 0.19868566E-01 0.14563691E+04</pdfrwt>
<totfact> 0.16246416E+01</totfact>
</mgrwt>
</event>
<event>
 8    2  0.4480234E-052  0.1399919E+04  0.7818608E-02  0.8953877E-01
          2   -1    0    0  501    0  0.00000000000E+00  0.00000000000E+00  0.69382014049E+03  0.69382014050E+03  0.25500000000E-02 0.  1.
         -2   -1    0    0    0  501 -0.00000000000E+00 -0.00000000000E+00 -0.70615332445E+03  0.70615332446E+03  0.25500000000E-02 0. -1.
    -200001    2    1    2    0    0 -0.29272338177E+03  0.10413025252E+03 -0.13714078466E+03  0.70149223764E+03  0.61380263678E+03 0.  0.
   -5000001    2    3    3    0    0 -0.32826086161E+03 -0.14846690501E+03 -0.19694927480E+03  0.42069641865E+03  0.91645210870E+02 0.  0.
     200001    1    1    2    0    0  0.29272338177E+03 -0.10413025252E+03  0.12480760070E+03  0.69848122732E+03  0.61300000000E+03 0. -1.
         13    1    4    4    0    0 -0.21922859097E+02 -0.20747419270E+02  0.56299674521E+01  0.30704638980E+02  0.10566000000E+00 0.  1.
    -200003    1    4    4    0    0 -0.30633800251E+03 -0.12771948574E+03 -0.20257924225E+03  0.38999177967E+03  0.30000000000E+02 0.  1.
    -200000    1    3    3    0    0  0.35537479839E+02  0.25259715753E+03  0.59808490138E+02  0.28079581898E+03  0.10100000000E+03 0.  1.
<mgrwt>
<rscale>  0 0.13999191E+04</rscale>
<asrwt>0</asrwt>
<pdfrwt beam="1">  1        2 0.99117164E-01 0.13999191E+04</pdfrwt>
<pdfrwt beam="2">  1       -2 0.10087905E+00 0.13999191E+04</pdfrwt>
<totfact> 0.35896937E+01</totfact>
</mgrwt>
</event>
<event>
 8    2  0.4480234E-052  0.1288001E+04  0.7818608E-02  0.9039135E-01
          2   -1    0    0  501    0  0.00000000000E+00  0.00000000000E+00  0.55701794342E+03  0.55701794343E+03  0.25500000000E-02 0.  1.
         -2   -1    0    0    0  501 -0.00000000000E+00 -0.00000000000E+00 -0.74456550731E+03  0.74456550731E+03  0.25500000000E-02 0. -1.
    -200001    2    1    2    0    0 -0.64981304274E+02  0.17971679871E+03 -0.43981077139E+02  0.64363129917E+03  0.61303035526E+03 0.  0.
   -5000001    2    3    3    0    0  0.46626768935E+02  0.79333407966E+02 -0.29545395623E+03  0.33383653475E+03  0.12524354867E+03 0.  0.
     200001    1    1    2    0    0  0.64981304274E+02 -0.17971679871E+03 -0.14356648675E+03  0.65795215158E+03  0.61300000000E+03 0. -1.
         13    1    4    4    0    0 -0.34462401960E+02  0.64579082699E+01 -0.12069860916E+03  0.12568821402E+03  0.10566000000E+00 0.  1.
    -200003    1    4    4    0    0  0.81089170894E+02  0.72875499696E+02 -0.17475534707E+03  0.20814832073E+03  0.30000000000E+02 0.  1.
    -200000    1    3    3    0    0 -0.11160807321E+03  0.10038339075E+03  0.25147287909E+03  0.30979476442E+03  0.10100000000E+03 0.  1.
<mgrwt>
<rscale>  0 0.12880005E+04</rscale>
<asrwt>0</asrwt>
<pdfrwt beam="1">  1        2 0.79573992E-01 0.12880005E+04</pdfrwt>
<pdfrwt beam="2">  1       -2 0.10636650E+00 0.12880005E+04</pdfrwt>
<totfact> 0.41466011E+01</totfact>
</mgrwt>
</event>
<event>
 8    2  0.4480234E-052  0.1373811E+04  0.7818608E-02  0.8972997E-01
          2   -1    0    0  501    0  0.00000000000E+00  0.00000000000E+00  0.19258015043E+04  0.19258015043E+04  0.25500000000E-02 0.  1.
         -2   -1    0    0    0  501 -0.00000000000E+00 -0.00000000000E+00 -0.24500912925E+03  0.24500912927E+03  0.25500000000E-02 0. -1.
    -200001    2    1    2    0    0  0.11650181906E+03  0.16371560857E+03  0.12130245785E+04  0.13739723903E+04  0.61318514916E+03 0.  0.
   -5000001    2    3    3    0    0 -0.34383086110E+01  0.33777757893E+03  0.40382875113E+03  0.53154607860E+03  0.73198761197E+02 0.  0.
     200001    1    1    2    0    0 -0.11650181906E+03 -0.16371560857E+03  0.46776779659E+03  0.79683824322E+03  0.61300000000E+03 0. -1.
         13    1    4    4    0    0  0.15160789208E+02  0.21612187996E+02  0.43426638701E+02  0.50821455236E+02  0.10566000000E+00 0.  1.
    -200003    1    4    4    0    0 -0.18599097819E+02  0.31616539094E+03  0.36040211243E+03  0.48072462337E+03  0.30000000000E+02 0.  1.
    -200000    1    3    3    0    0  0.11994012767E+03 -0.17406197036E+03  0.80919582733E+03  0.84242631174E+03  0.10100000000E+03 0.  1.
<mgrwt>
<rscale>  0 0.13738107E+04</rscale>
<asrwt>0</asrwt>
<pdfrwt beam="1">  1        2 0.27511448E+00 0.13738107E+04</pdfrwt>
<pdfrwt beam="2">  1       -2 0.35001307E-01 0.13738107E+04</pdfrwt>
<totfact> 0.65499235E+01</totfact>
</mgrwt>
</event>
<event>
 8    2  0.4480234E-052  0.1861082E+04  0.7818608E-02  0.8674474E-01
         -2   -1    0    0    0  501 -0.00000000000E+00  0.00000000000E+00  0.13131848505E+04  0.13131848505E+04  0.25500000000E-02 0. -1.
          2   -1    0    0  501    0  0.00000000000E+00 -0.00000000000E+00 -0.65939448179E+03  0.65939448180E+03  0.25500000000E-02 0.  1.
    -200001    2    1    2    0    0 -0.42623951442E+03  0.43848203289E+03  0.68867231385E+03  0.11060157935E+04  0.61241714761E+03 0.  0.
   -5000001    2    3    3    0    0 -0.83077639593E+02  0.42792968027E+03  0.18287062845E+03  0.48641288075E+03  0.11458672853E+03 0.  0.
     200001    1    1    2    0    0  0.42623951442E+03 -0.43848203289E+03 -0.34881945104E+02  0.86656353888E+03  0.61300000000E+03 0.  1.
         13    1    4    4    0    0 -0.27271041674E+02  0.32969886256E+03  0.15924856108E+03  0.36715822891E+03  0.10566000000E+00 0.  1.
    -200003    1    4    4    0    0 -0.55806597919E+02  0.98230817705E+02  0.23622067377E+02  0.11925465184E+03  0.30000000000E+02 0.  1.
    -200000    1    3    3    0    0 -0.34316187483E+03  0.10552352623E+02  0.50580168540E+03  0.61960291270E+03  0.10100000000E+03 0. -1.
<mgrwt>
<rscale>  0 0.18610823E+04</rscale>
<asrwt>0</asrwt>
<pdfrwt beam="1">  1        2 0.94199212E-01 0.18610823E+04</pdfrwt>
<pdfrwt beam="2">  1       -2 0.18759783E+00 0.18610823E+04</pdfrwt>
<totfact> 0.73389901E+00</totfact>
</mgrwt>
</event>
<event>
 8    2  0.4480234E-052  0.1347947E+04  0.7818608E-02  0.8992384E-01
          2   -1    0    0  501    0  0.00000000000E+00  0.00000000000E+00  0.12446736564E+04  0.12446736564E+04  0.25500000000E-02 0.  1.
         -2   -1    0    0    0  501 -0.00000000000E+00 -0.00000000000E+00 -0.36494722657E+03  0.36494722658E+03  0.25500000000E-02 0. -1.
    -200001    2    1    2    0    0 -0.46910968186E+02 -0.27191476375E+03  0.49351521741E+03  0.83433617511E+03  0.61353182933E+03 0.  0.
   -5000001    2    3    3    0    0 -0.11736748085E+03 -0.36251705850E+03  0.54854537127E+03  0.67184859459E+03  0.72696399101E+02 0.  0.
     200001    1    1    2    0    0  0.46910968186E+02  0.27191476375E+03  0.38621121246E+03  0.77528470791E+03  0.61300000000E+03 0. -1.
         13    1    4    4    0    0 -0.27276955281E+01 -0.10867941996E+02  0.44810933127E+02  0.46190728267E+02  0.10566000000E+00 0.  1.
    -200003    1    4    4    0    0 -0.11463978532E+03 -0.35164911650E+03  0.50373443815E+03  0.62565786632E+03  0.30000000000E+02 0.  1.
    -200000    1    3    3    0    0  0.70456512665E+02  0.90602294747E+02 -0.55030153864E+02  0.16248758052E+03  0.10100000000E+03 0. -1.
<mgrwt>
<rscale>  0 0.13479469E+04</rscale>
<asrwt>0</asrwt>
<pdfrwt beam="1">  1        2 0.17781052E+00 0.13479469E+04</pdfrwt>
<pdfrwt beam="2">  1       -2 0.52135318E-01 0.13479469E+04</pdfrwt>
<totfact> 0.68446610E+01</totfact>
</mgrwt>
</event>
<event>
 8    2  0.4480234E-052  0.1451248E+04  0.7818608E-02  0.8917535E-01
          2   -1    0    0  501    0  0.00000000000E+00  0.00000000000E+00  0.86726499676E+03  0.86726499676E+03  0.25500000000E-02 0. -1.
         -2   -1    0    0    0  501 -0.00000000000E+00 -0.00000000000E+00 -0.60711605992E+03  0.60711605993E+03  0.25500000000E-02 0.  1.
    -200001    2    1    2    0    0  0.12640967716E+03  0.36281812091E+03  0.18599427422E+03  0.74713673095E+03  0.61319085882E+03 0.  0.
   -5000001    2    3    3    0    0  0.32498678700E+03  0.10855997689E+03  0.14047150764E+03  0.40603059698E+03  0.16651402618E+03 0.  0.
     200001    1    1    2    0    0 -0.12640967716E+03 -0.36281812091E+03  0.74154662611E+02  0.72724432574E+03  0.61300000000E+03 0. -1.
         13    1    4    4    0    0  0.17007226285E+03  0.11822147635E+03  0.13618269962E+03  0.24788430951E+03  0.10566000000E+00 0.  1.
    -200003    1    4    4    0    0  0.15491452415E+03 -0.96614994640E+01  0.42888080215E+01  0.15814628747E+03  0.30000000000E+02 0.  1.
    -200000    1    3    3    0    0 -0.19857710984E+03  0.25425814402E+03  0.45522766582E+02  0.34110613397E+03  0.10100000000E+03 0. -1.
<mgrwt>
<rscale>  0 0.14512484E+04</rscale>
<asrwt>0</asrwt>
<pdfrwt beam="1">  1        2 0.12389500E+00 0.14512484E+04</pdfrwt>
<pdfrwt beam="2">  1       -2 0.86730866E-01 0.14512484E+04</pdfrwt>
<totfact> 0.38217080E+01</totfact>
</mgrwt>
</event>
<event>
 8    2  0.4480234E-052  0.1372409E+04  0.7818608E-02  0.8974036E-01
         -2   -1    0    0    0  501 -0.00000000000E+00  0.00000000000E+00  0.57884660816E+03  0.57884660816E+03  0.25500000000E-02 0. -1.
          2   -1    0    0  501    0  0.00000000000E+00 -0.00000000000E+00 -0.81347367803E+03  0.81347367803E+03  0.25500000000E-02 0.  1.
    -200001    2    1    2    0    0 -0.74448376219E+01  0.78445214516E+02  0.18334124276E+03  0.64621333163E+03  0.61462881595E+03 0.  0.
   -5000001    2    3    3    0    0 -0.16799012165E+03 -0.73212882560E+02 -0.13580951202E+03  0.24517322028E+03  0.89915945430E+02 0.  0.
     200001    1    1    2    0    0  0.74448376219E+01 -0.78445214516E+02 -0.41796831263E+03  0.74610695457E+03  0.61300000000E+03 0.  1.
         13    1    4    4    0    0 -0.11903165310E+03 -0.49804360090E+02 -0.12956001721E+03  0.18285190168E+03  0.10566000000E+00 0.  1.
    -200003    1    4    4    0    0 -0.48958468554E+02 -0.23408522470E+02 -0.62494948130E+01  0.62321318606E+02  0.30000000000E+02 0. -1.
    -200000    1    3    3    0    0  0.16054528403E+03  0.15165809708E+03  0.31915075479E+03  0.40104011135E+03  0.10100000000E+03 0. -1.
<mgrwt>
<rscale>  0 0.13724088E+04</rscale>
<asrwt>0</asrwt>
<pdfrwt beam="1">  1        2 0.11621052E+00 0.13724088E+04</pdfrwt>
<pdfrwt beam="2">  1       -2 0.82692374E-01 0.13724088E+04</pdfrwt>
<totfact> 0.46610658E+01</totfact>
</mgrwt>
</event>
<event>
 8    2  0.4480234E-052  0.1237861E+04  0.7818608E-02  0.9080347E-01
          2   -1    0    0  501    0  0.00000000000E+00  0.00000000000E+00  0.25785349369E+04  0.25785349369E+04  0.25500000000E-02 0.  1.
         -2   -1    0    0    0  501 -0.00000000000E+00 -0.00000000000E+00 -0.14856307895E+03  0.14856307897E+03  0.25500000000E-02 0. -1.
    -200001    2    1    2    0    0 -0.34321354279E+02 -0.35462934228E+02  0.13496786781E+04  0.14840220208E+04  0.61502296629E+03 0.  0.
   -5000001    2    3    3    0    0 -0.25028755585E+03  0.15299041027E+03  0.53458371223E+03  0.61411578065E+03  0.72859593871E+02 0.  0.
     200001    1    1    2    0    0  0.34321354279E+02  0.35462934228E+02  0.10802931798E+04  0.12430759950E+04  0.61300000000E+03 0. -1.
         13    1    4    4    0    0 -0.20534018827E+03  0.13266258831E+03  0.43689547092E+03  0.50064120778E+03  0.10566000000E+00 0.  1.
    -200003    1    4    4    0    0 -0.44947367584E+02  0.20327821955E+02  0.97688241310E+02  0.11347457287E+03  0.30000000000E+02 0.  1.
    -200000    1    3    3    0    0  0.21596620157E+03 -0.18845334450E+03  0.81509496590E+03  0.86990624018E+03  0.10100000000E+03 0.  1.
<mgrwt>
<rscale>  0 0.12378612E+04</rscale>
<asrwt>0</asrwt>
<pdfrwt beam="1">  1        2 0.36836213E+00 0.12378612E+04</pdfrwt>
<pdfrwt beam="2">  1       -2 0.21223297E-01 0.12378612E+04</pdfrwt>
<totfact> 0.76263805E+01</totfact>
</mgrwt>
</event>
<event>
 8    2  0.4480234E-052  0.1429436E+04  0.7818608E-02  0.8932782E-01
         -2   -1    0    0    0  501 -0.00000000000E+00  0.00000000000E+00  0.12250236346E+04  0.12250236346E+04  0.25500000000E-02 0. -1.
          2   -1    0    0  501    0  0.00000000000E+00 -0.00000000000E+00 -0.41698949632E+03  0.41698949633E+03  0.25500000000E-02 0.  1.
    -200001    2    1    2    0    0 -0.31839889141E+03  0.17078092260E+03  0.47798789266E+03  0.85763853812E+03  0.61361833330E+03 0.  0.
   -5000001    2    3    3    0    0  0.15069161109E+03  0.96513903694E+02  0.69005808060E+02  0.22279301741E+03  0.11336680203E+03 0.  0.
     200001    1    1    2    0    0  0.31839889141E+03 -0.17078092260E+03  0.33004624559E+03  0.78437459278E+03  0.61300000000E+03 0.  1.
         13    1    4    4    0    0  0.12840715920E+03  0.10505716249E+03  0.30938356467E+02  0.16876788495E+03  0.10566000000E+00 0.  1.
    -200003    1    4    4    0    0  0.22284451897E+02 -0.85432587996E+01  0.38067451593E+02  0.54025132467E+02  0.30000000000E+02 0. -1.
    -200000    1    3    3    0    0 -0.46909050250E+03  0.74267018909E+02  0.40898208460E+03  0.63484552071E+03  0.10100000000E+03 0. -1.
<mgrwt>
<rscale>  0 0.14294362E+04</rscale>
<asrwt>0</asrwt>
<pdfrwt beam="1">  1        2 0.59569928E-01 0.14294362E+04</pdfrwt>
<pdfrwt beam="2">  1       -2 0.17500338E+00 0.14294362E+04</pdfrwt>
<totfact> 0.15758543E+01</totfact>
</mgrwt>
</event>
<event>
 8    2  0.4480234E-052  0.1828156E+04  0.7818608E-02  0.8691468E-01
          2   -1    0    0  501    0  0.00000000000E+00  0.00000000000E+00  0.26389868128E+04  0.26389868128E+04  0.25500000000E-02 0.  1.
         -2   -1    0    0    0  501 -0.00000000000E+00 -0.00000000000E+00 -0.31661338268E+03  0.31661338269E+03  0.25500000000E-02 0. -1.
    -200001    2    1    2    0    0 -0.60485397039E+03  0.27642655697E+03  0.13753427525E+04  0.16460597909E+04  0.61293162871E+03 0.  0.
   -5000001    2    3    3    0    0 -0.55619980792E+03  0.39327414262E+03  0.12958020577E+04  0.14656482948E+04  0.70704835033E+02 0.  0.
     200001    1    1    2    0    0  0.60485397039E+03 -0.27642655697E+03  0.94703067762E+03  0.13095404046E+04  0.61300000000E+03 0. -1.
         13    1    4    4    0    0 -0.29505492403E+03  0.23320312876E+03  0.67305083492E+03  0.77099840792E+03  0.10566000000E+00 0.  1.
    -200003    1    4    4    0    0 -0.26114488388E+03  0.16007101386E+03  0.62275122279E+03  0.69464988688E+03  0.30000000000E+02 0. -1.
    -200000    1    3    3    0    0 -0.48654162471E+02 -0.11684758566E+03  0.79540694810E+02  0.18041149612E+03  0.10100000000E+03 0. -1.
<mgrwt>
<rscale>  0 0.18281559E+04</rscale>
<asrwt>0</asrwt>
<pdfrwt beam="1">  1        2 0.37699815E+00 0.18281559E+04</pdfrwt>
<pdfrwt beam="2">  1       -2 0.45230480E-01 0.18281559E+04</pdfrwt>
<totfact> 0.16293169E+01</totfact>
</mgrwt>
</event>
<event>
 8    2  0.4480234E-052  0.1409856E+04  0.7818608E-02  0.8946715E-01
          2   -1    0    0  501    0  0.00000000000E+00  0.00000000000E+00  0.17147944826E+04  0.17147944826E+04  0.25500000000E-02 0.  1.
         -2   -1    0    0    0  501 -0.00000000000E+00 -0.00000000000E+00 -0.28978602117E+03  0.28978602118E+03  0.25500000000E-02 0. -1.
    -200001    2    1    2    0    0 -0.22785553471E+02  0.15823542922E+03  0.11552423474E+04  0.13160310220E+04  0.60975006126E+03 0.  0.
   -5000001    2    3    3    0    0 -0.84385948673E+02 -0.19233592556E+03  0.30127923540E+03  0.38535982331E+03  0.11670012485E+03 0.  0.
     200001    1    1    2    0    0  0.22785553471E+02 -0.15823542922E+03  0.26976611400E+03  0.68854948171E+03  0.61300000000E+03 0. -1.
         13    1    4    4    0    0 -0.41042489961E+02 -0.53924946051E+02  0.18511785803E+03  0.19713198197E+03  0.10566000000E+00 0.  1.
    -200003    1    4    4    0    0 -0.43343458712E+02 -0.13841097951E+03  0.11616137737E+03  0.18822784134E+03  0.30000000000E+02 0.  1.
    -200000    1    3    3    0    0  0.61600395203E+02  0.35057135478E+03  0.85396311199E+03  0.93067119871E+03  0.10100000000E+03 0. -1.
<mgrwt>
<rscale>  0 0.14098560E+04</rscale>
<asrwt>0</asrwt>
<pdfrwt beam="1">  1        2 0.24497064E+00 0.14098560E+04</pdfrwt>
<pdfrwt beam="2">  1       -2 0.41398004E-01 0.14098560E+04</pdfrwt>
<totfact> 0.60627526E+01</totfact>
</mgrwt>
</event>
<event>
 8    2  0.4480234E-052  0.1294578E+04  0.7818608E-02  0.9033876E-01
         -2   -1    0    0    0  501 -0.00000000000E+00  0.00000000000E+00  0.20192874411E+03  0.20192874413E+03  0.25500000000E-02 0. -1.
          2   -1    0    0  501    0  0.00000000000E+00 -0.00000000000E+00 -0.20749069836E+04  0.20749069836E+04  0.25500000000E-02 0.  1.
    -200001    2    1    2    0    0 -0.11248819897E+03 -0.15934432467E+03 -0.82576242325E+03  0.10478222313E+04  0.61482000615E+03 0.  0.
   -5000001    2    3    3    0    0 -0.15851536129E+03  0.97491735510E+02 -0.65419903680E+03  0.71961763494E+03  0.23503489636E+03 0.  0.
     200001    1    1    2    0    0  0.11248819897E+03  0.15934432467E+03 -0.10472158163E+04  0.12290134965E+04  0.61300000000E+03 0.  1.
         13    1    4    4    0    0 -0.12862226179E+03  0.12168973208E+02 -0.59181296480E+03  0.60575107644E+03  0.10566000000E+00 0.  1.
    -200003    1    4    4    0    0 -0.29893099499E+02  0.85322762302E+02 -0.62386071998E+02  0.11386655850E+03  0.30000000000E+02 0.  1.
    -200000    1    3    3    0    0  0.46027162316E+02 -0.25683606018E+03 -0.17156338645E+03  0.32820459633E+03  0.10100000000E+03 0. -1.
<mgrwt>
<rscale>  0 0.12945785E+04</rscale>
<asrwt>0</asrwt>
<pdfrwt beam="1">  1        2 0.29641527E+00 0.12945785E+04</pdfrwt>
<pdfrwt beam="2">  1       -2 0.28846965E-01 0.12945785E+04</pdfrwt>
<totfact> 0.79468028E+01</totfact>
</mgrwt>
</event>
<event>
 8    2  0.4480234E-052  0.1501180E+04  0.7818608E-02  0.8883669E-01
         -2   -1    0    0    0  501 -0.00000000000E+00  0.00000000000E+00  0.21153474000E+04  0.21153474000E+04  0.25500000000E-02 0. -1.
          2   -1    0    0  501    0  0.00000000000E+00 -0.00000000000E+00 -0.26633225657E+03  0.26633225659E+03  0.25500000000E-02 0.  1.
    -200001    2    1    2    0    0 -0.34134400227E+03 -0.25594275756E+03  0.80233625293E+03  0.10958615813E+04  0.61249221993E+03 0.  0.
   -5000001    2    3    3    0    0 -0.53669385138E+02 -0.23725341005E+03  0.74216028775E+03  0.78452876282E+03  0.74255662990E+02 0.  0.
     200001    1    1    2    0    0  0.34134400227E+03  0.25594275756E+03  0.10466788905E+04  0.12858180753E+04  0.61300000000E+03 0. -1.
         13    1    4    4    0    0  0.72260245848E+01 -0.94073869953E+02  0.31956416296E+03  0.33320170145E+03  0.10566000000E+00 0.  1.
    -200003    1    4    4    0    0 -0.60895409723E+02 -0.14317954010E+03  0.42259612480E+03  0.45132706137E+03  0.30000000000E+02 0.  1.
    -200000    1    3    3    0    0 -0.28767461713E+03 -0.18689347506E+02  0.60175965177E+02  0.31133281844E+03  0.10100000000E+03 0.  1.
<mgrwt>
<rscale>  0 0.15011799E+04</rscale>
<asrwt>0</asrwt>
<pdfrwt beam="1">  1        2 0.38047466E-01 0.15011799E+04</pdfrwt>
<pdfrwt beam="2">  1       -2 0.30219248E+00 0.15011799E+04</pdfrwt>
<totfact> 0.40797131E+00</totfact>
</mgrwt>
</event>
<event>
 8    2  0.4480234E-052  0.1260643E+04  0.7818608E-02  0.9061372E-01
          2   -1    0    0  501    0  0.00000000000E+00  0.00000000000E+00  0.69022588151E+03  0.69022588151E+03  0.25500000000E-02 0.  1.
         -2   -1    0    0    0  501 -0.00000000000E+00 -0.00000000000E+00 -0.57561592267E+03  0.57561592268E+03  0.25500000000E-02 0. -1.
    -200001    2    1    2    0    0  0.12050295393E+03 -0.80225694765E+02  0.88034787484E+02  0.63541943487E+03  0.61241375752E+03 0.  0.
   -5000001    2    3    3    0    0 -0.29541050843E+02 -0.20083696253E+03 -0.18314872528E+03  0.28785393187E+03  0.90045940055E+02 0.  0.
     200001    1    1    2    0    0 -0.12050295393E+03  0.80225694765E+02  0.26575171352E+02  0.63042236932E+03  0.61300000000E+03 0. -1.
         13    1    4    4    0    0 -0.49868784405E+02 -0.12554282360E+03 -0.87991668794E+02  0.16121551153E+03  0.10566000000E+00 0.  1.
    -200003    1    4    4    0    0  0.20327733561E+02 -0.75294138923E+02 -0.95157056485E+02  0.12663842034E+03  0.30000000000E+02 0. -1.
    -200000    1    3    3    0    0  0.15004400477E+03  0.12061126776E+03  0.27118351276E+03  0.34756550300E+03  0.10100000000E+03 0.  1.
<mgrwt>
<rscale>  0 0.12606427E+04</rscale>
<asrwt>0</asrwt>
<pdfrwt beam="1">  1        2 0.98603698E-01 0.12606427E+04</pdfrwt>
<pdfrwt beam="2">  1       -2 0.82230846E-01 0.12606427E+04</pdfrwt>
<totfact> 0.58559528E+01</totfact>
</mgrwt>
</event>
<event>
 8    2  0.4480234E-052  0.1522948E+04  0.7818608E-02  0.8869334E-01
         -2   -1    0    0    0  501 -0.00000000000E+00  0.00000000000E+00  0.79734742471E+03  0.79734742472E+03  0.25500000000E-02 0. -1.
          2   -1    0    0  501    0  0.00000000000E+00 -0.00000000000E+00 -0.72721489250E+03  0.72721489251E+03  0.25500000000E-02 0.  1.
    -200001    2    1    2    0    0  0.37377137451E+03 -0.24891398974E+03 -0.50813419244E+01  0.76095944822E+03  0.61430468589E+03 0.  0.
   -5000001    2    3    3    0    0  0.10526273648E+03 -0.38276023801E+03  0.11746294599E+03  0.42150428274E+03  0.79263315576E+02 0.  0.
     200001    1    1    2    0    0 -0.37377137451E+03  0.24891398974E+03  0.75213874132E+02  0.76360286900E+03  0.61300000000E+03 0.  1.
         13    1    4    4    0    0  0.84231349527E+02 -0.26528610141E+03  0.55845159452E+02  0.28388435822E+03  0.10566000000E+00 0.  1.
    -200003    1    4    4    0    0  0.21031386955E+02 -0.11747413660E+03  0.61617786541E+02  0.13761992452E+03  0.30000000000E+02 0. -1.
    -200000    1    3    3    0    0  0.26850863802E+03  0.13384624827E+03 -0.12254428792E+03  0.33945516548E+03  0.10100000000E+03 0.  1.
<mgrwt>
<rscale>  0 0.15229484E+04</rscale>
<asrwt>0</asrwt>
<pdfrwt beam="1">  1        2 0.10388784E+00 0.15229484E+04</pdfrwt>
<pdfrwt beam="2">  1       -2 0.11390678E+00 0.15229484E+04</pdfrwt>
<totfact> 0.25038753E+01</totfact>
</mgrwt>
</event>
<event>
 8    2  0.4480234E-052  0.1314307E+04  0.7818608E-02  0.9018296E-01
         -2   -1    0    0    0  501 -0.00000000000E+00  0.00000000000E+00  0.28898052408E+03  0.28898052409E+03  0.25500000000E-02 0. -1.
          2   -1    0    0  501    0  0.00000000000E+00 -0.00000000000E+00 -0.14943943736E+04  0.14943943736E+04  0.25500000000E-02 0.  1.
    -200001    2    1    2    0    0 -0.11593603835E+03 -0.67808071995E+01 -0.32501847238E+03  0.70432338622E+03  0.61396032498E+03 0.  0.
   -5000001    2    3    3    0    0 -0.25277620696E+02 -0.27614146894E+03 -0.26867370615E+03  0.39748491493E+03  0.94422604503E+02 0.  0.
     200001    1    1    2    0    0  0.11593603835E+03  0.67808071995E+01 -0.88039537712E+03  0.10790515115E+04  0.61300000000E+03 0.  1.
         13    1    4    4    0    0  0.10681415133E+01  0.19525171968E+01 -0.26429248103E+02  0.26523000754E+02  0.10566000000E+00 0.  1.
    -200003    1    4    4    0    0 -0.26345762209E+02 -0.27809398613E+03 -0.24224445805E+03  0.37096191417E+03  0.30000000000E+02 0.  1.
    -200000    1    3    3    0    0 -0.90658417658E+02  0.26936066174E+03 -0.56344766232E+02  0.30683847129E+03  0.10100000000E+03 0.  1.
<mgrwt>
<rscale>  0 0.13143072E+04</rscale>
<asrwt>0</asrwt>
<pdfrwt beam="1">  1        2 0.21348491E+00 0.13143072E+04</pdfrwt>
<pdfrwt beam="2">  1       -2 0.41282933E-01 0.13143072E+04</pdfrwt>
<totfact> 0.80117157E+01</totfact>
</mgrwt>
</event>
<event>
 8    2  0.4480234E-052  0.1462026E+04  0.7818608E-02  0.8910105E-01
          2   -1    0    0  501    0  0.00000000000E+00  0.00000000000E+00  0.72667808598E+03  0.72667808599E+03  0.25500000000E-02 0.  1.
         -2   -1    0    0    0  501 -0.00000000000E+00 -0.00000000000E+00 -0.73537422843E+03  0.73537422844E+03  0.25500000000E-02 0. -1.
    -200001    2    1    2    0    0 -0.93605053682E+02 -0.19182221212E+03 -0.34055982531E+03  0.73303916562E+03  0.61303161140E+03 0.  0.
   -5000001    2    3    3    0    0  0.13759060396E+03  0.12340904240E+03 -0.24605025416E+03  0.31836431109E+03  0.81572918064E+02 0.  0.
     200001    1    1    2    0    0  0.93605053682E+02  0.19182221212E+03  0.33186368286E+03  0.72901314881E+03  0.61300000000E+03 0.  1.
         13    1    4    4    0    0  0.96600643568E+02  0.11266951722E+03 -0.16320207266E+03  0.22059245710E+03  0.10566000000E+00 0.  1.
    -200003    1    4    4    0    0  0.40989960390E+02  0.10739525183E+02 -0.82848181499E+02  0.97771853985E+02  0.30000000000E+02 0. -1.
    -200000    1    3    3    0    0 -0.23119565764E+03 -0.31523125452E+03 -0.94509571151E+02  0.41467485453E+03  0.10100000000E+03 0.  1.
<mgrwt>
<rscale>  0 0.14620265E+04</rscale>
<asrwt>0</asrwt>
<pdfrwt beam="1">  1        2 0.10381115E+00 0.14620265E+04</pdfrwt>
<pdfrwt beam="2">  1       -2 0.10505346E+00 0.14620265E+04</pdfrwt>
<totfact> 0.30621484E+01</totfact>
</mgrwt>
</event>
<event>
 8    2  0.4480234E-052  0.1278654E+04  0.7818608E-02  0.9046666E-01
          2   -1    0    0  501    0  0.00000000000E+00  0.00000000000E+00  0.11059309448E+04  0.11059309448E+04  0.25500000000E-02 0.  1.
         -2   -1    0    0    0  501 -0.00000000000E+00 -0.00000000000E+00 -0.36958841864E+03  0.36958841865E+03  0.25500000000E-02 0. -1.
    -200001    2    1    2    0    0 -0.32675598733E+02  0.17537062332E+03  0.38503613129E+03  0.74681658909E+03  0.61454018995E+03 0.  0.
   -5000001    2    3    3    0    0 -0.48294128926E+02  0.22994416373E+03  0.51480967049E+03  0.57284997944E+03  0.89002588667E+02 0.  0.
     200001    1    1    2    0    0  0.32675598733E+02 -0.17537062332E+03  0.35130639485E+03  0.72870277434E+03  0.61300000000E+03 0.  1.
         13    1    4    4    0    0 -0.78042919824E+01  0.15669308832E+03  0.26838798216E+03  0.31087899741E+03  0.10566000000E+00 0.  1.
    -200003    1    4    4    0    0 -0.40489836944E+02  0.73251075419E+02  0.24642168833E+03  0.26197098203E+03  0.30000000000E+02 0.  1.
    -200000    1    3    3    0    0  0.15618530194E+02 -0.54573540412E+02 -0.12977353920E+03  0.17396660965E+03  0.10100000000E+03 0. -1.
<mgrwt>
<rscale>  0 0.12786544E+04</rscale>
<asrwt>0</asrwt>
<pdfrwt beam="1">  1        2 0.15799014E+00 0.12786544E+04</pdfrwt>
<pdfrwt beam="2">  1       -2 0.52798345E-01 0.12786544E+04</pdfrwt>
<totfact> 0.80536590E+01</totfact>
</mgrwt>
</event>
<event>
 8    2  0.4480234E-052  0.1436214E+04  0.7818608E-02  0.8928014E-01
         -2   -1    0    0    0  501 -0.00000000000E+00  0.00000000000E+00  0.43006250044E+03  0.43006250045E+03  0.25500000000E-02 0. -1.
          2   -1    0    0  501    0  0.00000000000E+00 -0.00000000000E+00 -0.11990767084E+04  0.11990767084E+04  0.25500000000E-02 0.  1.
    -200001    2    1    2    0    0 -0.25907440854E+03  0.79521831591E+02 -0.91636209923E+02  0.67622094211E+03  0.61272693488E+03 0.  0.
   -5000001    2    3    3    0    0 -0.28609700016E+03  0.29891825714E+03 -0.10958131827E+02  0.42014485130E+03  0.72097139111E+02 0.  0.
     200001    1    1    2    0    0  0.25907440854E+03 -0.79521831591E+02 -0.67737799805E+03  0.95291826675E+03  0.61300000000E+03 0.  1.
         13    1    4    4    0    0 -0.44103528691E+02  0.63803145855E+02 -0.23910137008E+02  0.81164453302E+02  0.10566000000E+00 0.  1.
    -200003    1    4    4    0    0 -0.24199347147E+03  0.23511511128E+03  0.12952005182E+02  0.33898039800E+03  0.30000000000E+02 0.  1.
    -200000    1    3    3    0    0  0.27022591625E+02 -0.21939642555E+03 -0.80678078096E+02  0.25607609081E+03  0.10100000000E+03 0. -1.
<mgrwt>
<rscale>  0 0.14362144E+04</rscale>
<asrwt>0</asrwt>
<pdfrwt beam="1">  1        2 0.17129667E+00 0.14362144E+04</pdfrwt>
<pdfrwt beam="2">  1       -2 0.61437501E-01 0.14362144E+04</pdfrwt>
<totfact> 0.51231015E+01</totfact>
</mgrwt>
</event>
<event>
 8    2  0.4480234E-052  0.2557403E+04  0.7818608E-02  0.8382816E-01
          2   -1    0    0  501    0  0.00000000000E+00  0.00000000000E+00  0.95817352170E+03  0.95817352171E+03  0.25500000000E-02 0.  1.
         -2   -1    0    0    0  501 -0.00000000000E+00 -0.00000000000E+00 -0.17064518380E+04  0.17064518380E+04  0.25500000000E-02 0. -1.
    -200001    2    1    2    0    0  0.15322641947E+03  0.70705462900E+03 -0.12678657888E+04  0.15833554001E+04  0.61329118757E+03 0.  0.
   -5000001    2    3    3    0    0  0.12448326817E+03 -0.69611325660E+02 -0.26032541785E+03  0.30688574795E+03  0.77895560885E+02 0.  0.
     200001    1    1    2    0    0 -0.15322641947E+03 -0.70705462900E+03  0.51958747246E+03  0.10812699596E+04  0.61300000000E+03 0.  1.
         13    1    4    4    0    0  0.68565007721E+01 -0.35815311632E+02 -0.55785518897E+02  0.66646706091E+02  0.10566000000E+00 0.  1.
    -200003    1    4    4    0    0  0.11762676740E+03 -0.33796014027E+02 -0.20453989895E+03  0.24023904186E+03  0.30000000000E+02 0.  1.
    -200000    1    3    3    0    0  0.28743151304E+02  0.77666595466E+03 -0.10075403709E+04  0.12764696522E+04  0.10100000000E+03 0. -1.
<mgrwt>
<rscale>  0 0.25574026E+04</rscale>
<asrwt>0</asrwt>
<pdfrwt beam="1">  1        2 0.13688193E+00 0.25574026E+04</pdfrwt>
<pdfrwt beam="2">  1       -2 0.24377883E+00 0.25574026E+04</pdfrwt>
<totfact> 0.18684991E+00</totfact>
</mgrwt>
</event>
<event>
 8    2  0.4480234E-052  0.2429249E+04  0.7818608E-02  0.8428634E-01
          2   -1    0    0  501    0  0.00000000000E+00  0.00000000000E+00  0.27345220947E+04  0.27345220947E+04  0.25500000000E-02 0.  1.
         -2   -1    0    0    0  501 -0.00000000000E+00 -0.00000000000E+00 -0.53951381702E+03  0.53951381703E+03  0.25500000000E-02 0. -1.
    -200001    2    1    2    0    0 -0.57494468629E+03  0.74009575247E+03  0.17319817962E+04  0.20622332720E+04  0.61216175205E+03 0.  0.
   -5000001    2    3    3    0    0 -0.32762746496E+03  0.58701452906E+02  0.84511415915E+03  0.91236405984E+03  0.86050097731E+02 0.  0.
     200001    1    1    2    0    0  0.57494468629E+03 -0.74009575247E+03  0.46302648148E+03  0.12118026397E+04  0.61300000000E+03 0. -1.
         13    1    4    4    0    0 -0.17238001284E+03 -0.39305643935E+01  0.46493471674E+03  0.49587762619E+03  0.10566000000E+00 0.  1.
    -200003    1    4    4    0    0 -0.15524745212E+03  0.62632017300E+02  0.38017944241E+03  0.41648643365E+03  0.30000000000E+02 0.  1.
    -200000    1    3    3    0    0 -0.24731722132E+03  0.68139429957E+03  0.88686763709E+03  0.11498692122E+04  0.10100000000E+03 0.  1.
<mgrwt>
<rscale>  0 0.24292488E+04</rscale>
<asrwt>0</asrwt>
<pdfrwt beam="1">  1        2 0.39064601E+00 0.24292488E+04</pdfrwt>
<pdfrwt beam="2">  1       -2 0.77073403E-01 0.24292488E+04</pdfrwt>
<totfact> 0.44748625E+00</totfact>
</mgrwt>
</event>
<event>
 8    2  0.4480234E-052  0.1386481E+04  0.7818608E-02  0.8963663E-01
         -2   -1    0    0    0  501 -0.00000000000E+00  0.00000000000E+00  0.72064853650E+03  0.72064853651E+03  0.25500000000E-02 0. -1.
          2   -1    0    0  501    0  0.00000000000E+00 -0.00000000000E+00 -0.66687466924E+03  0.66687466924E+03  0.25500000000E-02 0.  1.
    -200001    2    1    2    0    0 -0.52122081925E+01 -0.13224619573E+03  0.32129447881E+03  0.70572228099E+03  0.61424553102E+03 0.  0.
   -5000001    2    3    3    0    0  0.13285396229E+03 -0.17654536735E+03 -0.86859840472E+02  0.26095758772E+03  0.10833184516E+03 0.  0.
     200001    1    1    2    0    0  0.52122081925E+01  0.13224619573E+03 -0.26752061154E+03  0.68180092476E+03  0.61300000000E+03 0.  1.
         13    1    4    4    0    0  0.29710733788E+02  0.38983117072E+01  0.72618976990E+01  0.30832950858E+02  0.10566000000E+00 0.  1.
    -200003    1    4    4    0    0  0.10314322850E+03 -0.18044367905E+03 -0.94121738171E+02  0.23012463686E+03  0.30000000000E+02 0.  1.
    -200000    1    3    3    0    0 -0.13806617048E+03  0.44299171612E+02  0.40815431928E+03  0.44476469327E+03  0.10100000000E+03 0. -1.
<mgrwt>
<rscale>  0 0.13864808E+04</rscale>
<asrwt>0</asrwt>
<pdfrwt beam="1">  1        2 0.95267810E-01 0.13864808E+04</pdfrwt>
<pdfrwt beam="2">  1       -2 0.10294979E+00 0.13864808E+04</pdfrwt>
<totfact> 0.35934207E+01</totfact>
</mgrwt>
</event>
<event>
 8    2  0.4480234E-052  0.1370517E+04  0.7818608E-02  0.8975440E-01
         -2   -1    0    0    0  501 -0.00000000000E+00  0.00000000000E+00  0.81262543866E+03  0.81262543867E+03  0.25500000000E-02 0. -1.
          2   -1    0    0  501    0  0.00000000000E+00 -0.00000000000E+00 -0.57785471248E+03  0.57785471248E+03  0.25500000000E-02 0.  1.
    -200001    2    1    2    0    0  0.16767759369E+03 -0.22370934182E+03 -0.10116495314E+02  0.67361168602E+03  0.61277133992E+03 0.  0.
   -5000001    2    3    3    0    0  0.13832045061E+02 -0.41962494913E+02 -0.25167692207E+03  0.31970095014E+03  0.19213341190E+03 0.  0.
     200001    1    1    2    0    0 -0.16767759369E+03  0.22370934182E+03  0.24488722150E+03  0.71686846513E+03  0.61300000000E+03 0. -1.
         13    1    4    4    0    0  0.15076319411E+02 -0.13162399119E+02  0.29397712997E+02  0.35563757550E+02  0.10566000000E+00 0.  1.
    -200003    1    4    4    0    0 -0.12442743502E+01 -0.28800095794E+02 -0.28107463507E+03  0.28413719259E+03  0.30000000000E+02 0.  1.
    -200000    1    3    3    0    0  0.15384554863E+03 -0.18174684691E+03  0.24156042676E+03  0.35391073588E+03  0.10100000000E+03 0. -1.
<mgrwt>
<rscale>  0 0.13705173E+04</rscale>
<asrwt>0</asrwt>
<pdfrwt beam="1">  1        2 0.82550673E-01 0.13705173E+04</pdfrwt>
<pdfrwt beam="2">  1       -2 0.11608935E+00 0.13705173E+04</pdfrwt>
<totfact> 0.31932211E+01</totfact>
</mgrwt>
</event>
<event>
 8    2  0.4480234E-052  0.1487385E+04  0.7818608E-02  0.8892885E-01
          2   -1    0    0  501    0  0.00000000000E+00  0.00000000000E+00  0.72334713217E+03  0.72334713218E+03  0.25500000000E-02 0. -1.
         -2   -1    0    0    0  501 -0.00000000000E+00 -0.00000000000E+00 -0.76460995897E+03  0.76460995898E+03  0.25500000000E-02 0.  1.
    -200001    2    1    2    0    0  0.96435972011E+02  0.40707469850E+03 -0.72814336288E+02  0.74514203705E+03  0.61231121250E+03 0.  0.
   -5000001    2    3    3    0    0  0.32116875326E+03  0.20352927454E+03  0.67900534099E+02  0.39594690918E+03  0.87120254191E+02 0.  0.
     200001    1    1    2    0    0 -0.96435972011E+02 -0.40707469850E+03  0.31551509486E+02  0.74281505410E+03  0.61300000000E+03 0.  1.
         13    1    4    4    0    0  0.10450690948E+03  0.89626746212E+02 -0.80383155127E+01  0.13791038194E+03  0.10566000000E+00 0.  1.
    -200003    1    4    4    0    0  0.21666184378E+03  0.11390252833E+03  0.75938849612E+02  0.25803652724E+03  0.30000000000E+02 0.  1.
    -200000    1    3    3    0    0 -0.22473278125E+03  0.20354542395E+03 -0.14071487039E+03  0.34919512787E+03  0.10100000000E+03 0.  1.
<mgrwt>
<rscale>  0 0.14873848E+04</rscale>
<asrwt>0</asrwt>
<pdfrwt beam="1">  1        2 0.10333530E+00 0.14873848E+04</pdfrwt>
<pdfrwt beam="2">  1       -2 0.10922999E+00 0.14873848E+04</pdfrwt>
<totfact> 0.27982574E+01</totfact>
</mgrwt>
</event>
<event>
 8    2  0.4480234E-052  0.1690329E+04  0.7818608E-02  0.8766899E-01
         -2   -1    0    0    0  501 -0.00000000000E+00  0.00000000000E+00  0.18499251542E+04  0.18499251542E+04  0.25500000000E-02 0. -1.
          2   -1    0    0  501    0  0.00000000000E+00 -0.00000000000E+00 -0.38612542076E+03  0.38612542076E+03  0.25500000000E-02 0.  1.
    -200001    2    1    2    0    0 -0.14613815079E+03 -0.53882836077E+03  0.51442518531E+03  0.97558502838E+03  0.61273200898E+03 0.  0.
   -5000001    2    3    3    0    0 -0.23049094171E+03 -0.73391162211E+01  0.40545236209E+02  0.25145837056E+03  0.91692197620E+02 0.  0.
     200001    1    1    2    0    0  0.14613815079E+03  0.53882836077E+03  0.94937454814E+03  0.12604655466E+04  0.61300000000E+03 0. -1.
         13    1    4    4    0    0 -0.60821024880E+02  0.28222020844E+00  0.49990818713E+02  0.78729726503E+02  0.10566000000E+00 0.  1.
    -200003    1    4    4    0    0 -0.16966991684E+03 -0.76213364295E+01 -0.94455825034E+01  0.17272864405E+03  0.30000000000E+02 0.  1.
    -200000    1    3    3    0    0  0.84352790926E+02 -0.53148924455E+03  0.47387994910E+03  0.72412665782E+03  0.10100000000E+03 0.  1.
<mgrwt>
<rscale>  0 0.16903291E+04</rscale>
<asrwt>0</asrwt>
<pdfrwt beam="1">  1        2 0.55160776E-01 0.16903291E+04</pdfrwt>
<pdfrwt beam="2">  1       -2 0.26427502E+00 0.16903291E+04</pdfrwt>
<totfact> 0.45152158E+00</totfact>
</mgrwt>
</event>
<event>
 8    2  0.4480234E-052  0.1620687E+04  0.7818608E-02  0.8807939E-01
          2   -1    0    0  501    0  0.00000000000E+00  0.00000000000E+00  0.13270007688E+04  0.13270007688E+04  0.25500000000E-02 0.  1.
         -2   -1    0    0    0  501 -0.00000000000E+00 -0.00000000000E+00 -0.49484240535E+03  0.49484240536E+03  0.25500000000E-02 0. -1.
    -200001    2    1    2    0    0 -0.49446356309E+03  0.36273233058E+02  0.20587628183E+03  0.81496274014E+03  0.61316332387E+03 0.  0.
   -5000001    2    3    3    0    0  0.89593579418E+02 -0.48803079862E+02  0.70186857992E+02  0.20098118954E+03  0.15829874743E+03 0.  0.
     200001    1    1    2    0    0  0.49446356309E+03 -0.36273233058E+02  0.62628208162E+03  0.10068804340E+04  0.61300000000E+03 0.  1.
         13    1    4    4    0    0  0.35941143750E+02 -0.54302355182E+02  0.10979154873E+03  0.12765072240E+03  0.10566000000E+00 0.  1.
    -200003    1    4    4    0    0  0.53652435667E+02  0.54992753200E+01 -0.39604690742E+02  0.73330467139E+02  0.30000000000E+02 0.  1.
    -200000    1    3    3    0    0 -0.58405714251E+03  0.85076312920E+02  0.13568942384E+03  0.61398155060E+03  0.10100000000E+03 0. -1.
<mgrwt>
<rscale>  0 0.16206866E+04</rscale>
<asrwt>0</asrwt>
<pdfrwt beam="1">  1        2 0.18957154E+00 0.16206866E+04</pdfrwt>
<pdfrwt beam="2">  1       -2 0.70691772E-01 0.16206866E+04</pdfrwt>
<totfact> 0.31666752E+01</totfact>
</mgrwt>
</event>
<event>
 8    2  0.4480234E-052  0.2412043E+04  0.7818608E-02  0.8435008E-01
         -2   -1    0    0    0  501 -0.00000000000E+00  0.00000000000E+00  0.20405955193E+04  0.20405955193E+04  0.25500000000E-02 0. -1.
          2   -1    0    0  501    0  0.00000000000E+00 -0.00000000000E+00 -0.71277632869E+03  0.71277632869E+03  0.25500000000E-02 0.  1.
    -200001    2    1    2    0    0  0.41630623095E+03  0.77947841198E+02 -0.41868051147E+03  0.85457829596E+03  0.61288167648E+03 0.  0.
   -5000001    2    3    3    0    0  0.51940631437E+03 -0.67840403706E+02 -0.31320711549E+03  0.62390650138E+03  0.12951982666E+03 0.  0.
     200001    1    1    2    0    0 -0.41630623095E+03 -0.77947841198E+02  0.17464997021E+04  0.18987935520E+04  0.61300000000E+03 0. -1.
         13    1    4    4    0    0  0.17458036538E+03 -0.71246004797E+02 -0.71209607872E+02  0.20155673294E+03  0.10566000000E+00 0.  1.
    -200003    1    4    4    0    0  0.34482594899E+03  0.34056010908E+01 -0.24199750762E+03  0.42234976845E+03  0.30000000000E+02 0.  1.
    -200000    1    3    3    0    0 -0.10310008342E+03  0.14578824490E+03 -0.10547339598E+03  0.23067179457E+03  0.10100000000E+03 0. -1.
<mgrwt>
<rscale>  0 0.24120433E+04</rscale>
<asrwt>0</asrwt>
<pdfrwt beam="1">  1        2 0.10182519E+00 0.24120433E+04</pdfrwt>
<pdfrwt beam="2">  1       -2 0.29151365E+00 0.24120433E+04</pdfrwt>
<totfact> 0.14228052E+00</totfact>
</mgrwt>
</event>
<event>
 8    2  0.4480234E-052  0.1431901E+04  0.7818608E-02  0.8931045E-01
         -2   -1    0    0    0  501 -0.00000000000E+00  0.00000000000E+00  0.83907411914E+03  0.83907411914E+03  0.25500000000E-02 0. -1.
          2   -1    0    0  501    0  0.00000000000E+00 -0.00000000000E+00 -0.61089381522E+03  0.61089381523E+03  0.25500000000E-02 0.  1.
    -200001    2    1    2    0    0  0.15008554866E+03  0.32994088685E+03  0.18713825739E+03  0.73663763898E+03  0.61337396672E+03 0.  0.
   -5000001    2    3    3    0    0  0.72924860014E+02 -0.13473240815E+03  0.16548894827E+03  0.25440871456E+03  0.11775544586E+03 0.  0.
     200001    1    1    2    0    0 -0.15008554866E+03 -0.32994088685E+03  0.41042046533E+02  0.71333029539E+03  0.61300000000E+03 0.  1.
         13    1    4    4    0    0  0.30758565044E+02 -0.10852642840E+03  0.46453239669E+02  0.12199176048E+03  0.10566000000E+00 0.  1.
    -200003    1    4    4    0    0  0.42166294970E+02 -0.26205979755E+02  0.11903570860E+03  0.13241695408E+03  0.30000000000E+02 0.  1.
    -200000    1    3    3    0    0  0.77160688642E+02  0.46467329501E+03  0.21649309115E+02  0.48222892442E+03  0.10100000000E+03 0. -1.
<mgrwt>
<rscale>  0 0.14319011E+04</rscale>
<asrwt>0</asrwt>
<pdfrwt beam="1">  1        2 0.87270545E-01 0.14319011E+04</pdfrwt>
<pdfrwt beam="2">  1       -2 0.11986773E+00 0.14319011E+04</pdfrwt>
<totfact> 0.27505525E+01</totfact>
</mgrwt>
</event>
<event>
 8    2  0.4480234E-052  0.1639953E+04  0.7818608E-02  0.8796372E-01
         -2   -1    0    0    0  501 -0.00000000000E+00  0.00000000000E+00  0.51143273605E+03  0.51143273605E+03  0.25500000000E-02 0. -1.
          2   -1    0    0  501    0  0.00000000000E+00 -0.00000000000E+00 -0.13146632238E+04  0.13146632238E+04  0.25500000000E-02 0.  1.
    -200001    2    1    2    0    0  0.30781246597E+03  0.39518552942E+03 -0.64010417378E+03  0.10178266290E+04  0.61263168105E+03 0.  0.
   -5000001    2    3    3    0    0  0.35809827637E+02 -0.46244270423E+02 -0.18535103322E+03  0.32079928216E+03  0.25521813732E+03 0.  0.
     200001    1    1    2    0    0 -0.30781246597E+03 -0.39518552942E+03 -0.16312631401E+03  0.80826933085E+03  0.61300000000E+03 0.  1.
         13    1    4    4    0    0  0.13267265136E+03 -0.38785300869E+02 -0.16816181515E+03  0.21768036021E+03  0.10566000000E+00 0.  1.
    -200003    1    4    4    0    0 -0.96862823725E+02 -0.74589695542E+01 -0.17189218073E+02  0.10311892195E+03  0.30000000000E+02 0.  1.
    -200000    1    3    3    0    0  0.27200263834E+03  0.44142979984E+03 -0.45475314056E+03  0.69702734688E+03  0.10100000000E+03 0.  1.
<mgrwt>
<rscale>  0 0.16399534E+04</rscale>
<asrwt>0</asrwt>
<pdfrwt beam="1">  1        2 0.18780903E+00 0.16399534E+04</pdfrwt>
<pdfrwt beam="2">  1       -2 0.73061820E-01 0.16399534E+04</pdfrwt>
<totfact> 0.29876679E+01</totfact>
</mgrwt>
</event>
<event>
 8    2  0.4480234E-052  0.2242183E+04  0.7818608E-02  0.8501073E-01
         -2   -1    0    0    0  501 -0.00000000000E+00  0.00000000000E+00  0.10499964858E+04  0.10499964858E+04  0.25500000000E-02 0. -1.
          2   -1    0    0  501    0  0.00000000000E+00 -0.00000000000E+00 -0.11970007127E+04  0.11970007127E+04  0.25500000000E-02 0.  1.
    -200001    2    1    2    0    0 -0.12235421791E+03 -0.35489110511E+03  0.78892267234E+03  0.10668927913E+04  0.61232588883E+03 0.  0.
   -5000001    2    3    3    0    0 -0.25706663585E+03 -0.37602636827E+03  0.63539146347E+03  0.83805449254E+03  0.30188397724E+03 0.  0.
     200001    1    1    2    0    0  0.12235421791E+03  0.35489110511E+03 -0.93592689919E+03  0.11801044071E+04  0.61300000000E+03 0.  1.
         13    1    4    4    0    0  0.12353397678E+02 -0.16615432080E+03  0.78696449040E+02  0.18426341745E+03  0.10566000000E+00 0.  1.
    -200003    1    4    4    0    0 -0.26942003353E+03 -0.20987204747E+03  0.55669501443E+03  0.65379107509E+03  0.30000000000E+02 0.  1.
    -200000    1    3    3    0    0  0.13471241794E+03  0.21135263157E+02  0.15353120888E+03  0.22883829880E+03  0.10100000000E+03 0. -1.
<mgrwt>
<rscale>  0 0.22421833E+04</rscale>
<asrwt>0</asrwt>
<pdfrwt beam="1">  1        2 0.17100010E+00 0.22421833E+04</pdfrwt>
<pdfrwt beam="2">  1       -2 0.14999950E+00 0.22421833E+04</pdfrwt>
<totfact> 0.58846375E+00</totfact>
</mgrwt>
</event>
<event>
 8    2  0.4480234E-052  0.1525608E+04  0.7818608E-02  0.8867600E-01
          2   -1    0    0  501    0  0.00000000000E+00  0.00000000000E+00  0.24119447895E+04  0.24119447895E+04  0.25500000000E-02 0.  1.
         -2   -1    0    0    0  501 -0.00000000000E+00 -0.00000000000E+00 -0.24124504631E+03  0.24124504633E+03  0.25500000000E-02 0. -1.
    -200001    2    1    2    0    0 -0.86162716022E+02 -0.29403785039E+03  0.50320780569E+03  0.85036410029E+03  0.61320366622E+03 0.  0.
   -5000001    2    3    3    0    0 -0.41359459267E+02  0.99905520634E+02 -0.68866540872E+02  0.14703717106E+03  0.72011188703E+02 0.  0.
     200001    1    1    2    0    0  0.86162716022E+02  0.29403785039E+03  0.16674919375E+04  0.18028257356E+04  0.61300000000E+03 0.  1.
         13    1    4    4    0    0 -0.22799885253E+02  0.83888466459E+02 -0.64085840513E+02  0.10800053560E+03  0.10566000000E+00 0.  1.
    -200003    1    4    4    0    0 -0.18559574014E+02  0.16017054174E+02 -0.47807003592E+01  0.39036635459E+02  0.30000000000E+02 0.  1.
    -200000    1    3    3    0    0 -0.44803256755E+02 -0.39394337102E+03  0.57207434656E+03  0.70332692923E+03  0.10100000000E+03 0. -1.
<mgrwt>
<rscale>  0 0.15256077E+04</rscale>
<asrwt>0</asrwt>
<pdfrwt beam="1">  1        2 0.34456353E+00 0.15256077E+04</pdfrwt>
<pdfrwt beam="2">  1       -2 0.34463579E-01 0.15256077E+04</pdfrwt>
<totfact> 0.37416809E+01</totfact>
</mgrwt>
</event>
<event>
 8    2  0.4480234E-052  0.1397617E+04  0.7818608E-02  0.8955545E-01
          2   -1    0    0  501    0  0.00000000000E+00  0.00000000000E+00  0.38882308093E+03  0.38882308094E+03  0.25500000000E-02 0.  1.
         -2   -1    0    0    0  501 -0.00000000000E+00 -0.00000000000E+00 -0.12559262953E+04  0.12559262953E+04  0.25500000000E-02 0. -1.
    -200001    2    1    2    0    0  0.93847407089E+02 -0.32153520860E+03 -0.44767305489E+03  0.82995928986E+03  0.61337511571E+03 0.  0.
   -5000001    2    3    3    0    0  0.25705314610E+03 -0.26927700510E+03 -0.49627394214E+03  0.62519093459E+03  0.77391560568E+02 0.  0.
     200001    1    1    2    0    0 -0.93847407089E+02  0.32153520860E+03 -0.41943015951E+03  0.81479008640E+03  0.61300000000E+03 0.  1.
         13    1    4    4    0    0  0.11479749770E+03 -0.88551757416E+02 -0.15184703891E+03  0.20994621599E+03  0.10566000000E+00 0.  1.
    -200003    1    4    4    0    0  0.14225564840E+03 -0.18072524768E+03 -0.34442690323E+03  0.41524471860E+03  0.30000000000E+02 0.  1.
    -200000    1    3    3    0    0 -0.16320573901E+03 -0.52258203506E+02  0.48600887253E+02  0.20476835528E+03  0.10100000000E+03 0.  1.
<mgrwt>
<rscale>  0 0.13976167E+04</rscale>
<asrwt>0</asrwt>
<pdfrwt beam="1">  1        2 0.55546155E-01 0.13976167E+04</pdfrwt>
<pdfrwt beam="2">  1       -2 0.17941804E+00 0.13976167E+04</pdfrwt>
<totfact> 0.15914489E+01</totfact>
</mgrwt>
</event>
<event>
 8    2  0.4480234E-052  0.1468966E+04  0.7818608E-02  0.8905357E-01
          2   -1    0    0  501    0  0.00000000000E+00  0.00000000000E+00  0.35299777038E+03  0.35299777039E+03  0.25500000000E-02 0.  1.
         -2   -1    0    0    0  501 -0.00000000000E+00 -0.00000000000E+00 -0.15282398135E+04  0.15282398135E+04  0.25500000000E-02 0. -1.
    -200001    2    1    2    0    0 -0.28421614316E+03 -0.26281084550E+03 -0.43718256328E+03  0.84666078522E+03  0.61307221030E+03 0.  0.
   -5000001    2    3    3    0    0  0.71679528196E+02  0.74403461084E+02  0.18149778376E+02  0.16997492101E+03  0.13374688608E+03 0.  0.
     200001    1    1    2    0    0  0.28421614316E+03  0.26281084550E+03 -0.73805947980E+03  0.10345767986E+04  0.61300000000E+03 0. -1.
         13    1    4    4    0    0 -0.10764902228E+02  0.21192372333E+02  0.55819833830E+02  0.60670130855E+02  0.10566000000E+00 0.  1.
    -200003    1    4    4    0    0  0.82444430424E+02  0.53211088751E+02 -0.37670055454E+02  0.10930479016E+03  0.30000000000E+02 0.  1.
    -200000    1    3    3    0    0 -0.35589567136E+03 -0.33721430658E+03 -0.45533234165E+03  0.67668586420E+03  0.10100000000E+03 0. -1.
<mgrwt>
<rscale>  0 0.14689660E+04</rscale>
<asrwt>0</asrwt>
<pdfrwt beam="1">  1        2 0.50428254E-01 0.14689660E+04</pdfrwt>
<pdfrwt beam="2">  1       -2 0.21831997E+00 0.14689660E+04</pdfrwt>
<totfact> 0.97709978E+00</totfact>
</mgrwt>
</event>
<event>
 8    2  0.4480234E-052  0.1978706E+04  0.7818608E-02  0.8616642E-01
          2   -1    0    0  501    0  0.00000000000E+00  0.00000000000E+00  0.64760483607E+03  0.64760483608E+03  0.25500000000E-02 0.  1.
         -2   -1    0    0    0  501 -0.00000000000E+00 -0.00000000000E+00 -0.15114448195E+04  0.15114448195E+04  0.25500000000E-02 0. -1.
    -200001    2    1    2    0    0  0.27686874305E+03 -0.68693676701E+03 -0.17652330475E+03  0.97722410180E+03  0.61259125464E+03 0.  0.
   -5000001    2    3    3    0    0  0.33988180744E+03 -0.58978174709E+03  0.55538694093E+02  0.69890141949E+03  0.14837956532E+03 0.  0.
     200001    1    1    2    0    0 -0.27686874305E+03  0.68693676701E+03 -0.68731667865E+03  0.11818255538E+04  0.61300000000E+03 0. -1.
         13    1    4    4    0    0  0.13312292848E+03 -0.11263367690E+03  0.33391823589E+02  0.17754741425E+03  0.10566000000E+00 0.  1.
    -200003    1    4    4    0    0  0.20675887895E+03 -0.47714807019E+03  0.22146870504E+02  0.52135400524E+03  0.30000000000E+02 0.  1.
    -200000    1    3    3    0    0 -0.63013064382E+02 -0.97155019928E+02 -0.23206199885E+03  0.27832268231E+03  0.10100000000E+03 0. -1.
<mgrwt>
<rscale>  0 0.19787056E+04</rscale>
<asrwt>0</asrwt>
<pdfrwt beam="1">  1        2 0.92514977E-01 0.19787056E+04</pdfrwt>
<pdfrwt beam="2">  1       -2 0.21592069E+00 0.19787056E+04</pdfrwt>
<totfact> 0.48482166E+00</totfact>
</mgrwt>
</event>
<event>
 8    2  0.4480234E-052  0.1477166E+04  0.7818608E-02  0.8899781E-01
         -2   -1    0    0    0  501 -0.00000000000E+00  0.00000000000E+00  0.37479028262E+03  0.37479028263E+03  0.25500000000E-02 0. -1.
          2   -1    0    0  501    0  0.00000000000E+00 -0.00000000000E+00 -0.14554929388E+04  0.14554929388E+04  0.25500000000E-02 0.  1.
    -200001    2    1    2    0    0 -0.74425430323E+02  0.25969088770E+03 -0.92645160177E+03  0.11428671250E+04  0.61225337335E+03 0.  0.
   -5000001    2    3    3    0    0  0.17208442837E+03 -0.38266792909E+02 -0.10967457973E+03  0.23354232408E+03  0.10693972962E+03 0.  0.
     200001    1    1    2    0    0  0.74425430323E+02 -0.25969088770E+03 -0.15425105441E+03  0.68741609642E+03  0.61300000000E+03 0. -1.
         13    1    4    4    0    0  0.71381339675E+02 -0.95789925557E+01 -0.10130728731E+03  0.12429895566E+03  0.10566000000E+00 0.  1.
    -200003    1    4    4    0    0  0.10070308869E+03 -0.28687800353E+02 -0.83672924209E+01  0.10924336842E+03  0.30000000000E+02 0.  1.
    -200000    1    3    3    0    0 -0.24650985869E+03  0.29795768061E+03 -0.81677702204E+03  0.90932480094E+03  0.10100000000E+03 0.  1.
<mgrwt>
<rscale>  0 0.14771657E+04</rscale>
<asrwt>0</asrwt>
<pdfrwt beam="1">  1        2 0.20792756E+00 0.14771657E+04</pdfrwt>
<pdfrwt beam="2">  1       -2 0.53541470E-01 0.14771657E+04</pdfrwt>
<totfact> 0.49194336E+01</totfact>
</mgrwt>
</event>
<event>
 8    2  0.4480234E-052  0.1512651E+04  0.7818608E-02  0.8876084E-01
          2   -1    0    0  501    0  0.00000000000E+00  0.00000000000E+00  0.25504937144E+04  0.25504937144E+04  0.25500000000E-02 0.  1.
         -2   -1    0    0    0  501 -0.00000000000E+00 -0.00000000000E+00 -0.22428127583E+03  0.22428127585E+03  0.25500000000E-02 0. -1.
    -200001    2    1    2    0    0  0.10343977852E+03 -0.24602658489E+02  0.19519250895E+04  0.20487136304E+04  0.61311573608E+03 0.  0.
   -5000001    2    3    3    0    0  0.17823954122E+03 -0.25798739518E+03  0.13990006357E+04  0.14355334844E+04  0.72296445875E+02 0.  0.
     200001    1    1    2    0    0 -0.10343977852E+03  0.24602658489E+02  0.37428734908E+03  0.72606135985E+03  0.61300000000E+03 0. -1.
         13    1    4    4    0    0  0.53120018031E+02 -0.36494096989E+02  0.23466558452E+03  0.24335468590E+03  0.10566000000E+00 0.  1.
    -200003    1    4    4    0    0  0.12511952319E+03 -0.22149329819E+03  0.11643350512E+04  0.11921787985E+04  0.30000000000E+02 0.  1.
    -200000    1    3    3    0    0 -0.74799762700E+02  0.23338473669E+03  0.55292445380E+03  0.61318014599E+03  0.10100000000E+03 0. -1.
<mgrwt>
<rscale>  0 0.15126506E+04</rscale>
<asrwt>0</asrwt>
<pdfrwt beam="1">  1        2 0.36435623E+00 0.15126506E+04</pdfrwt>
<pdfrwt beam="2">  1       -2 0.32040184E-01 0.15126506E+04</pdfrwt>
<totfact> 0.36376207E+01</totfact>
</mgrwt>
</event>
<event>
 8    2  0.4480234E-052  0.1307363E+04  0.7818608E-02  0.9023747E-01
         -2   -1    0    0    0  501 -0.00000000000E+00  0.00000000000E+00  0.14911481750E+03  0.14911481753E+03  0.25500000000E-02 0. -1.
          2   -1    0    0  501    0  0.00000000000E+00 -0.00000000000E+00 -0.28655738776E+04  0.28655738776E+04  0.25500000000E-02 0.  1.
    -200001    2    1    2    0    0  0.21241244870E+03 -0.66166048614E+02 -0.12530272492E+04  0.14125343145E+04  0.61292651104E+03 0.  0.
   -5000001    2    3    3    0    0 -0.14873933116E+03 -0.34142265495E+02 -0.24936801265E+03  0.34062527266E+03  0.17479155504E+03 0.  0.
     200001    1    1    2    0    0 -0.21241244870E+03  0.66166048614E+02 -0.14634318108E+04  0.16021543806E+04  0.61300000000E+03 0.  1.
         13    1    4    4    0    0 -0.94677124253E+02  0.30418460341E+02 -0.30199903307E+02  0.10392827291E+03  0.10566000000E+00 0.  1.
    -200003    1    4    4    0    0 -0.54062206904E+02 -0.64560725836E+02 -0.21916810935E+03  0.23669699975E+03  0.30000000000E+02 0.  1.
    -200000    1    3    3    0    0  0.36115177986E+03 -0.32023783119E+02 -0.10036592366E+04  0.10719090418E+04  0.10100000000E+03 0.  1.
<mgrwt>
<rscale>  0 0.13073630E+04</rscale>
<asrwt>0</asrwt>
<pdfrwt beam="1">  1        2 0.40936766E+00 0.13073630E+04</pdfrwt>
<pdfrwt beam="2">  1       -2 0.21302119E-01 0.13073630E+04</pdfrwt>
<totfact> 0.52863794E+01</totfact>
</mgrwt>
</event>
<event>
 8    2  0.4480234E-052  0.2166172E+04  0.7818608E-02  0.8532641E-01
         -2   -1    0    0    0  501 -0.00000000000E+00  0.00000000000E+00  0.11912098208E+04  0.11912098208E+04  0.25500000000E-02 0. -1.
          2   -1    0    0  501    0  0.00000000000E+00 -0.00000000000E+00 -0.98477678053E+03  0.98477678054E+03  0.25500000000E-02 0.  1.
    -200001    2    1    2    0    0  0.13081734434E+03  0.17527567671E+03  0.97273724743E+03  0.11705882333E+04  0.61337127331E+03 0.  0.
   -5000001    2    3    3    0    0  0.20929556530E+03  0.27920496338E+03  0.29509784715E+03  0.47319574363E+03  0.12276574105E+03 0.  0.
     200001    1    1    2    0    0 -0.13081734434E+03 -0.17527567671E+03 -0.76630420721E+03  0.10053983680E+04  0.61300000000E+03 0.  1.
         13    1    4    4    0    0  0.96784406335E+02  0.21237184742E+03  0.21201985030E+03  0.31531167275E+03  0.10566000000E+00 0.  1.
    -200003    1    4    4    0    0  0.11251115896E+03  0.66833115959E+02  0.83077996846E+02  0.15788407089E+03  0.30000000000E+02 0.  1.
    -200000    1    3    3    0    0 -0.78478220957E+02 -0.10392928667E+03  0.67763940028E+03  0.69739248964E+03  0.10100000000E+03 0. -1.
<mgrwt>
<rscale>  0 0.21661725E+04</rscale>
<asrwt>0</asrwt>
<pdfrwt beam="1">  1        2 0.14068240E+00 0.21661725E+04</pdfrwt>
<pdfrwt beam="2">  1       -2 0.17017283E+00 0.21661725E+04</pdfrwt>
<totfact> 0.56151450E+00</totfact>
</mgrwt>
</event>
<event>
 8    2  0.4480234E-052  0.1374111E+04  0.7818608E-02  0.8972774E-01
          2   -1    0    0  501    0  0.00000000000E+00  0.00000000000E+00  0.35996318845E+03  0.35996318846E+03  0.25500000000E-02 0.  1.
         -2   -1    0    0    0  501 -0.00000000000E+00 -0.00000000000E+00 -0.13113715884E+04  0.13113715884E+04  0.25500000000E-02 0. -1.
    -200001    2    1    2    0    0  0.18005330329E+03 -0.16242049488E+03 -0.70519914670E+03  0.96763910004E+03  0.61661980365E+03 0.  0.
   -5000001    2    3    3    0    0  0.23856081023E+03 -0.19848237192E+03 -0.14829376563E+03  0.39749158334E+03  0.19925362170E+03 0.  0.
     200001    1    1    2    0    0 -0.18005330329E+03  0.16242049488E+03 -0.24620925326E+03  0.70369567682E+03  0.61300000000E+03 0.  1.
         13    1    4    4    0    0 -0.13620651619E+02 -0.62248853707E+02  0.16078140396E+02  0.65718792602E+02  0.10566000000E+00 0.  1.
    -200003    1    4    4    0    0  0.25218146185E+03 -0.13623351821E+03 -0.16437190602E+03  0.33177279074E+03  0.30000000000E+02 0.  1.
    -200000    1    3    3    0    0 -0.58507506936E+02  0.36061877033E+02 -0.55690538107E+03  0.57014751670E+03  0.10100000000E+03 0. -1.
<mgrwt>
<rscale>  0 0.13741113E+04</rscale>
<asrwt>0</asrwt>
<pdfrwt beam="1">  1        2 0.51423313E-01 0.13741113E+04</pdfrwt>
<pdfrwt beam="2">  1       -2 0.18733880E+00 0.13741113E+04</pdfrwt>
<totfact> 0.15338766E+01</totfact>
</mgrwt>
</event>
<event>
 8    2  0.4480234E-052  0.3725012E+04  0.7818608E-02  0.8062441E-01
          2   -1    0    0  501    0  0.00000000000E+00  0.00000000000E+00  0.12684775432E+04  0.12684775432E+04  0.25500000000E-02 0. -1.
         -2   -1    0    0    0  501 -0.00000000000E+00 -0.00000000000E+00 -0.27347182957E+04  0.27347182957E+04  0.25500000000E-02 0.  1.
    -200001    2    1    2    0    0  0.41085968697E+03 -0.13341579511E+04  0.41629164722E+03  0.15807011832E+04  0.61362396813E+03 0.  0.
   -5000001    2    3    3    0    0  0.20344918319E+03 -0.66926006006E+03 -0.95446359560E+02  0.71053734223E+03  0.80328755910E+02 0.  0.
     200001    1    1    2    0    0 -0.41085968697E+03  0.13341579511E+04 -0.18825323997E+04  0.24224946557E+04  0.61300000000E+03 0.  1.
         13    1    4    4    0    0  0.11346535205E+03 -0.41408710056E+03 -0.29095216071E+02  0.43033598005E+03  0.10566000000E+00 0.  1.
    -200003    1    4    4    0    0  0.89983831140E+02 -0.25517295949E+03 -0.66351143488E+02  0.28020136218E+03  0.30000000000E+02 0. -1.
    -200000    1    3    3    0    0  0.20741050379E+03 -0.66489789103E+03  0.51173800678E+03  0.87016384099E+03  0.10100000000E+03 0. -1.
<mgrwt>
<rscale>  0 0.37250121E+04</rscale>
<asrwt>0</asrwt>
<pdfrwt beam="1">  1        2 0.18121108E+00 0.37250121E+04</pdfrwt>
<pdfrwt beam="2">  1       -2 0.39067404E+00 0.37250121E+04</pdfrwt>
<totfact> 0.13573767E-01</totfact>
</mgrwt>
</event>
<event>
 8    2  0.4480234E-052  0.1271752E+04  0.7818608E-02  0.9052271E-01
         -2   -1    0    0    0  501 -0.00000000000E+00  0.00000000000E+00  0.11651537103E+03  0.11651537106E+03  0.25500000000E-02 0. -1.
          2   -1    0    0  501    0  0.00000000000E+00 -0.00000000000E+00 -0.34702546512E+04  0.34702546512E+04  0.25500000000E-02 0.  1.
    -200001    2    1    2    0    0 -0.10310214014E+03  0.45179040694E+02 -0.20331220014E+04  0.21264720411E+04  0.61288422366E+03 0.  0.
   -5000001    2    3    3    0    0 -0.31290150229E+03 -0.93193625010E+02 -0.10339670691E+04  0.10912549886E+04  0.12311437028E+03 0.  0.
     200001    1    1    2    0    0  0.10310214014E+03 -0.45179040694E+02 -0.13206172787E+04  0.14602979812E+04  0.61300000000E+03 0. -1.
         13    1    4    4    0    0  0.36535012923E+01  0.11305323302E+02 -0.65826200840E+02  0.66889896754E+02  0.10566000000E+00 0.  1.
    -200003    1    4    4    0    0 -0.31655500358E+03 -0.10449894831E+03 -0.96814086826E+03  0.10243650918E+04  0.30000000000E+02 0.  1.
    -200000    1    3    3    0    0  0.20979936215E+03  0.13837266570E+03 -0.99915493234E+03  0.10352170525E+04  0.10100000000E+03 0.  1.
<mgrwt>
<rscale>  0 0.12717516E+04</rscale>
<asrwt>0</asrwt>
<pdfrwt beam="1">  1        2 0.49575060E+00 0.12717516E+04</pdfrwt>
<pdfrwt beam="2">  1       -2 0.16645055E-01 0.12717516E+04</pdfrwt>
<totfact> 0.36844467E+01</totfact>
</mgrwt>
</event>
<event>
 8    2  0.4480234E-052  0.1445872E+04  0.7818608E-02  0.8921267E-01
          2   -1    0    0  501    0  0.00000000000E+00  0.00000000000E+00  0.47327349731E+03  0.47327349731E+03  0.25500000000E-02 0.  1.
         -2   -1    0    0    0  501 -0.00000000000E+00 -0.00000000000E+00 -0.11043016906E+04  0.11043016906E+04  0.25500000000E-02 0. -1.
    -200001    2    1    2    0    0  0.20444727596E+03  0.32541338049E+03 -0.30613841259E+03  0.78447057537E+03  0.61153969544E+03 0.  0.
   -5000001    2    3    3    0    0  0.40418968448E+03  0.19915432325E+03 -0.14266251942E+03  0.47989916018E+03  0.83179708983E+02 0.  0.
     200001    1    1    2    0    0 -0.20444727596E+03 -0.32541338049E+03 -0.32488978072E+03  0.79310461256E+03  0.61300000000E+03 0. -1.
         13    1    4    4    0    0  0.20864140344E+03  0.74854463295E+02 -0.96406674864E+02  0.24172025986E+03  0.10566000000E+00 0.  1.
    -200003    1    4    4    0    0  0.19554828104E+03  0.12429985995E+03 -0.46255844554E+02  0.23817890032E+03  0.30000000000E+02 0.  1.
    -200000    1    3    3    0    0 -0.19974240853E+03  0.12625905724E+03 -0.16347589317E+03  0.30457141518E+03  0.10100000000E+03 0. -1.
<mgrwt>
<rscale>  0 0.14458724E+04</rscale>
<asrwt>0</asrwt>
<pdfrwt beam="1">  1        2 0.67610500E-01 0.14458724E+04</pdfrwt>
<pdfrwt beam="2">  1       -2 0.15775738E+00 0.14458724E+04</pdfrwt>
<totfact> 0.18171719E+01</totfact>
</mgrwt>
</event>
<event>
 8    2  0.4480234E-052  0.1495224E+04  0.7818608E-02  0.8887635E-01
         -2   -1    0    0    0  501 -0.00000000000E+00  0.00000000000E+00  0.30384537511E+03  0.30384537512E+03  0.25500000000E-02 0. -1.
          2   -1    0    0  501    0  0.00000000000E+00 -0.00000000000E+00 -0.18395005130E+04  0.18395005130E+04  0.25500000000E-02 0.  1.
    -200001    2    1    2    0    0  0.40901645583E+03 -0.11982612834E+03 -0.71621564453E+03  0.10347869833E+04  0.61332413061E+03 0.  0.
   -5000001    2    3    3    0    0 -0.80301794299E+00 -0.17151195671E+03 -0.52184413179E+03  0.56723515634E+03  0.14148296213E+03 0.  0.
     200001    1    1    2    0    0 -0.40901645583E+03  0.11982612834E+03 -0.81943949340E+03  0.11085589048E+04  0.61300000000E+03 0.  1.
         13    1    4    4    0    0  0.53993093432E+02 -0.12319862630E+03 -0.40023107169E+03  0.42222988711E+03  0.10566000000E+00 0.  1.
    -200003    1    4    4    0    0 -0.54796111375E+02 -0.48313330415E+02 -0.12161306010E+03  0.14500526923E+03  0.30000000000E+02 0.  1.
    -200000    1    3    3    0    0  0.40981947378E+03  0.51685828373E+02 -0.19437151274E+03  0.46755182697E+03  0.10100000000E+03 0. -1.
<mgrwt>
<rscale>  0 0.14952240E+04</rscale>
<asrwt>0</asrwt>
<pdfrwt beam="1">  1        2 0.26278578E+00 0.14952240E+04</pdfrwt>
<pdfrwt beam="2">  1       -2 0.43406483E-01 0.14952240E+04</pdfrwt>
<totfact> 0.47285812E+01</totfact>
</mgrwt>
</event>
<event>
 8    2  0.4480234E-052  0.1301751E+04  0.7818608E-02  0.9028178E-01
         -2   -1    0    0    0  501 -0.00000000000E+00  0.00000000000E+00  0.61277469921E+03  0.61277469921E+03  0.25500000000E-02 0. -1.
          2   -1    0    0  501    0  0.00000000000E+00 -0.00000000000E+00 -0.69134484225E+03  0.69134484226E+03  0.25500000000E-02 0.  1.
    -200001    2    1    2    0    0 -0.12409651327E+03 -0.14751299474E+03  0.65439200719E+02  0.64558501746E+03  0.61264810255E+03 0.  0.
   -5000001    2    3    3    0    0 -0.24276542218E+03 -0.17996111905E+03 -0.16768278964E+03  0.36330492057E+03  0.11203523017E+03 0.  0.
     200001    1    1    2    0    0  0.12409651327E+03  0.14751299474E+03 -0.14400934377E+03  0.65853452401E+03  0.61300000000E+03 0. -1.
         13    1    4    4    0    0 -0.71456994890E+02 -0.11740308219E+03 -0.69090482394E+02  0.15382812405E+03  0.10566000000E+00 0.  1.
    -200003    1    4    4    0    0 -0.17130842728E+03 -0.62558036855E+02 -0.98592307242E+02  0.20947679652E+03  0.30000000000E+02 0.  1.
    -200000    1    3    3    0    0  0.11866890891E+03  0.32448124303E+02  0.23312199036E+03  0.28228009689E+03  0.10100000000E+03 0. -1.
<mgrwt>
<rscale>  0 0.13017506E+04</rscale>
<asrwt>0</asrwt>
<pdfrwt beam="1">  1        2 0.98763549E-01 0.13017506E+04</pdfrwt>
<pdfrwt beam="2">  1       -2 0.87539242E-01 0.13017506E+04</pdfrwt>
<totfact> 0.50542101E+01</totfact>
</mgrwt>
</event>
<event>
 8    2  0.4480234E-052  0.2333231E+04  0.7818608E-02  0.8464933E-01
         -2   -1    0    0    0  501 -0.00000000000E+00  0.00000000000E+00  0.11218387462E+04  0.11218387462E+04  0.25500000000E-02 0. -1.
          2   -1    0    0  501    0  0.00000000000E+00 -0.00000000000E+00 -0.12131794552E+04  0.12131794552E+04  0.25500000000E-02 0.  1.
    -200001    2    1    2    0    0  0.14909789755E+03  0.26606534550E+03  0.89831473370E+03  0.11316031248E+04  0.61687544950E+03 0.  0.
   -5000001    2    3    3    0    0 -0.18328547349E+03  0.17778612131E+03  0.62633774993E+03  0.68166489966E+03  0.84655706931E+02 0.  0.
     200001    1    1    2    0    0 -0.14909789755E+03 -0.26606534550E+03 -0.98965544276E+03  0.12034150766E+04  0.61300000000E+03 0.  1.
         13    1    4    4    0    0 -0.14475299744E+02  0.71695062143E+01  0.11353588997E+03  0.11467931635E+03  0.10566000000E+00 0.  1.
    -200003    1    4    4    0    0 -0.16881017374E+03  0.17061661509E+03  0.51280185996E+03  0.56698558331E+03  0.30000000000E+02 0.  1.
    -200000    1    3    3    0    0  0.33238337103E+03  0.88279224197E+02  0.27197698378E+03  0.44993822517E+03  0.10100000000E+03 0. -1.
<mgrwt>
<rscale>  0 0.23332310E+04</rscale>
<asrwt>0</asrwt>
<pdfrwt beam="1">  1        2 0.17331135E+00 0.23332310E+04</pdfrwt>
<pdfrwt beam="2">  1       -2 0.16026268E+00 0.23332310E+04</pdfrwt>
<totfact> 0.47873403E+00</totfact>
</mgrwt>
</event>
<event>
 8    2  0.4480234E-052  0.2598045E+04  0.7818608E-02  0.8368865E-01
         -2   -1    0    0    0  501 -0.00000000000E+00  0.00000000000E+00  0.11595164174E+04  0.11595164174E+04  0.25500000000E-02 0. -1.
          2   -1    0    0  501    0  0.00000000000E+00 -0.00000000000E+00 -0.14553133483E+04  0.14553133483E+04  0.25500000000E-02 0.  1.
    -200001    2    1    2    0    0 -0.10543076841E+02  0.82188210133E+03  0.65508973447E+03  0.12164178824E+04  0.61231410195E+03 0.  0.
   -5000001    2    3    3    0    0 -0.18131995662E+03  0.79144107508E+03  0.49528339951E+03  0.95984340308E+03  0.12937469079E+03 0.  0.
     200001    1    1    2    0    0  0.10543076841E+02 -0.82188210133E+03 -0.95088666540E+03  0.13984118833E+04  0.61300000000E+03 0.  1.
         13    1    4    4    0    0 -0.18113032132E+01  0.42405964064E+02 -0.20611000128E+01  0.42494775030E+02  0.10566000000E+00 0.  1.
    -200003    1    4    4    0    0 -0.17950865340E+03  0.74903511101E+03  0.49734449953E+03  0.91734862805E+03  0.30000000000E+02 0.  1.
    -200000    1    3    3    0    0  0.17077687977E+03  0.30441026252E+02  0.15980633495E+03  0.25657447932E+03  0.10100000000E+03 0.  1.
<mgrwt>
<rscale>  0 0.25980452E+04</rscale>
<asrwt>0</asrwt>
<pdfrwt beam="1">  1        2 0.20790191E+00 0.25980452E+04</pdfrwt>
<pdfrwt beam="2">  1       -2 0.16564520E+00 0.25980452E+04</pdfrwt>
<totfact> 0.31500910E+00</totfact>
</mgrwt>
</event>
<event>
 8    2  0.4480234E-052  0.1598819E+04  0.7818608E-02  0.8821274E-01
         -2   -1    0    0    0  501 -0.00000000000E+00  0.00000000000E+00  0.10632797214E+04  0.10632797214E+04  0.25500000000E-02 0. -1.
          2   -1    0    0  501    0  0.00000000000E+00 -0.00000000000E+00 -0.60102289279E+03  0.60102289280E+03  0.25500000000E-02 0.  1.
    -200001    2    1    2    0    0  0.24902562877E+03 -0.31326084402E+03  0.56349666858E+03  0.92527309829E+03  0.61518752485E+03 0.  0.
   -5000001    2    3    3    0    0 -0.17501883258E+02  0.23865993408E+02  0.10907370204E+03  0.29171753506E+03  0.26893520823E+03 0.  0.
     200001    1    1    2    0    0 -0.24902562877E+03  0.31326084402E+03 -0.10123983998E+03  0.73902951591E+03  0.61300000000E+03 0.  1.
         13    1    4    4    0    0 -0.71027166124E+02  0.12321107778E+03  0.10146673746E+03  0.17470357177E+03  0.10566000000E+00 0.  1.
    -200003    1    4    4    0    0  0.53525282866E+02 -0.99345084370E+02  0.76069645851E+01  0.11701396329E+03  0.30000000000E+02 0.  1.
    -200000    1    3    3    0    0  0.26652751203E+03 -0.33712683743E+03  0.45442296653E+03  0.63355556323E+03  0.10100000000E+03 0. -1.
<mgrwt>
<rscale>  0 0.15988189E+04</rscale>
<asrwt>0</asrwt>
<pdfrwt beam="1">  1        2 0.85860413E-01 0.15988189E+04</pdfrwt>
<pdfrwt beam="2">  1       -2 0.15189710E+00 0.15988189E+04</pdfrwt>
<totfact> 0.15073841E+01</totfact>
</mgrwt>
</event>
<event>
 8    2  0.4480234E-052  0.1471783E+04  0.7818608E-02  0.8903437E-01
          2   -1    0    0  501    0  0.00000000000E+00  0.00000000000E+00  0.21973772780E+04  0.21973772780E+04  0.25500000000E-02 0.  1.
         -2   -1    0    0    0  501 -0.00000000000E+00 -0.00000000000E+00 -0.24644658452E+03  0.24644658453E+03  0.25500000000E-02 0. -1.
    -200001    2    1    2    0    0 -0.16494075976E+03 -0.27845264276E+02  0.35832016909E+03  0.72913494165E+03  0.61258763176E+03 0.  0.
   -5000001    2    3    3    0    0  0.74548910476E+02  0.22817844830E+03  0.22875700087E+03  0.34197727595E+03  0.83640585233E+02 0.  0.
     200001    1    1    2    0    0  0.16494075976E+03  0.27845264276E+02  0.15926105243E+04  0.17146889208E+04  0.61300000000E+03 0.  1.
         13    1    4    4    0    0  0.94586933967E+01  0.59687873908E+01  0.40609630525E+02  0.42121806218E+02  0.10566000000E+00 0.  1.
    -200003    1    4    4    0    0  0.65090217079E+02  0.22220966091E+03  0.18814737034E+03  0.29985546973E+03  0.30000000000E+02 0.  1.
    -200000    1    3    3    0    0 -0.23948967024E+03 -0.25602371258E+03  0.12956316822E+03  0.38715766570E+03  0.10100000000E+03 0. -1.
<mgrwt>
<rscale>  0 0.14717828E+04</rscale>
<asrwt>0</asrwt>
<pdfrwt beam="1">  1        2 0.31391105E+00 0.14717828E+04</pdfrwt>
<pdfrwt beam="2">  1       -2 0.35206654E-01 0.14717828E+04</pdfrwt>
<totfact> 0.46612509E+01</totfact>
</mgrwt>
</event>
<event>
 8    2  0.4480234E-052  0.1751899E+04  0.7818608E-02  0.8732306E-01
          2   -1    0    0  501    0  0.00000000000E+00  0.00000000000E+00  0.30931946772E+04  0.30931946772E+04  0.25500000000E-02 0.  1.
         -2   -1    0    0    0  501 -0.00000000000E+00 -0.00000000000E+00 -0.24805674893E+03  0.24805674895E+03  0.25500000000E-02 0. -1.
    -200001    2    1    2    0    0  0.10935392092E+03 -0.23624667124E+03  0.25076775726E+04  0.25946462686E+04  0.61316529675E+03 0.  0.
   -5000001    2    3    3    0    0  0.67374329105E+01 -0.38436533791E+03  0.21125581655E+04  0.21487879627E+04  0.81274843038E+02 0.  0.
     200001    1    1    2    0    0 -0.10935392092E+03  0.23624667124E+03  0.33746035566E+03  0.74660515759E+03  0.61300000000E+03 0. -1.
         13    1    4    4    0    0 -0.12637288585E+02 -0.28861160576E+03  0.16471221094E+04  0.16722642179E+04  0.10566000000E+00 0.  1.
    -200003    1    4    4    0    0  0.19374721495E+02 -0.95753732149E+02  0.46543605608E+03  0.47652374479E+03  0.30000000000E+02 0.  1.
    -200000    1    3    3    0    0  0.10261648801E+03  0.14811866667E+03  0.39511940715E+03  0.44585830589E+03  0.10100000000E+03 0. -1.
<mgrwt>
<rscale>  0 0.17518993E+04</rscale>
<asrwt>0</asrwt>
<pdfrwt beam="1">  1        2 0.44188496E+00 0.17518993E+04</pdfrwt>
<pdfrwt beam="2">  1       -2 0.35436678E-01 0.17518993E+04</pdfrwt>
<totfact> 0.14894153E+01</totfact>
</mgrwt>
</event>
<event>
 8    2  0.4480234E-052  0.1390593E+04  0.7818608E-02  0.8960656E-01
         -2   -1    0    0    0  501 -0.00000000000E+00  0.00000000000E+00  0.60478660306E+03  0.60478660306E+03  0.25500000000E-02 0. -1.
          2   -1    0    0  501    0  0.00000000000E+00 -0.00000000000E+00 -0.79935206190E+03  0.79935206191E+03  0.25500000000E-02 0.  1.
    -200001    2    1    2    0    0 -0.16607643287E+03  0.20426521452E+03  0.10110439687E+03  0.67441589364E+03  0.61262471311E+03 0.  0.
   -5000001    2    3    3    0    0 -0.38182930512E+03  0.11166692386E+03  0.38358508211E+02  0.41123954239E+03  0.96868291726E+02 0.  0.
     200001    1    1    2    0    0  0.16607643287E+03 -0.20426521452E+03 -0.29566985571E+03  0.72972277133E+03  0.61300000000E+03 0. -1.
         13    1    4    4    0    0 -0.56121279372E+02  0.52212650776E+02  0.60047185946E+00  0.76655923645E+02  0.10566000000E+00 0.  1.
    -200003    1    4    4    0    0 -0.32570802575E+03  0.59454273081E+02  0.37758036352E+02  0.33458361875E+03  0.30000000000E+02 0.  1.
    -200000    1    3    3    0    0  0.21575287224E+03  0.92598290661E+02  0.62745888655E+02  0.26317635125E+03  0.10100000000E+03 0.  1.
<mgrwt>
<rscale>  0 0.13905933E+04</rscale>
<asrwt>0</asrwt>
<pdfrwt beam="1">  1        2 0.11419315E+00 0.13905933E+04</pdfrwt>
<pdfrwt beam="2">  1       -2 0.86398086E-01 0.13905933E+04</pdfrwt>
<totfact> 0.43100529E+01</totfact>
</mgrwt>
</event>
<event>
 8    2  0.4480234E-052  0.1649133E+04  0.7818608E-02  0.8790920E-01
         -2   -1    0    0    0  501 -0.00000000000E+00  0.00000000000E+00  0.12880010761E+03  0.12880010764E+03  0.25500000000E-02 0. -1.
          2   -1    0    0  501    0  0.00000000000E+00 -0.00000000000E+00 -0.52787962413E+04  0.52787962413E+04  0.25500000000E-02 0.  1.
    -200001    2    1    2    0    0 -0.22863537176E+03  0.47250147603E+03 -0.30978443011E+04  0.32024596361E+04  0.61933563542E+03 0.  0.
   -5000001    2    3    3    0    0 -0.21076866972E+03  0.56018492268E+01 -0.19084650611E+04  0.19206100128E+04  0.45267192043E+02 0.  0.
     200001    1    1    2    0    0  0.22863537176E+03 -0.47250147603E+03 -0.20521518326E+04  0.22051367128E+04  0.61300000000E+03 0. -1.
         13    1    4    4    0    0 -0.90449036248E+02  0.26961332778E+01 -0.90315840148E+03  0.90768023368E+03  0.10566000000E+00 0.  1.
    -200003    1    4    4    0    0 -0.12031963348E+03  0.29057159490E+01 -0.10053066597E+04  0.10129297791E+04  0.30000000000E+02 0. -1.
    -200000    1    3    3    0    0 -0.17866702034E+02  0.46689962680E+03 -0.11893792399E+04  0.12818496234E+04  0.10100000000E+03 0. -1.
<mgrwt>
<rscale>  0 0.16491325E+04</rscale>
<asrwt>0</asrwt>
<pdfrwt beam="1">  1        2 0.75411361E+00 0.16491325E+04</pdfrwt>
<pdfrwt beam="2">  1       -2 0.18400019E-01 0.16491325E+04</pdfrwt>
<totfact> 0.11159631E+00</totfact>
</mgrwt>
</event>
<event>
 8    2  0.4480234E-052  0.1465238E+04  0.7818608E-02  0.8907904E-01
         -2   -1    0    0    0  501 -0.00000000000E+00  0.00000000000E+00  0.19259395751E+03  0.19259395753E+03  0.25500000000E-02 0. -1.
          2   -1    0    0  501    0  0.00000000000E+00 -0.00000000000E+00 -0.27868525566E+04  0.27868525566E+04  0.25500000000E-02 0.  1.
    -200001    2    1    2    0    0 -0.49184616481E+02 -0.21443545859E+03 -0.61530761438E+03  0.89607960159E+03  0.61315047065E+03 0.  0.
   -5000001    2    3    3    0    0 -0.12547134838E+03 -0.21310566589E+03 -0.69880330937E+03  0.74444199117E+03  0.68634750206E+02 0.  0.
     200001    1    1    2    0    0  0.49184616481E+02  0.21443545859E+03 -0.19789509847E+04  0.20833669125E+04  0.61300000000E+03 0.  1.
         13    1    4    4    0    0 -0.10612686826E+03 -0.17150235924E+03 -0.55952873319E+03  0.59476750568E+03  0.10566000000E+00 0.  1.
    -200003    1    4    4    0    0 -0.19344480116E+02 -0.41603306657E+02 -0.13927457618E+03  0.14967448549E+03  0.30000000000E+02 0. -1.
    -200000    1    3    3    0    0  0.76286731896E+02 -0.13297927002E+01  0.83495694984E+02  0.15163761042E+03  0.10100000000E+03 0.  1.
<mgrwt>
<rscale>  0 0.14652385E+04</rscale>
<asrwt>0</asrwt>
<pdfrwt beam="1">  1        2 0.39812177E+00 0.14652385E+04</pdfrwt>
<pdfrwt beam="2">  1       -2 0.27513424E-01 0.14652385E+04</pdfrwt>
<totfact> 0.36260935E+01</totfact>
</mgrwt>
</event>
<event>
 8    2  0.4480234E-052  0.1271599E+04  0.7818608E-02  0.9052396E-01
          2   -1    0    0  501    0  0.00000000000E+00  0.00000000000E+00  0.32351523820E+04  0.32351523820E+04  0.25500000000E-02 0.  1.
         -2   -1    0    0    0  501 -0.00000000000E+00 -0.00000000000E+00 -0.12495263212E+03  0.12495263214E+03  0.25500000000E-02 0. -1.
    -200001    2    1    2    0    0  0.13940047951E+03 -0.33525417002E+02  0.13212085517E+04  0.14635779370E+04  0.61311654131E+03 0.  0.
   -5000001    2    3    3    0    0  0.35732993436E+03 -0.68414834188E+02  0.92564735774E+03  0.99948723798E+03  0.98926419440E+02 0.  0.
     200001    1    1    2    0    0 -0.13940047951E+03  0.33525417002E+02  0.17889911982E+04  0.18965270772E+04  0.61300000000E+03 0.  1.
         13    1    4    4    0    0  0.12756842891E+03 -0.62647464820E+02  0.41604226604E+03  0.43964711667E+03  0.10566000000E+00 0.  1.
    -200003    1    4    4    0    0  0.22976150546E+03 -0.57673693689E+01  0.50960509171E+03  0.55984012132E+03  0.30000000000E+02 0.  1.
    -200000    1    3    3    0    0 -0.21792945485E+03  0.34889417187E+02  0.39556119395E+03  0.46409069898E+03  0.10100000000E+03 0. -1.
<mgrwt>
<rscale>  0 0.12715987E+04</rscale>
<asrwt>0</asrwt>
<pdfrwt beam="1">  1        2 0.46216467E+00 0.12715987E+04</pdfrwt>
<pdfrwt beam="2">  1       -2 0.17850374E-01 0.12715987E+04</pdfrwt>
<totfact> 0.44905424E+01</totfact>
</mgrwt>
</event>
<event>
 8    2  0.4480234E-052  0.1444686E+04  0.7818608E-02  0.8922093E-01
          2   -1    0    0  501    0  0.00000000000E+00  0.00000000000E+00  0.19369408306E+04  0.19369408306E+04  0.25500000000E-02 0.  1.
         -2   -1    0    0    0  501 -0.00000000000E+00 -0.00000000000E+00 -0.26938340415E+03  0.26938340416E+03  0.25500000000E-02 0. -1.
    -200001    2    1    2    0    0  0.23056971724E+02  0.31412073210E+03  0.50383205331E+03  0.85383423393E+03  0.61317428420E+03 0.  0.
   -5000001    2    3    3    0    0 -0.25958442361E+03  0.27377902723E+03  0.24675067860E+03  0.45658689947E+03  0.72433905393E+02 0.  0.
     200001    1    1    2    0    0 -0.23056971724E+02 -0.31412073210E+03  0.11637253732E+04  0.13524900009E+04  0.61300000000E+03 0.  1.
         13    1    4    4    0    0 -0.28797743698E+01  0.64166520826E+01  0.19632736306E+02  0.20854784182E+02  0.10566000000E+00 0.  1.
    -200003    1    4    4    0    0 -0.25670464924E+03  0.26736237515E+03  0.22711794229E+03  0.43573211529E+03  0.30000000000E+02 0.  1.
    -200000    1    3    3    0    0  0.28264139533E+03  0.40341704873E+02  0.25708137471E+03  0.39724733446E+03  0.10100000000E+03 0.  1.
<mgrwt>
<rscale>  0 0.14446864E+04</rscale>
<asrwt>0</asrwt>
<pdfrwt beam="1">  1        2 0.27670583E+00 0.14446864E+04</pdfrwt>
<pdfrwt beam="2">  1       -2 0.38483344E-01 0.14446864E+04</pdfrwt>
<totfact> 0.53563458E+01</totfact>
</mgrwt>
</event>
<event>
 8    2  0.4480234E-052  0.1336395E+04  0.7818608E-02  0.9001191E-01
          2   -1    0    0  501    0  0.00000000000E+00  0.00000000000E+00  0.11922157918E+04  0.11922157918E+04  0.25500000000E-02 0.  1.
         -2   -1    0    0    0  501 -0.00000000000E+00 -0.00000000000E+00 -0.37450254722E+03  0.37450254723E+03  0.25500000000E-02 0. -1.
    -200001    2    1    2    0    0  0.70632340264E+02 -0.14370428076E+03  0.16042621093E+03  0.65379167582E+03  0.61324313157E+03 0.  0.
   -5000001    2    3    3    0    0  0.23347291583E+03  0.11323108145E+03  0.21943230463E+02  0.30463358944E+03  0.15807984761E+03 0.  0.
     200001    1    1    2    0    0 -0.70632340264E+02  0.14370428076E+03  0.65728703366E+03  0.91292666322E+03  0.61300000000E+03 0. -1.
         13    1    4    4    0    0  0.13751053528E+03  0.14061310672E+03  0.34489739655E+02  0.19967660454E+03  0.10566000000E+00 0.  1.
    -200003    1    4    4    0    0  0.95962380542E+02 -0.27382025266E+02 -0.12546509193E+02  0.10495698490E+03  0.30000000000E+02 0.  1.
    -200000    1    3    3    0    0 -0.16284057556E+03 -0.25693536221E+03  0.13848298046E+03  0.34915808638E+03  0.10100000000E+03 0.  1.
<mgrwt>
<rscale>  0 0.13363949E+04</rscale>
<asrwt>0</asrwt>
<pdfrwt beam="1">  1        2 0.17031654E+00 0.13363949E+04</pdfrwt>
<pdfrwt beam="2">  1       -2 0.53500365E-01 0.13363949E+04</pdfrwt>
<totfact> 0.69556002E+01</totfact>
</mgrwt>
</event>
<event>
 8    2  0.4480234E-052  0.1874867E+04  0.7818608E-02  0.8667469E-01
         -2   -1    0    0    0  501 -0.00000000000E+00  0.00000000000E+00  0.59300365997E+03  0.59300365998E+03  0.25500000000E-02 0. -1.
          2   -1    0    0  501    0  0.00000000000E+00 -0.00000000000E+00 -0.14819162140E+04  0.14819162140E+04  0.25500000000E-02 0.  1.
    -200001    2    1    2    0    0  0.13112471087E+02 -0.51978679342E+03 -0.97798994146E+03  0.12661838055E+04  0.61352005367E+03 0.  0.
   -5000001    2    3    3    0    0  0.11601846017E+03 -0.25526746465E+03 -0.91206914429E+03  0.95779011333E+03  0.82885557386E+02 0.  0.
     200001    1    1    2    0    0 -0.13112471087E+02  0.51978679342E+03  0.89077387418E+02  0.80873606848E+03  0.61300000000E+03 0. -1.
         13    1    4    4    0    0  0.28431277712E+02 -0.13702803312E+03 -0.49972623477E+03  0.51895215607E+03  0.10566000000E+00 0.  1.
    -200003    1    4    4    0    0  0.87587182455E+02 -0.11823943153E+03 -0.41234290953E+03  0.43883795726E+03  0.30000000000E+02 0.  1.
    -200000    1    3    3    0    0 -0.10290598908E+03 -0.26451932877E+03 -0.65920797169E+02  0.30839369219E+03  0.10100000000E+03 0. -1.
<mgrwt>
<rscale>  0 0.18748672E+04</rscale>
<asrwt>0</asrwt>
<pdfrwt beam="1">  1        2 0.21170232E+00 0.18748672E+04</pdfrwt>
<pdfrwt beam="2">  1       -2 0.84714809E-01 0.18748672E+04</pdfrwt>
<totfact> 0.17090911E+01</totfact>
</mgrwt>
</event>
<event>
 8    2  0.4480234E-052  0.1261176E+04  0.7818608E-02  0.9060932E-01
          2   -1    0    0  501    0  0.00000000000E+00  0.00000000000E+00  0.34054902727E+04  0.34054902727E+04  0.25500000000E-02 0.  1.
         -2   -1    0    0    0  501 -0.00000000000E+00 -0.00000000000E+00 -0.11676476138E+03  0.11676476141E+03  0.25500000000E-02 0. -1.
    -200001    2    1    2    0    0 -0.14200903069E+03  0.18342171788E+02  0.15296142757E+04  0.16539016576E+04  0.61250947802E+03 0.  0.
   -5000001    2    3    3    0    0  0.15876740175E+03 -0.18067781516E+03  0.52063218895E+03  0.57764830973E+03  0.69051667675E+02 0.  0.
     200001    1    1    2    0    0  0.14200903069E+03 -0.18342171788E+02  0.17591112356E+04  0.18683533765E+04  0.61300000000E+03 0. -1.
         13    1    4    4    0    0  0.33616761567E+02 -0.11561238969E+02  0.50964870520E+02  0.62138378606E+02  0.10566000000E+00 0.  1.
    -200003    1    4    4    0    0  0.12515064018E+03 -0.16911657619E+03  0.46966731843E+03  0.51550993112E+03  0.30000000000E+02 0.  1.
    -200000    1    3    3    0    0 -0.30077643244E+03  0.19901998695E+03  0.10089820867E+04  0.10762533479E+04  0.10100000000E+03 0. -1.
<mgrwt>
<rscale>  0 0.12611761E+04</rscale>
<asrwt>0</asrwt>
<pdfrwt beam="1">  1        2 0.48649863E+00 0.12611761E+04</pdfrwt>
<pdfrwt beam="2">  1       -2 0.16680679E-01 0.12611761E+04</pdfrwt>
<totfact> 0.40173631E+01</totfact>
</mgrwt>
</event>
<event>
 8    2  0.4480234E-052  0.1715493E+04  0.7818608E-02  0.8752577E-01
          2   -1    0    0  501    0  0.00000000000E+00  0.00000000000E+00  0.14151726974E+04  0.14151726974E+04  0.25500000000E-02 0.  1.
         -2   -1    0    0    0  501 -0.00000000000E+00 -0.00000000000E+00 -0.51988666232E+03  0.51988666233E+03  0.25500000000E-02 0. -1.
    -200001    2    1    2    0    0  0.26783528428E+03  0.11027955125E+03 -0.14521228789E+03  0.69316440483E+03  0.61277480744E+03 0.  0.
   -5000001    2    3    3    0    0 -0.98580768008E+02 -0.14816277318E+03 -0.11625277679E+03  0.23262905144E+03  0.94504985504E+02 0.  0.
     200001    1    1    2    0    0 -0.26783528428E+03 -0.11027955125E+03  0.10404983230E+04  0.12418949549E+04  0.61300000000E+03 0.  1.
         13    1    4    4    0    0 -0.39023639799E+02 -0.88701369196E+02 -0.15790177387E+02  0.98184103736E+02  0.10566000000E+00 0.  1.
    -200003    1    4    4    0    0 -0.59557128209E+02 -0.59461403986E+02 -0.10046259941E+03  0.13444494771E+03  0.30000000000E+02 0.  1.
    -200000    1    3    3    0    0  0.36641605229E+03  0.25844232444E+03 -0.28959511094E+02  0.46053535339E+03  0.10100000000E+03 0. -1.
<mgrwt>
<rscale>  0 0.17154934E+04</rscale>
<asrwt>0</asrwt>
<pdfrwt beam="1">  1        2 0.20216752E+00 0.17154934E+04</pdfrwt>
<pdfrwt beam="2">  1       -2 0.74269525E-01 0.17154934E+04</pdfrwt>
<totfact> 0.25247071E+01</totfact>
</mgrwt>
</event>
<event>
 8    2  0.4480234E-052  0.1335170E+04  0.7818608E-02  0.9002131E-01
          2   -1    0    0  501    0  0.00000000000E+00  0.00000000000E+00  0.10666483795E+04  0.10666483795E+04  0.25500000000E-02 0.  1.
         -2   -1    0    0    0  501 -0.00000000000E+00 -0.00000000000E+00 -0.41782263491E+03  0.41782263492E+03  0.25500000000E-02 0. -1.
    -200001    2    1    2    0    0  0.22035551417E+03 -0.14145405535E+03  0.28787859526E+03  0.72643562806E+03  0.61340755922E+03 0.  0.
   -5000001    2    3    3    0    0 -0.77263513385E+02  0.17281447134E+03  0.15919727024E+03  0.26372440512E+03  0.91500267737E+02 0.  0.
     200001    1    1    2    0    0 -0.22035551417E+03  0.14145405535E+03  0.36094714936E+03  0.75803538640E+03  0.61300000000E+03 0. -1.
         13    1    4    4    0    0 -0.44107868192E+01  0.79572609462E+02  0.10052878875E+03  0.12828602320E+03  0.10566000000E+00 0.  1.
    -200003    1    4    4    0    0 -0.72852726566E+02  0.93241861882E+02  0.58668481483E+02  0.13543838191E+03  0.30000000000E+02 0.  1.
    -200000    1    3    3    0    0  0.29761902755E+03 -0.31426852669E+03  0.12868132502E+03  0.46271122295E+03  0.10100000000E+03 0.  1.
<mgrwt>
<rscale>  0 0.13351702E+04</rscale>
<asrwt>0</asrwt>
<pdfrwt beam="1">  1        2 0.15237834E+00 0.13351702E+04</pdfrwt>
<pdfrwt beam="2">  1       -2 0.59688948E-01 0.13351702E+04</pdfrwt>
<totfact> 0.65553707E+01</totfact>
</mgrwt>
</event>
<event>
 8    2  0.4480234E-052  0.1477412E+04  0.7818608E-02  0.8899614E-01
         -2   -1    0    0    0  501 -0.00000000000E+00  0.00000000000E+00  0.28009275261E+03  0.28009275262E+03  0.25500000000E-02 0. -1.
          2   -1    0    0  501    0  0.00000000000E+00 -0.00000000000E+00 -0.19482353608E+04  0.19482353608E+04  0.25500000000E-02 0.  1.
    -200001    2    1    2    0    0 -0.87556876663E+02 -0.28718479614E+03 -0.40925639673E+03  0.79629989890E+03  0.61356451734E+03 0.  0.
   -5000001    2    3    3    0    0 -0.30732821269E+03 -0.28544434750E+03 -0.34305885726E+03  0.54552991757E+03  0.63122148151E+02 0.  0.
     200001    1    1    2    0    0  0.87556876663E+02  0.28718479614E+03 -0.12588862115E+04  0.14320282145E+04  0.61300000000E+03 0.  1.
         13    1    4    4    0    0 -0.12831766101E+03 -0.13087235059E+03 -0.12020943440E+03  0.21918784994E+03  0.10566000000E+00 0.  1.
    -200003    1    4    4    0    0 -0.17901055168E+03 -0.15457199691E+03 -0.22284942286E+03  0.32634206764E+03  0.30000000000E+02 0.  1.
    -200000    1    3    3    0    0  0.21977133603E+03 -0.17404486390E+01 -0.66197539471E+02  0.25076998133E+03  0.10100000000E+03 0. -1.
<mgrwt>
<rscale>  0 0.14774121E+04</rscale>
<asrwt>0</asrwt>
<pdfrwt beam="1">  1        2 0.27831933E+00 0.14774121E+04</pdfrwt>
<pdfrwt beam="2">  1       -2 0.40013252E-01 0.14774121E+04</pdfrwt>
<totfact> 0.48863572E+01</totfact>
</mgrwt>
</event>
<event>
 8    2  0.4480234E-052  0.1810879E+04  0.7818608E-02  0.8700535E-01
          2   -1    0    0  501    0  0.00000000000E+00  0.00000000000E+00  0.18193475470E+04  0.18193475470E+04  0.25500000000E-02 0.  1.
         -2   -1    0    0    0  501 -0.00000000000E+00 -0.00000000000E+00 -0.45061252771E+03  0.45061252771E+03  0.25500000000E-02 0. -1.
    -200001    2    1    2    0    0  0.53434302708E+03  0.36627833836E+03  0.88132157866E+03  0.12535826085E+04  0.61242088431E+03 0.  0.
   -5000001    2    3    3    0    0 -0.61080727997E+02  0.24998935769E+03  0.33264397842E+03  0.42938561495E+03  0.86570524186E+02 0.  0.
     200001    1    1    2    0    0 -0.53434302708E+03 -0.36627833836E+03  0.48741344062E+03  0.10163774662E+04  0.61300000000E+03 0. -1.
         13    1    4    4    0    0 -0.44281624787E+02  0.56984125091E+02  0.61651157536E+02  0.94915379131E+02  0.10566000000E+00 0.  1.
    -200003    1    4    4    0    0 -0.16799103211E+02  0.19300523260E+03  0.27099282088E+03  0.33447023582E+03  0.30000000000E+02 0.  1.
    -200000    1    3    3    0    0  0.59542375508E+03  0.11628898066E+03  0.54867760024E+03  0.82419699353E+03  0.10100000000E+03 0. -1.
<mgrwt>
<rscale>  0 0.18108791E+04</rscale>
<asrwt>0</asrwt>
<pdfrwt beam="1">  1        2 0.25990679E+00 0.18108791E+04</pdfrwt>
<pdfrwt beam="2">  1       -2 0.64373218E-01 0.18108791E+04</pdfrwt>
<totfact> 0.20970867E+01</totfact>
</mgrwt>
</event>
<event>
 8    2  0.4480234E-052  0.1554068E+04  0.7818608E-02  0.8849274E-01
         -2   -1    0    0    0  501 -0.00000000000E+00  0.00000000000E+00  0.13295026227E+04  0.13295026228E+04  0.25500000000E-02 0. -1.
          2   -1    0    0  501    0  0.00000000000E+00 -0.00000000000E+00 -0.45414102177E+03  0.45414102178E+03  0.25500000000E-02 0.  1.
    -200001    2    1    2    0    0  0.14775260577E+03  0.45203144024E+03  0.39383721374E+03  0.87051824735E+03  0.61362122890E+03 0.  0.
   -5000001    2    3    3    0    0  0.14189517021E+03  0.10929160161E+03  0.46491631966E+03  0.50615833485E+03  0.89275876637E+02 0.  0.
     200001    1    1    2    0    0 -0.14775260577E+03 -0.45203144024E+03  0.48152438723E+03  0.91312539718E+03  0.61300000000E+03 0.  1.
         13    1    4    4    0    0  0.13106984752E+03  0.98318195127E+02  0.35109465113E+03  0.38744449621E+03  0.10566000000E+00 0.  1.
    -200003    1    4    4    0    0  0.10825322683E+02  0.10973406486E+02  0.11382166852E+03  0.11871383865E+03  0.30000000000E+02 0.  1.
    -200000    1    3    3    0    0  0.58574355578E+01  0.34273983863E+03 -0.71079105911E+02  0.36435991249E+03  0.10100000000E+03 0.  1.
<mgrwt>
<rscale>  0 0.15540678E+04</rscale>
<asrwt>0</asrwt>
<pdfrwt beam="1">  1        2 0.64877288E-01 0.15540678E+04</pdfrwt>
<pdfrwt beam="2">  1       -2 0.18992895E+00 0.15540678E+04</pdfrwt>
<totfact> 0.11202391E+01</totfact>
</mgrwt>
</event>
<event>
 8    2  0.4480234E-052  0.1244363E+04  0.7818608E-02  0.9074888E-01
          2   -1    0    0  501    0  0.00000000000E+00  0.00000000000E+00  0.26175777749E+04  0.26175777749E+04  0.25500000000E-02 0.  1.
         -2   -1    0    0    0  501 -0.00000000000E+00 -0.00000000000E+00 -0.14788860876E+03  0.14788860879E+03  0.25500000000E-02 0. -1.
    -200001    2    1    2    0    0 -0.23746106348E+02 -0.36265379988E+02  0.10176268675E+04  0.11887187900E+04  0.61286937001E+03 0.  0.
   -5000001    2    3    3    0    0 -0.27383861354E+03 -0.79217018347E+02  0.41397997925E+03  0.52616187079E+03  0.15557624750E+03 0.  0.
     200001    1    1    2    0    0  0.23746106348E+02  0.36265379988E+02  0.14520622986E+04  0.15767475938E+04  0.61300000000E+03 0.  1.
         13    1    4    4    0    0 -0.25874856822E+03 -0.96126215820E+02  0.40011288518E+03  0.48608785520E+03  0.10566000000E+00 0.  1.
    -200003    1    4    4    0    0 -0.15090045327E+02  0.16909197473E+02  0.13867094070E+02  0.40074015585E+02  0.30000000000E+02 0. -1.
    -200000    1    3    3    0    0  0.25009250720E+03  0.42951638359E+02  0.60364688829E+03  0.66255691917E+03  0.10100000000E+03 0. -1.
<mgrwt>
<rscale>  0 0.12443632E+04</rscale>
<asrwt>0</asrwt>
<pdfrwt beam="1">  1        2 0.37393968E+00 0.12443632E+04</pdfrwt>
<pdfrwt beam="2">  1       -2 0.21126944E-01 0.12443632E+04</pdfrwt>
<totfact> 0.73275537E+01</totfact>
</mgrwt>
</event>
<event>
 8    2  0.4480234E-052  0.1396905E+04  0.7818608E-02  0.8956062E-01
         -2   -1    0    0    0  501 -0.00000000000E+00  0.00000000000E+00  0.30321262647E+03  0.30321262648E+03  0.25500000000E-02 0. -1.
          2   -1    0    0  501    0  0.00000000000E+00 -0.00000000000E+00 -0.16088909864E+04  0.16088909864E+04  0.25500000000E-02 0.  1.
    -200001    2    1    2    0    0  0.23192310017E+03  0.19756038227E+03 -0.84179258780E+03  0.10851952512E+04  0.61336411968E+03 0.  0.
   -5000001    2    3    3    0    0  0.17884986132E+03  0.26893065712E+03 -0.12084677252E+03  0.35179607382E+03  0.69610084684E+02 0.  0.
     200001    1    1    2    0    0 -0.23192310017E+03 -0.19756038227E+03 -0.46388577212E+03  0.82690836168E+03  0.61300000000E+03 0. -1.
         13    1    4    4    0    0  0.13355943916E+03  0.21925322457E+03 -0.91505607041E+02  0.27254978913E+03  0.10566000000E+00 0.  1.
    -200003    1    4    4    0    0  0.45290422163E+02  0.49677432559E+02 -0.29341165480E+02  0.79246284690E+02  0.30000000000E+02 0. -1.
    -200000    1    3    3    0    0  0.53073238851E+02 -0.71370274855E+02 -0.72094581528E+03  0.73339917738E+03  0.10100000000E+03 0.  1.
<mgrwt>
<rscale>  0 0.13969052E+04</rscale>
<asrwt>0</asrwt>
<pdfrwt beam="1">  1        2 0.22984156E+00 0.13969052E+04</pdfrwt>
<pdfrwt beam="2">  1       -2 0.43316090E-01 0.13969052E+04</pdfrwt>
<totfact> 0.63018661E+01</totfact>
</mgrwt>
</event>
<event>
 8    2  0.4480234E-052  0.1399882E+04  0.7818608E-02  0.8953904E-01
         -2   -1    0    0    0  501 -0.00000000000E+00  0.00000000000E+00  0.31223644399E+03  0.31223644400E+03  0.25500000000E-02 0. -1.
          2   -1    0    0  501    0  0.00000000000E+00 -0.00000000000E+00 -0.15690596402E+04  0.15690596402E+04  0.25500000000E-02 0.  1.
    -200001    2    1    2    0    0 -0.18606903024E+03 -0.13048978119E+03 -0.96423441155E+03  0.11650374271E+04  0.61311902523E+03 0.  0.
   -5000001    2    3    3    0    0 -0.14594325340E+03 -0.10264259005E+03 -0.97763218149E+03  0.10520505063E+04  0.34526895473E+03 0.  0.
     200001    1    1    2    0    0  0.18606903024E+03  0.13048978119E+03 -0.29258878469E+03  0.71625865715E+03  0.61300000000E+03 0. -1.
         13    1    4    4    0    0 -0.11448541534E+00 -0.18938826828E+03 -0.31653275982E+03  0.36886437680E+03  0.10566000000E+00 0.  1.
    -200003    1    4    4    0    0 -0.14582876798E+03  0.86745678230E+02 -0.66109942167E+03  0.68318612954E+03  0.30000000000E+02 0.  1.
    -200000    1    3    3    0    0 -0.40125776848E+02 -0.27847191147E+02  0.13397769937E+02  0.11298692076E+03  0.10100000000E+03 0. -1.
<mgrwt>
<rscale>  0 0.13998823E+04</rscale>
<asrwt>0</asrwt>
<pdfrwt beam="1">  1        2 0.22415137E+00 0.13998823E+04</pdfrwt>
<pdfrwt beam="2">  1       -2 0.44605207E-01 0.13998823E+04</pdfrwt>
<totfact> 0.62370819E+01</totfact>
</mgrwt>
</event>
<event>
 8    2  0.4480234E-052  0.1754545E+04  0.7818608E-02  0.8730853E-01
          2   -1    0    0  501    0  0.00000000000E+00  0.00000000000E+00  0.74887463839E+03  0.74887463840E+03  0.25500000000E-02 0.  1.
         -2   -1    0    0    0  501 -0.00000000000E+00 -0.00000000000E+00 -0.10276842322E+04  0.10276842322E+04  0.25500000000E-02 0. -1.
    -200001    2    1    2    0    0 -0.70081516367E+02  0.57604410167E+03 -0.38119385224E+03  0.92627082388E+03  0.61313184567E+03 0.  0.
   -5000001    2    3    3    0    0  0.24123754697E+03  0.24069064349E+03 -0.54549943181E+02  0.35506267930E+03  0.83464183938E+02 0.  0.
     200001    1    1    2    0    0  0.70081516367E+02 -0.57604410167E+03  0.10238425845E+03  0.85028804671E+03  0.61300000000E+03 0. -1.
         13    1    4    4    0    0  0.40607440918E+02  0.53793469677E+02  0.18170867613E+02  0.69806111707E+02  0.10566000000E+00 0.  1.
    -200003    1    4    4    0    0  0.20063010605E+03  0.18689717381E+03 -0.72720810794E+02  0.28525656759E+03  0.30000000000E+02 0.  1.
    -200000    1    3    3    0    0 -0.31131906333E+03  0.33535345818E+03 -0.32664390906E+03  0.57120814458E+03  0.10100000000E+03 0. -1.
<mgrwt>
<rscale>  0 0.17545446E+04</rscale>
<asrwt>0</asrwt>
<pdfrwt beam="1">  1        2 0.10698209E+00 0.17545446E+04</pdfrwt>
<pdfrwt beam="2">  1       -2 0.14681203E+00 0.17545446E+04</pdfrwt>
<totfact> 0.12460001E+01</totfact>
</mgrwt>
</event>
<event>
 8    2  0.4480234E-052  0.1424400E+04  0.7818608E-02  0.8936343E-01
         -2   -1    0    0    0  501 -0.00000000000E+00  0.00000000000E+00  0.48273092773E+03  0.48273092774E+03  0.25500000000E-02 0. -1.
          2   -1    0    0  501    0  0.00000000000E+00 -0.00000000000E+00 -0.10507490370E+04  0.10507490370E+04  0.25500000000E-02 0.  1.
    -200001    2    1    2    0    0 -0.34701792498E+03 -0.17462779914E+01 -0.39488552312E+03  0.80810531522E+03  0.61373865316E+03 0.  0.
   -5000001    2    3    3    0    0 -0.87061625250E+01 -0.57799610781E+02  0.13845030741E+03  0.16604228650E+03  0.70604256320E+02 0.  0.
     200001    1    1    2    0    0  0.34701792498E+03  0.17462779914E+01 -0.17313258611E+03  0.72537464948E+03  0.61300000000E+03 0.  1.
         13    1    4    4    0    0  0.10190344343E+02 -0.53124746048E+02  0.66735959390E+02  0.85905652900E+02  0.10566000000E+00 0.  1.
    -200003    1    4    4    0    0 -0.18896506868E+02 -0.46748647323E+01  0.71714348020E+02  0.80136633595E+02  0.30000000000E+02 0.  1.
    -200000    1    3    3    0    0 -0.33831176245E+03  0.56053332789E+02 -0.53333583053E+03  0.64206302873E+03  0.10100000000E+03 0. -1.
<mgrwt>
<rscale>  0 0.14244003E+04</rscale>
<asrwt>0</asrwt>
<pdfrwt beam="1">  1        2 0.15010700E+00 0.14244003E+04</pdfrwt>
<pdfrwt beam="2">  1       -2 0.68961562E-01 0.14244003E+04</pdfrwt>
<totfact> 0.48869440E+01</totfact>
</mgrwt>
</event>
<event>
 8    2  0.4480234E-052  0.1278434E+04  0.7818608E-02  0.9046844E-01
          2   -1    0    0  501    0  0.00000000000E+00  0.00000000000E+00  0.55070724676E+03  0.55070724677E+03  0.25500000000E-02 0.  1.
         -2   -1    0    0    0  501 -0.00000000000E+00 -0.00000000000E+00 -0.74195205027E+03  0.74195205027E+03  0.25500000000E-02 0. -1.
    -200001    2    1    2    0    0  0.10326854843E+02  0.18016177340E+03 -0.69759083932E+02  0.64220354252E+03  0.61236766057E+03 0.  0.
   -5000001    2    3    3    0    0  0.11253612206E+03  0.20141348864E+03  0.14486959170E+03  0.38304174343E+03  0.26926196619E+03 0.  0.
     200001    1    1    2    0    0 -0.10326854843E+02 -0.18016177340E+03 -0.12148571957E+03  0.65045575452E+03  0.61300000000E+03 0. -1.
         13    1    4    4    0    0 -0.22056510457E+02  0.10958380413E+03 -0.54051927143E+02  0.12416409213E+03  0.10566000000E+00 0.  1.
    -200003    1    4    4    0    0  0.13459263252E+03  0.91829684508E+02  0.19892151884E+03  0.25887765130E+03  0.30000000000E+02 0. -1.
    -200000    1    3    3    0    0 -0.10220926722E+03 -0.21251715246E+02 -0.21462867563E+03  0.25916179909E+03  0.10100000000E+03 0. -1.
<mgrwt>
<rscale>  0 0.12784340E+04</rscale>
<asrwt>0</asrwt>
<pdfrwt beam="1">  1        2 0.78672464E-01 0.12784340E+04</pdfrwt>
<pdfrwt beam="2">  1       -2 0.10599315E+00 0.12784340E+04</pdfrwt>
<totfact> 0.42406373E+01</totfact>
</mgrwt>
</event>
<event>
 8    2  0.4480234E-052  0.2308227E+04  0.7818608E-02  0.8474684E-01
          2   -1    0    0  501    0  0.00000000000E+00  0.00000000000E+00  0.72688266145E+03  0.72688266145E+03  0.25500000000E-02 0.  1.
         -2   -1    0    0    0  501 -0.00000000000E+00 -0.00000000000E+00 -0.18324522508E+04  0.18324522509E+04  0.25500000000E-02 0. -1.
    -200001    2    1    2    0    0  0.39355776032E+03  0.76669801638E+03 -0.10654458800E+04  0.15009907003E+04  0.61244150757E+03 0.  0.
   -5000001    2    3    3    0    0  0.13698992766E+03 -0.64679690400E+02 -0.16938181748E+03  0.24793533513E+03  0.99156581634E+02 0.  0.
     200001    1    1    2    0    0 -0.39355776032E+03 -0.76669801638E+03 -0.40123709425E+02  0.10583442120E+04  0.61300000000E+03 0.  1.
         13    1    4    4    0    0  0.59629476365E+02  0.85675682007E+01 -0.23141041574E+02  0.64533686131E+02  0.10566000000E+00 0.  1.
    -200003    1    4    4    0    0  0.77360451293E+02 -0.73247258601E+02 -0.14624077591E+03  0.18340164900E+03  0.30000000000E+02 0.  1.
    -200000    1    3    3    0    0  0.25656783267E+03  0.83137770678E+03 -0.89606406249E+03  0.12530553652E+04  0.10100000000E+03 0. -1.
<mgrwt>
<rscale>  0 0.23082268E+04</rscale>
<asrwt>0</asrwt>
<pdfrwt beam="1">  1        2 0.10384038E+00 0.23082268E+04</pdfrwt>
<pdfrwt beam="2">  1       -2 0.26177889E+00 0.23082268E+04</pdfrwt>
<totfact> 0.21260887E+00</totfact>
</mgrwt>
</event>
<event>
 8    2  0.4480234E-052  0.2025782E+04  0.7818608E-02  0.8594661E-01
         -2   -1    0    0    0  501 -0.00000000000E+00  0.00000000000E+00  0.10250337692E+04  0.10250337692E+04  0.25500000000E-02 0. -1.
          2   -1    0    0  501    0  0.00000000000E+00 -0.00000000000E+00 -0.10008918662E+04  0.10008918662E+04  0.25500000000E-02 0.  1.
    -200001    2    1    2    0    0  0.40381033780E+03  0.68723332652E+03 -0.10064880328E+03  0.10126664611E+04  0.61645011622E+03 0.  0.
   -5000001    2    3    3    0    0  0.42548154415E+03  0.74438471193E+03 -0.37871043937E+01  0.85996049934E+03  0.66140566212E+02 0.  0.
     200001    1    1    2    0    0 -0.40381033780E+03 -0.68723332652E+03  0.12479070636E+03  0.10132591743E+04  0.61300000000E+03 0. -1.
         13    1    4    4    0    0 -0.18777657619E+00 -0.74632819634E+00 -0.10246010469E+01  0.12857827033E+01  0.10566000000E+00 0.  1.
    -200003    1    4    4    0    0  0.42566932072E+03  0.74513104012E+03 -0.27625033468E+01  0.85867471663E+03  0.30000000000E+02 0.  1.
    -200000    1    3    3    0    0 -0.21671206350E+02 -0.57151385409E+02 -0.96861698886E+02  0.15270596174E+03  0.10100000000E+03 0. -1.
<mgrwt>
<rscale>  0 0.20257818E+04</rscale>
<asrwt>0</asrwt>
<pdfrwt beam="1">  1        2 0.14298455E+00 0.20257818E+04</pdfrwt>
<pdfrwt beam="2">  1       -2 0.14643340E+00 0.20257818E+04</pdfrwt>
<totfact> 0.83359122E+00</totfact>
</mgrwt>
</event>
<event>
 8    2  0.4480234E-052  0.1308209E+04  0.7818608E-02  0.9023081E-01
         -2   -1    0    0    0  501 -0.00000000000E+00  0.00000000000E+00  0.38002723891E+03  0.38002723892E+03  0.25500000000E-02 0. -1.
          2   -1    0    0  501    0  0.00000000000E+00 -0.00000000000E+00 -0.11258472894E+04  0.11258472894E+04  0.25500000000E-02 0.  1.
    -200001    2    1    2    0    0  0.95343468476E+02 -0.18215798803E+03 -0.48617821247E+03  0.80912866821E+03  0.61322755796E+03 0.  0.
   -5000001    2    3    3    0    0 -0.19216274304E+03 -0.45848476455E+02 -0.41125147622E+03  0.46699547716E+03  0.99641338743E+02 0.  0.
     200001    1    1    2    0    0 -0.95343468476E+02  0.18215798803E+03 -0.25964183806E+03  0.69674586017E+03  0.61300000000E+03 0.  1.
         13    1    4    4    0    0 -0.13900382878E+03 -0.36767842850E+02 -0.35685087063E+03  0.38472911732E+03  0.10566000000E+00 0.  1.
    -200003    1    4    4    0    0 -0.53158914261E+02 -0.90806336050E+01 -0.54400605596E+02  0.82266359840E+02  0.30000000000E+02 0.  1.
    -200000    1    3    3    0    0  0.28750621152E+03 -0.13630951158E+03 -0.74926736253E+02  0.34213319105E+03  0.10100000000E+03 0. -1.
<mgrwt>
<rscale>  0 0.13082089E+04</rscale>
<asrwt>0</asrwt>
<pdfrwt beam="1">  1        2 0.16083533E+00 0.13082089E+04</pdfrwt>
<pdfrwt beam="2">  1       -2 0.54289606E-01 0.13082089E+04</pdfrwt>
<totfact> 0.73862760E+01</totfact>
</mgrwt>
</event>
<event>
 8    2  0.4480234E-052  0.1510359E+04  0.7818608E-02  0.8877593E-01
          2   -1    0    0  501    0  0.00000000000E+00  0.00000000000E+00  0.15450191501E+04  0.15450191501E+04  0.25500000000E-02 0.  1.
         -2   -1    0    0    0  501 -0.00000000000E+00 -0.00000000000E+00 -0.36911927263E+03  0.36911927264E+03  0.25500000000E-02 0. -1.
    -200001    2    1    2    0    0 -0.12604377789E+03  0.41274735598E+03  0.47356485297E+03  0.88686489517E+03  0.61320327665E+03 0.  0.
   -5000001    2    3    3    0    0 -0.26108040370E+03  0.21464261448E+03  0.51680865361E+03  0.62313889113E+03  0.83525230005E+02 0.  0.
     200001    1    1    2    0    0  0.12604377789E+03 -0.41274735598E+03  0.70233502446E+03  0.10272735275E+04  0.61300000000E+03 0. -1.
         13    1    4    4    0    0 -0.70739798968E+02  0.63612697421E+02  0.89250615331E+02  0.13044683949E+03  0.10566000000E+00 0.  1.
    -200003    1    4    4    0    0 -0.19034060473E+03  0.15102991706E+03  0.42755803828E+03  0.49269205164E+03  0.30000000000E+02 0.  1.
    -200000    1    3    3    0    0  0.13503662581E+03  0.19810474149E+03 -0.43243800639E+02  0.26372600404E+03  0.10100000000E+03 0. -1.
<mgrwt>
<rscale>  0 0.15103594E+04</rscale>
<asrwt>0</asrwt>
<pdfrwt beam="1">  1        2 0.22071703E+00 0.15103594E+04</pdfrwt>
<pdfrwt beam="2">  1       -2 0.52731323E-01 0.15103594E+04</pdfrwt>
<totfact> 0.45377206E+01</totfact>
</mgrwt>
</event>
<event>
 8    2  0.4480234E-052  0.1352233E+04  0.7818608E-02  0.8989139E-01
         -2   -1    0    0    0  501 -0.00000000000E+00  0.00000000000E+00  0.25776706568E+03  0.25776706569E+03  0.25500000000E-02 0. -1.
          2   -1    0    0  501    0  0.00000000000E+00 -0.00000000000E+00 -0.17734372482E+04  0.17734372482E+04  0.25500000000E-02 0.  1.
    -200001    2    1    2    0    0 -0.21611018155E+03  0.48483982577E+01 -0.10394102582E+04  0.12254005952E+04  0.61196880339E+03 0.  0.
   -5000001    2    3    3    0    0  0.12683865956E+03  0.91789244753E+01 -0.28340093245E+02  0.15297505487E+03  0.80161763412E+02 0.  0.
     200001    1    1    2    0    0  0.21611018155E+03 -0.48483982577E+01 -0.47625992431E+03  0.80580371868E+03  0.61300000000E+03 0. -1.
         13    1    4    4    0    0  0.41643724502E+02  0.26507780253E+01  0.24241158879E+02  0.48258381265E+02  0.10566000000E+00 0.  1.
    -200003    1    4    4    0    0  0.85194935063E+02  0.65281464500E+01 -0.52581252124E+02  0.10471667361E+03  0.30000000000E+02 0.  1.
    -200000    1    3    3    0    0 -0.34294884112E+03 -0.43305262176E+01 -0.10110701649E+04  0.10724255403E+04  0.10100000000E+03 0.  1.
<mgrwt>
<rscale>  0 0.13522333E+04</rscale>
<asrwt>0</asrwt>
<pdfrwt beam="1">  1        2 0.25334817E+00 0.13522333E+04</pdfrwt>
<pdfrwt beam="2">  1       -2 0.36823868E-01 0.13522333E+04</pdfrwt>
<totfact> 0.71304274E+01</totfact>
</mgrwt>
</event>
<event>
 8    2  0.4480234E-052  0.1686590E+04  0.7818608E-02  0.8769049E-01
         -2   -1    0    0    0  501 -0.00000000000E+00  0.00000000000E+00  0.10663488415E+04  0.10663488415E+04  0.25500000000E-02 0. -1.
          2   -1    0    0  501    0  0.00000000000E+00 -0.00000000000E+00 -0.66689890104E+03  0.66689890104E+03  0.25500000000E-02 0.  1.
    -200001    2    1    2    0    0  0.28832895252E+03  0.44814796323E+03 -0.33266108596E+02  0.81293129646E+03  0.61300936124E+03 0.  0.
   -5000001    2    3    3    0    0  0.22474330778E+03  0.17463948399E+02  0.58610193882E+02  0.35667028584E+03  0.27011848158E+03 0.  0.
     200001    1    1    2    0    0 -0.28832895252E+03 -0.44814796323E+03  0.43271604905E+03  0.92031644608E+03  0.61300000000E+03 0. -1.
         13    1    4    4    0    0  0.20234737933E+03 -0.82415956986E+02  0.10248969661E+03  0.24133172391E+03  0.10566000000E+00 0.  1.
    -200003    1    4    4    0    0  0.22395928451E+02  0.99879905384E+02 -0.43879502724E+02  0.11533856194E+03  0.30000000000E+02 0.  1.
    -200000    1    3    3    0    0  0.63585644731E+02  0.43068401484E+03 -0.91876302478E+02  0.45626101062E+03  0.10100000000E+03 0.  1.
<mgrwt>
<rscale>  0 0.16865905E+04</rscale>
<asrwt>0</asrwt>
<pdfrwt beam="1">  1        2 0.95271272E-01 0.16865905E+04</pdfrwt>
<pdfrwt beam="2">  1       -2 0.15233555E+00 0.16865905E+04</pdfrwt>
<totfact> 0.13112347E+01</totfact>
</mgrwt>
</event>
<event>
 8    2  0.4480234E-052  0.4034793E+04  0.7818608E-02  0.7997564E-01
         -2   -1    0    0    0  501 -0.00000000000E+00  0.00000000000E+00  0.17768925003E+04  0.17768925003E+04  0.25500000000E-02 0. -1.
          2   -1    0    0  501    0  0.00000000000E+00 -0.00000000000E+00 -0.22904526529E+04  0.22904526529E+04  0.25500000000E-02 0.  1.
    -200001    2    1    2    0    0 -0.15935415194E+04  0.92305571868E+03 -0.81135253100E+03  0.21037118538E+04  0.61311026746E+03 0.  0.
   -5000001    2    3    3    0    0 -0.11055023742E+04  0.50292505197E+03 -0.78489251480E+03  0.14513368720E+04  0.12350444878E+03 0.  0.
     200001    1    1    2    0    0  0.15935415194E+04 -0.92305571868E+03  0.29779237835E+03  0.19636332994E+04  0.61300000000E+03 0. -1.
         13    1    4    4    0    0 -0.77671621989E+03  0.31802029479E+03 -0.49251300881E+03  0.97313620277E+03  0.10566000000E+00 0.  1.
    -200003    1    4    4    0    0 -0.32878615436E+03  0.18490475717E+03 -0.29237950599E+03  0.47820066922E+03  0.30000000000E+02 0.  1.
    -200000    1    3    3    0    0 -0.48803914520E+03  0.42013066672E+03 -0.26460016200E+02  0.65237498175E+03  0.10100000000E+03 0.  1.
<mgrwt>
<rscale>  0 0.40347928E+04</rscale>
<asrwt>0</asrwt>
<pdfrwt beam="1">  1        2 0.32720752E+00 0.40347928E+04</pdfrwt>
<pdfrwt beam="2">  1       -2 0.25384179E+00 0.40347928E+04</pdfrwt>
<totfact> 0.27492137E-01</totfact>
</mgrwt>
</event>
<event>
 8    2  0.4480234E-052  0.2237208E+04  0.7818608E-02  0.8503099E-01
          2   -1    0    0  501    0  0.00000000000E+00  0.00000000000E+00  0.33394504465E+04  0.33394504465E+04  0.25500000000E-02 0. -1.
         -2   -1    0    0    0  501 -0.00000000000E+00 -0.00000000000E+00 -0.37469475748E+03  0.37469475748E+03  0.25500000000E-02 0.  1.
    -200001    2    1    2    0    0  0.35008635566E+03  0.45599122538E+02  0.43505404382E+02  0.70846525397E+03  0.61269124319E+03 0.  0.
   -5000001    2    3    3    0    0 -0.11282024360E+03  0.10614643955E+03  0.13708029090E+03  0.22173559941E+03  0.79876128445E+02 0.  0.
     200001    1    1    2    0    0 -0.35008635566E+03 -0.45599122538E+02  0.29212502846E+04  0.30056799500E+04  0.61300000000E+03 0. -1.
         13    1    4    4    0    0 -0.84595330678E+02  0.80319307044E+02  0.12631721070E+03  0.17194071635E+03  0.10566000000E+00 0.  1.
    -200003    1    4    4    0    0 -0.28224912927E+02  0.25827132509E+02  0.10763080202E+02  0.49794883058E+02  0.30000000000E+02 0.  1.
    -200000    1    3    3    0    0  0.46290659926E+03 -0.60547317015E+02 -0.93574886521E+02  0.48672965456E+03  0.10100000000E+03 0.  1.
<mgrwt>
<rscale>  0 0.22372077E+04</rscale>
<asrwt>0</asrwt>
<pdfrwt beam="1">  1        2 0.47706433E+00 0.22372077E+04</pdfrwt>
<pdfrwt beam="2">  1       -2 0.53527825E-01 0.22372077E+04</pdfrwt>
<totfact> 0.45278127E+00</totfact>
</mgrwt>
</event>
<event>
 8    2  0.4480234E-052  0.1490957E+04  0.7818608E-02  0.8890489E-01
          2   -1    0    0  501    0  0.00000000000E+00  0.00000000000E+00  0.11639647746E+04  0.11639647746E+04  0.25500000000E-02 0.  1.
         -2   -1    0    0    0  501 -0.00000000000E+00 -0.00000000000E+00 -0.47745254508E+03  0.47745254509E+03  0.25500000000E-02 0. -1.
    -200001    2    1    2    0    0 -0.89982140937E+02  0.14497309929E+03  0.76959396422E+03  0.99971212270E+03  0.61484589395E+03 0.  0.
   -5000001    2    3    3    0    0  0.91043781841E+02  0.27085457987E+03  0.67563703617E+03  0.73962476008E+03  0.94383300552E+02 0.  0.
     200001    1    1    2    0    0  0.89982140937E+02 -0.14497309929E+03 -0.83081734702E+02  0.64170519699E+03  0.61300000000E+03 0. -1.
         13    1    4    4    0    0  0.63193442545E+01  0.11971745098E+03  0.20880424979E+03  0.24077256504E+03  0.10566000000E+00 0.  1.
    -200003    1    4    4    0    0  0.84724437586E+02  0.15113712889E+03  0.46683278638E+03  0.49885219504E+03  0.30000000000E+02 0. -1.
    -200000    1    3    3    0    0 -0.18102592278E+03 -0.12588148057E+03  0.93956928046E+02  0.26008736262E+03  0.10100000000E+03 0. -1.
<mgrwt>
<rscale>  0 0.14909567E+04</rscale>
<asrwt>0</asrwt>
<pdfrwt beam="1">  1        2 0.16628068E+00 0.14909567E+04</pdfrwt>
<pdfrwt beam="2">  1       -2 0.68207505E-01 0.14909567E+04</pdfrwt>
<totfact> 0.42706300E+01</totfact>
</mgrwt>
</event>
<event>
 8    2  0.4480234E-052  0.2294884E+04  0.7818608E-02  0.8479941E-01
          2   -1    0    0  501    0  0.00000000000E+00  0.00000000000E+00  0.20675383276E+04  0.20675383276E+04  0.25500000000E-02 0.  1.
         -2   -1    0    0    0  501 -0.00000000000E+00 -0.00000000000E+00 -0.63680736078E+03  0.63680736079E+03  0.25500000000E-02 0. -1.
    -200001    2    1    2    0    0 -0.18834570324E+03  0.50855147849E+03  0.16619274325E+04  0.18538637568E+04  0.61701647283E+03 0.  0.
   -5000001    2    3    3    0    0 -0.35953571069E+03  0.39374006999E+03  0.83416720769E+03  0.99486686046E+03  0.98122218111E+02 0.  0.
     200001    1    1    2    0    0  0.18834570324E+03 -0.50855147849E+03 -0.23119646567E+03  0.85048193158E+03  0.61300000000E+03 0. -1.
         13    1    4    4    0    0 -0.14009696001E+03  0.16610271586E+03  0.42062222729E+03  0.47343462028E+03  0.10566000000E+00 0.  1.
    -200003    1    4    4    0    0 -0.21943875067E+03  0.22763735413E+03  0.41354498039E+03  0.52143224018E+03  0.30000000000E+02 0.  1.
    -200000    1    3    3    0    0  0.17119000744E+03  0.11481140850E+03  0.82776022480E+03  0.85899689635E+03  0.10100000000E+03 0.  1.
<mgrwt>
<rscale>  0 0.22948844E+04</rscale>
<asrwt>0</asrwt>
<pdfrwt beam="1">  1        2 0.29536262E+00 0.22948844E+04</pdfrwt>
<pdfrwt beam="2">  1       -2 0.90972479E-01 0.22948844E+04</pdfrwt>
<totfact> 0.69579590E+00</totfact>
</mgrwt>
</event>
<event>
 8    2  0.4480234E-052  0.1503878E+04  0.7818608E-02  0.8881878E-01
          2   -1    0    0  501    0  0.00000000000E+00  0.00000000000E+00  0.31577342682E+03  0.31577342683E+03  0.25500000000E-02 0.  1.
         -2   -1    0    0    0  501 -0.00000000000E+00 -0.00000000000E+00 -0.17905620669E+04  0.17905620669E+04  0.25500000000E-02 0. -1.
    -200001    2    1    2    0    0 -0.36154300900E+03 -0.97576174230E+02 -0.10483680479E+04  0.12709685214E+04  0.61322994156E+03 0.  0.
   -5000001    2    3    3    0    0  0.48759620511E+02  0.15827844378E+03 -0.15854445074E+03  0.25322746025E+03  0.10750924337E+03 0.  0.
     200001    1    1    2    0    0  0.36154300900E+03  0.97576174230E+02 -0.42642059216E+03  0.83536697238E+03  0.61300000000E+03 0.  1.
         13    1    4    4    0    0  0.33887780224E+02  0.15585457325E+03 -0.10826469235E+03  0.19277002989E+03  0.10566000000E+00 0.  1.
    -200003    1    4    4    0    0  0.14871840287E+02  0.24238705250E+01 -0.50279758393E+02  0.60457430361E+02  0.30000000000E+02 0.  1.
    -200000    1    3    3    0    0 -0.41030262951E+03 -0.25585461801E+03 -0.88982359720E+03  0.10177410611E+04  0.10100000000E+03 0. -1.
<mgrwt>
<rscale>  0 0.15038775E+04</rscale>
<asrwt>0</asrwt>
<pdfrwt beam="1">  1        2 0.45110491E-01 0.15038775E+04</pdfrwt>
<pdfrwt beam="2">  1       -2 0.25579458E+00 0.15038775E+04</pdfrwt>
<totfact> 0.64604087E+00</totfact>
</mgrwt>
</event>
<event>
 8    2  0.4480234E-052  0.1372802E+04  0.7818608E-02  0.8973745E-01
          2   -1    0    0  501    0  0.00000000000E+00  0.00000000000E+00  0.73005632419E+03  0.73005632420E+03  0.25500000000E-02 0.  1.
         -2   -1    0    0    0  501 -0.00000000000E+00 -0.00000000000E+00 -0.64535598492E+03  0.64535598492E+03  0.25500000000E-02 0. -1.
    -200001    2    1    2    0    0 -0.18789199786E+03  0.18363783491E+03 -0.12053766808E+03  0.67761728411E+03  0.61286996747E+03 0.  0.
   -5000001    2    3    3    0    0 -0.17531104288E+03  0.31284272601E+03 -0.26900525536E+03  0.45604154359E+03  0.83699038816E+02 0.  0.
     200001    1    1    2    0    0  0.18789199786E+03 -0.18363783491E+03  0.20523800735E+03  0.69779502501E+03  0.61300000000E+03 0.  1.
         13    1    4    4    0    0 -0.65365281477E+02  0.10880296322E+03 -0.14045634714E+03  0.18931112340E+03  0.10566000000E+00 0.  1.
    -200003    1    4    4    0    0 -0.10994576140E+03  0.20403976279E+03 -0.12854890821E+03  0.26673042019E+03  0.30000000000E+02 0.  1.
    -200000    1    3    3    0    0 -0.12580954983E+02 -0.12920489110E+03  0.14846758728E+03  0.22157574052E+03  0.10100000000E+03 0.  1.
<mgrwt>
<rscale>  0 0.13728018E+04</rscale>
<asrwt>0</asrwt>
<pdfrwt beam="1">  1        2 0.10429376E+00 0.13728018E+04</pdfrwt>
<pdfrwt beam="2">  1       -2 0.92193712E-01 0.13728018E+04</pdfrwt>
<totfact> 0.41705267E+01</totfact>
</mgrwt>
</event>
<event>
 8    2  0.4480234E-052  0.1645523E+04  0.7818608E-02  0.8793060E-01
          2   -1    0    0  501    0  0.00000000000E+00  0.00000000000E+00  0.11002433952E+04  0.11002433952E+04  0.25500000000E-02 0.  1.
         -2   -1    0    0    0  501 -0.00000000000E+00 -0.00000000000E+00 -0.61526039965E+03  0.61526039966E+03  0.25500000000E-02 0. -1.
    -200001    2    1    2    0    0 -0.51291640932E+03  0.19429669562E+03  0.22247344764E+03  0.85207185685E+03  0.61294173088E+03 0.  0.
   -5000001    2    3    3    0    0 -0.27214997885E+03 -0.19348163039E+03  0.21952542708E+02  0.34339697298E+03  0.77063705034E+02 0.  0.
     200001    1    1    2    0    0  0.51291640932E+03 -0.19429669562E+03  0.26250954794E+03  0.86343193805E+03  0.61300000000E+03 0. -1.
         13    1    4    4    0    0 -0.17925751853E+03 -0.14858434522E+03  0.33906073879E+02  0.23528748076E+03  0.10566000000E+00 0.  1.
    -200003    1    4    4    0    0 -0.92892460319E+02 -0.44897285175E+02 -0.11953531171E+02  0.10810949222E+03  0.30000000000E+02 0.  1.
    -200000    1    3    3    0    0 -0.24076643047E+03  0.38777832601E+03  0.20052090493E+03  0.50867488387E+03  0.10100000000E+03 0. -1.
<mgrwt>
<rscale>  0 0.16455226E+04</rscale>
<asrwt>0</asrwt>
<pdfrwt beam="1">  1        2 0.15717763E+00 0.16455226E+04</pdfrwt>
<pdfrwt beam="2">  1       -2 0.87894343E-01 0.16455226E+04</pdfrwt>
<totfact> 0.26116189E+01</totfact>
</mgrwt>
</event>
<event>
 8    2  0.4480234E-052  0.1678382E+04  0.7818608E-02  0.8773791E-01
         -2   -1    0    0    0  501 -0.00000000000E+00  0.00000000000E+00  0.42058779060E+03  0.42058779061E+03  0.25500000000E-02 0. -1.
          2   -1    0    0  501    0  0.00000000000E+00 -0.00000000000E+00 -0.16744215322E+04  0.16744215322E+04  0.25500000000E-02 0.  1.
    -200001    2    1    2    0    0  0.16940735198E+03 -0.33202391890E+02 -0.13090277689E+04  0.14557780420E+04  0.61313518751E+03 0.  0.
   -5000001    2    3    3    0    0  0.18236143661E+03  0.73756735014E+02 -0.94906186339E+02  0.23270801935E+03  0.80312443266E+02 0.  0.
     200001    1    1    2    0    0 -0.16940735198E+03  0.33202391890E+02  0.55194027258E+02  0.63923128082E+03  0.61300000000E+03 0. -1.
         13    1    4    4    0    0  0.13689048472E+03  0.60773458918E+02 -0.93747054547E+02  0.17669448072E+03  0.10566000000E+00 0.  1.
    -200003    1    4    4    0    0  0.45470951889E+02  0.12983276097E+02 -0.11591317922E+01  0.56013538635E+02  0.30000000000E+02 0. -1.
    -200000    1    3    3    0    0 -0.12954084632E+02 -0.10695912690E+03 -0.12141215825E+04  0.12230700226E+04  0.10100000000E+03 0.  1.
<mgrwt>
<rscale>  0 0.16783817E+04</rscale>
<asrwt>0</asrwt>
<pdfrwt beam="1">  1        2 0.23920307E+00 0.16783817E+04</pdfrwt>
<pdfrwt beam="2">  1       -2 0.60083971E-01 0.16783817E+04</pdfrwt>
<totfact> 0.29179647E+01</totfact>
</mgrwt>
</event>
<event>
 8    2  0.4480234E-052  0.1411414E+04  0.7818608E-02  0.8945598E-01
         -2   -1    0    0    0  501 -0.00000000000E+00  0.00000000000E+00  0.33583184157E+03  0.33583184158E+03  0.25500000000E-02 0. -1.
          2   -1    0    0  501    0  0.00000000000E+00 -0.00000000000E+00 -0.14829520860E+04  0.14829520860E+04  0.25500000000E-02 0.  1.
    -200001    2    1    2    0    0 -0.44452299146E+02 -0.24278116507E+03 -0.25683930804E+03  0.71005138693E+03  0.61423760949E+03 0.  0.
   -5000001    2    3    3    0    0  0.39873960907E+02 -0.39816098466E+03 -0.42197971396E+02  0.41420394336E+03  0.98296161898E+02 0.  0.
     200001    1    1    2    0    0  0.44452299146E+02  0.24278116507E+03 -0.89028093637E+03  0.11087325406E+04  0.61300000000E+03 0.  1.
         13    1    4    4    0    0  0.67004815029E+01 -0.22314458104E+03 -0.64035532917E+02  0.23224762892E+03  0.10566000000E+00 0.  1.
    -200003    1    4    4    0    0  0.33173479404E+02 -0.17501640362E+03  0.21837561521E+02  0.18195631444E+03  0.30000000000E+02 0.  1.
    -200000    1    3    3    0    0 -0.84326260053E+02  0.15537981958E+03 -0.21464133665E+03  0.29584744357E+03  0.10100000000E+03 0.  1.
<mgrwt>
<rscale>  0 0.14114142E+04</rscale>
<asrwt>0</asrwt>
<pdfrwt beam="1">  1        2 0.21185029E+00 0.14114142E+04</pdfrwt>
<pdfrwt beam="2">  1       -2 0.47975978E-01 0.14114142E+04</pdfrwt>
<totfact> 0.59804672E+01</totfact>
</mgrwt>
</event>
<event>
 8    2  0.4480234E-052  0.1564410E+04  0.7818608E-02  0.8842715E-01
          2   -1    0    0  501    0  0.00000000000E+00  0.00000000000E+00  0.65666187121E+03  0.65666187122E+03  0.25500000000E-02 0.  1.
         -2   -1    0    0    0  501 -0.00000000000E+00 -0.00000000000E+00 -0.93175043271E+03  0.93175043271E+03  0.25500000000E-02 0. -1.
    -200001    2    1    2    0    0  0.69063507915E+02 -0.30873639247E+03  0.23742500033E+03  0.72903632147E+03  0.61240133824E+03 0.  0.
   -5000001    2    3    3    0    0  0.18336967612E+03 -0.69528420733E+02 -0.14431587884E+03  0.25341730097E+03  0.70246822945E+02 0.  0.
     200001    1    1    2    0    0 -0.69063507915E+02  0.30873639247E+03 -0.51251356183E+03  0.85937598246E+03  0.61300000000E+03 0. -1.
         13    1    4    4    0    0  0.61474961089E+02  0.60367262249E+01 -0.44354642621E+02  0.76045765106E+02  0.10566000000E+00 0.  1.
    -200003    1    4    4    0    0  0.12189471503E+03 -0.75565146958E+02 -0.99961236221E+02  0.17737153586E+03  0.30000000000E+02 0.  1.
    -200000    1    3    3    0    0 -0.11430616820E+03 -0.23920797174E+03  0.38174087917E+03  0.47561902050E+03  0.10100000000E+03 0. -1.
<mgrwt>
<rscale>  0 0.15644104E+04</rscale>
<asrwt>0</asrwt>
<pdfrwt beam="1">  1        2 0.93808839E-01 0.15644104E+04</pdfrwt>
<pdfrwt beam="2">  1       -2 0.13310720E+00 0.15644104E+04</pdfrwt>
<totfact> 0.19180958E+01</totfact>
</mgrwt>
</event>
<event>
 8    2  0.4480234E-052  0.1400796E+04  0.7818608E-02  0.8953243E-01
         -2   -1    0    0    0  501 -0.00000000000E+00  0.00000000000E+00  0.68750061864E+03  0.68750061865E+03  0.25500000000E-02 0. -1.
          2   -1    0    0  501    0  0.00000000000E+00 -0.00000000000E+00 -0.71353691996E+03  0.71353691997E+03  0.25500000000E-02 0.  1.
    -200001    2    1    2    0    0 -0.30384794323E+03 -0.24939491853E+02 -0.15853860322E+03  0.70370590240E+03  0.61410256269E+03 0.  0.
   -5000001    2    3    3    0    0  0.14169030855E+03 -0.14029637119E+03 -0.67858297327E+02  0.22387732750E+03  0.75875516146E+02 0.  0.
     200001    1    1    2    0    0  0.30384794323E+03  0.24939491853E+02  0.13250230190E+03  0.69733163622E+03  0.61300000000E+03 0. -1.
         13    1    4    4    0    0  0.73690190339E+01  0.80933560330E+01 -0.39493244416E+01  0.11636716933E+02  0.10566000000E+00 0.  1.
    -200003    1    4    4    0    0  0.13432128951E+03 -0.14838972722E+03 -0.63908972886E+02  0.21224061057E+03  0.30000000000E+02 0.  1.
    -200000    1    3    3    0    0 -0.44553825178E+03  0.11535687933E+03 -0.90680305892E+02  0.47982857489E+03  0.10100000000E+03 0.  1.
<mgrwt>
<rscale>  0 0.14007956E+04</rscale>
<asrwt>0</asrwt>
<pdfrwt beam="1">  1        2 0.10193385E+00 0.14007956E+04</pdfrwt>
<pdfrwt beam="2">  1       -2 0.98214374E-01 0.14007956E+04</pdfrwt>
<totfact> 0.36938596E+01</totfact>
</mgrwt>
</event>
<event>
 8    2  0.4480234E-052  0.1662115E+04  0.7818608E-02  0.8783271E-01
          2   -1    0    0  501    0  0.00000000000E+00  0.00000000000E+00  0.16759068325E+04  0.16759068325E+04  0.25500000000E-02 0.  1.
         -2   -1    0    0    0  501 -0.00000000000E+00 -0.00000000000E+00 -0.41210935564E+03  0.41210935565E+03  0.25500000000E-02 0. -1.
    -200001    2    1    2    0    0  0.41114485334E+03 -0.37307355871E+03  0.52784674916E+03  0.98094056098E+03  0.61269749709E+03 0.  0.
   -5000001    2    3    3    0    0  0.28669806038E+03 -0.15746540367E+03  0.60933775760E+03  0.70019928283E+03  0.10952352105E+03 0.  0.
     200001    1    1    2    0    0 -0.41114485334E+03  0.37307355871E+03  0.73595072768E+03  0.11070756271E+04  0.61300000000E+03 0.  1.
         13    1    4    4    0    0  0.56844632549E+02 -0.84622920190E+02  0.17644657483E+03  0.20377869320E+03  0.10566000000E+00 0.  1.
    -200003    1    4    4    0    0  0.22985342783E+03 -0.72842483482E+02  0.43289118277E+03  0.49642058963E+03  0.30000000000E+02 0.  1.
    -200000    1    3    3    0    0  0.12444679296E+03 -0.21560815504E+03 -0.81491008442E+02  0.28074127815E+03  0.10100000000E+03 0. -1.
<mgrwt>
<rscale>  0 0.16621154E+04</rscale>
<asrwt>0</asrwt>
<pdfrwt beam="1">  1        2 0.23941526E+00 0.16621154E+04</pdfrwt>
<pdfrwt beam="2">  1       -2 0.58872766E-01 0.16621154E+04</pdfrwt>
<totfact> 0.30444203E+01</totfact>
</mgrwt>
</event>
<event>
 8    2  0.4480234E-052  0.1324102E+04  0.7818608E-02  0.9010667E-01
         -2   -1    0    0    0  501 -0.00000000000E+00  0.00000000000E+00  0.38311646648E+03  0.38311646649E+03  0.25500000000E-02 0. -1.
          2   -1    0    0  501    0  0.00000000000E+00 -0.00000000000E+00 -0.11440687465E+04  0.11440687465E+04  0.25500000000E-02 0.  1.
    -200001    2    1    2    0    0 -0.74645591455E+01  0.81447767646E+01 -0.90418488549E+02  0.61861126304E+03  0.61186790622E+03 0.  0.
   -5000001    2    3    3    0    0 -0.13150480278E+03  0.69372847814E+02  0.19789856579E+03  0.28325684970E+03  0.13771163855E+03 0.  0.
     200001    1    1    2    0    0  0.74645591455E+01 -0.81447767646E+01 -0.67053379150E+03  0.90857394998E+03  0.61300000000E+03 0.  1.
         13    1    4    4    0    0 -0.11854002113E+03 -0.78135329710E+01  0.11320585705E+03  0.16409864454E+03  0.10566000000E+00 0.  1.
    -200003    1    4    4    0    0 -0.12964781652E+02  0.77186380785E+02  0.84692708739E+02  0.11915820515E+03  0.30000000000E+02 0.  1.
    -200000    1    3    3    0    0  0.12404024364E+03 -0.61228071050E+02 -0.28831705434E+03  0.33535441334E+03  0.10100000000E+03 0.  1.
<mgrwt>
<rscale>  0 0.13241021E+04</rscale>
<asrwt>0</asrwt>
<pdfrwt beam="1">  1        2 0.16343839E+00 0.13241021E+04</pdfrwt>
<pdfrwt beam="2">  1       -2 0.54730924E-01 0.13241021E+04</pdfrwt>
<totfact> 0.70799011E+01</totfact>
</mgrwt>
</event>
<event>
 8    2  0.4480234E-052  0.1294985E+04  0.7818608E-02  0.9033551E-01
          2   -1    0    0  501    0  0.00000000000E+00  0.00000000000E+00  0.16097904676E+04  0.16097904676E+04  0.25500000000E-02 0.  1.
         -2   -1    0    0    0  501 -0.00000000000E+00 -0.00000000000E+00 -0.26043556258E+03  0.26043556259E+03  0.25500000000E-02 0. -1.
    -200001    2    1    2    0    0 -0.36150789283E+02 -0.16141107780E+03  0.49313628996E+03  0.80428056613E+03  0.61345204619E+03 0.  0.
   -5000001    2    3    3    0    0 -0.29194937967E+03 -0.14286578726E+03  0.15414070184E+03  0.36736426360E+03  0.74512232212E+02 0.  0.
     200001    1    1    2    0    0  0.36150789283E+02  0.16141107780E+03  0.85621861509E+03  0.10659454641E+04  0.61300000000E+03 0. -1.
         13    1    4    4    0    0 -0.14067283160E+03 -0.94751174896E+02  0.57382688347E+02  0.17905143055E+03  0.10566000000E+00 0.  1.
    -200003    1    4    4    0    0 -0.15127654807E+03 -0.48114612368E+02  0.96758013491E+02  0.18831283305E+03  0.30000000000E+02 0.  1.
    -200000    1    3    3    0    0  0.25579859039E+03 -0.18545290540E+02  0.33899558812E+03  0.43691630253E+03  0.10100000000E+03 0.  1.
<mgrwt>
<rscale>  0 0.12949852E+04</rscale>
<asrwt>0</asrwt>
<pdfrwt beam="1">  1        2 0.22997007E+00 0.12949852E+04</pdfrwt>
<pdfrwt beam="2">  1       -2 0.37205080E-01 0.12949852E+04</pdfrwt>
<totfact> 0.85381910E+01</totfact>
</mgrwt>
</event>
<event>
 8    2  0.4480234E-052  0.1801781E+04  0.7818608E-02  0.8705353E-01
         -2   -1    0    0    0  501 -0.00000000000E+00  0.00000000000E+00  0.25252261224E+04  0.25252261224E+04  0.25500000000E-02 0. -1.
          2   -1    0    0  501    0  0.00000000000E+00 -0.00000000000E+00 -0.32139830667E+03  0.32139830668E+03  0.25500000000E-02 0.  1.
    -200001    2    1    2    0    0  0.35253100223E+03  0.15098568102E+03  0.25002228995E+03  0.76330980667E+03  0.61078304829E+03 0.  0.
   -5000001    2    3    3    0    0  0.31145501246E+02  0.32731146496E+03  0.15890601301E+03  0.37230776288E+03  0.72519735165E+02 0.  0.
     200001    1    1    2    0    0 -0.35253100223E+03 -0.15098568102E+03  0.19538055258E+04  0.20833146224E+04  0.61300000000E+03 0. -1.
         13    1    4    4    0    0 -0.19739109398E+01  0.47137853887E+02  0.11593805812E+00  0.47179425592E+02  0.10566000000E+00 0.  1.
    -200003    1    4    4    0    0  0.33119412185E+02  0.28017361107E+03  0.15879007495E+03  0.32512833729E+03  0.30000000000E+02 0. -1.
    -200000    1    3    3    0    0  0.32138550098E+03 -0.17632578394E+03  0.91116276936E+02  0.39100204379E+03  0.10100000000E+03 0.  1.
<mgrwt>
<rscale>  0 0.18017807E+04</rscale>
<asrwt>0</asrwt>
<pdfrwt beam="1">  1        2 0.45914044E-01 0.18017807E+04</pdfrwt>
<pdfrwt beam="2">  1       -2 0.36074658E+00 0.18017807E+04</pdfrwt>
<totfact> 0.13961082E+00</totfact>
</mgrwt>
</event>
<event>
 8    2  0.4480234E-052  0.1868224E+04  0.7818608E-02  0.8670837E-01
         -2   -1    0    0    0  501 -0.00000000000E+00  0.00000000000E+00  0.57778963135E+03  0.57778963135E+03  0.25500000000E-02 0. -1.
          2   -1    0    0  501    0  0.00000000000E+00 -0.00000000000E+00 -0.15101782858E+04  0.15101782858E+04  0.25500000000E-02 0.  1.
    -200001    2    1    2    0    0  0.11985934454E+03  0.55666165160E+02  0.30738014549E+03  0.69862970717E+03  0.61329921692E+03 0.  0.
   -5000001    2    3    3    0    0 -0.19835952878E+03  0.13582530463E+03  0.23380727446E+03  0.34748485624E+03  0.91021248574E+02 0.  0.
     200001    1    1    2    0    0 -0.11985934454E+03 -0.55666165160E+02 -0.12397687999E+04  0.13893382099E+04  0.61300000000E+03 0.  1.
         13    1    4    4    0    0 -0.14027487435E+03  0.11810559915E+03  0.20147554651E+03  0.27243050477E+03  0.10566000000E+00 0.  1.
    -200003    1    4    4    0    0 -0.58084654429E+02  0.17719705478E+02  0.32331727949E+02  0.75054351470E+02  0.30000000000E+02 0.  1.
    -200000    1    3    3    0    0  0.31821887332E+03 -0.80159139469E+02  0.73572871028E+02  0.35114485092E+03  0.10100000000E+03 0. -1.
<mgrwt>
<rscale>  0 0.18682241E+04</rscale>
<asrwt>0</asrwt>
<pdfrwt beam="1">  1        2 0.21573975E+00 0.18682241E+04</pdfrwt>
<pdfrwt beam="2">  1       -2 0.82541376E-01 0.18682241E+04</pdfrwt>
<totfact> 0.17519867E+01</totfact>
</mgrwt>
</event>
<event>
 8    2  0.4480234E-052  0.2268622E+04  0.7818608E-02  0.8490397E-01
          2   -1    0    0  501    0  0.00000000000E+00  0.00000000000E+00  0.11010918023E+04  0.11010918024E+04  0.25500000000E-02 0.  1.
         -2   -1    0    0    0  501 -0.00000000000E+00 -0.00000000000E+00 -0.11685325715E+04  0.11685325715E+04  0.25500000000E-02 0. -1.
    -200001    2    1    2    0    0  0.58546744120E+03 -0.31928853738E+03 -0.71638235146E+03  0.11553481640E+04  0.61392866985E+03 0.  0.
   -5000001    2    3    3    0    0  0.26757251492E+03  0.12027355634E+03 -0.44360150412E+03  0.53981391709E+03  0.92498602862E+02 0.  0.
     200001    1    1    2    0    0 -0.58546744120E+03  0.31928853738E+03  0.64894158228E+03  0.11142762099E+04  0.61300000000E+03 0.  1.
         13    1    4    4    0    0  0.21074377568E+03  0.73862431178E+02 -0.36687013261E+03  0.42949074855E+03  0.10566000000E+00 0.  1.
    -200003    1    4    4    0    0  0.56828739235E+02  0.46411125162E+02 -0.76731371513E+02  0.11032316854E+03  0.30000000000E+02 0.  1.
    -200000    1    3    3    0    0  0.31789492628E+03 -0.43956209372E+03 -0.27278084734E+03  0.61553424687E+03  0.10100000000E+03 0. -1.
<mgrwt>
<rscale>  0 0.22686222E+04</rscale>
<asrwt>0</asrwt>
<pdfrwt beam="1">  1        2 0.15729883E+00 0.22686222E+04</pdfrwt>
<pdfrwt beam="2">  1       -2 0.16693322E+00 0.22686222E+04</pdfrwt>
<totfact> 0.49949647E+00</totfact>
</mgrwt>
</event>
<event>
 8    2  0.4480234E-052  0.1428572E+04  0.7818608E-02  0.8933393E-01
         -2   -1    0    0    0  501 -0.00000000000E+00  0.00000000000E+00  0.68940215346E+03  0.68940215347E+03  0.25500000000E-02 0. -1.
          2   -1    0    0  501    0  0.00000000000E+00 -0.00000000000E+00 -0.74006787707E+03  0.74006787708E+03  0.25500000000E-02 0.  1.
    -200001    2    1    2    0    0 -0.53912810976E+01  0.32983806810E+03  0.13543306976E+03  0.70889805081E+03  0.61267618933E+03 0.  0.
   -5000001    2    3    3    0    0  0.18143721633E+03  0.32467497960E+03 -0.10038717301E+03  0.39149651988E+03  0.69703907570E+02 0.  0.
     200001    1    1    2    0    0  0.53912810976E+01 -0.32983806810E+03 -0.18609879337E+03  0.72057197973E+03  0.61300000000E+03 0.  1.
         13    1    4    4    0    0  0.12524788125E+03  0.25152877543E+03 -0.66446768575E+02  0.28873680203E+03  0.10566000000E+00 0.  1.
    -200003    1    4    4    0    0  0.56189335077E+02  0.73146204165E+02 -0.33940404437E+02  0.10275971785E+03  0.30000000000E+02 0.  1.
    -200000    1    3    3    0    0 -0.18682849743E+03  0.51630885069E+01  0.23582024277E+03  0.31740153093E+03  0.10100000000E+03 0.  1.
<mgrwt>
<rscale>  0 0.14285719E+04</rscale>
<asrwt>0</asrwt>
<pdfrwt beam="1">  1        2 0.10572398E+00 0.14285719E+04</pdfrwt>
<pdfrwt beam="2">  1       -2 0.98486023E-01 0.14285719E+04</pdfrwt>
<totfact> 0.34990275E+01</totfact>
</mgrwt>
</event>
<event>
 8    2  0.4480234E-052  0.1309073E+04  0.7818608E-02  0.9022401E-01
          2   -1    0    0  501    0  0.00000000000E+00  0.00000000000E+00  0.67234554911E+03  0.67234554911E+03  0.25500000000E-02 0.  1.
         -2   -1    0    0    0  501 -0.00000000000E+00 -0.00000000000E+00 -0.63719922466E+03  0.63719922467E+03  0.25500000000E-02 0. -1.
    -200001    2    1    2    0    0  0.71779986860E+02 -0.13165477699E+03  0.19227619033E+03  0.65920321616E+03  0.61244869174E+03 0.  0.
   -5000001    2    3    3    0    0 -0.13265259659E+03 -0.66351877335E+02  0.34031593591E+03  0.37960722879E+03  0.79293309371E+02 0.  0.
     200001    1    1    2    0    0 -0.71779986860E+02  0.13165477699E+03 -0.15712986588E+03  0.65034155762E+03  0.61300000000E+03 0. -1.
         13    1    4    4    0    0 -0.32118819164E+02 -0.53617916382E+02  0.12633466022E+03  0.14095019347E+03  0.10566000000E+00 0.  1.
    -200003    1    4    4    0    0 -0.10053377743E+03 -0.12733960953E+02  0.21398127569E+03  0.23865703533E+03  0.30000000000E+02 0.  1.
    -200000    1    3    3    0    0  0.20443258345E+03 -0.65302899657E+02 -0.14803974558E+03  0.27959598737E+03  0.10100000000E+03 0. -1.
<mgrwt>
<rscale>  0 0.13090731E+04</rscale>
<asrwt>0</asrwt>
<pdfrwt beam="1">  1        2 0.96049364E-01 0.13090731E+04</pdfrwt>
<pdfrwt beam="2">  1       -2 0.91028461E-01 0.13090731E+04</pdfrwt>
<totfact> 0.47773417E+01</totfact>
</mgrwt>
</event>
<event>
 8    2  0.4480234E-052  0.1397997E+04  0.7818608E-02  0.8955270E-01
          2   -1    0    0  501    0  0.00000000000E+00  0.00000000000E+00  0.12411835319E+04  0.12411835319E+04  0.25500000000E-02 0.  1.
         -2   -1    0    0    0  501 -0.00000000000E+00 -0.00000000000E+00 -0.39365543667E+03  0.39365543668E+03  0.25500000000E-02 0. -1.
    -200001    2    1    2    0    0 -0.11674561010E+03  0.29278623691E+03  0.28893883471E+03  0.74762744929E+03  0.61327631190E+03 0.  0.
   -5000001    2    3    3    0    0  0.16938791996E+03 -0.78929208652E+02  0.62788698884E+02  0.21716571323E+03  0.91084789552E+02 0.  0.
     200001    1    1    2    0    0  0.11674561010E+03 -0.29278623691E+03  0.55858926054E+03  0.88721151930E+03  0.61300000000E+03 0. -1.
         13    1    4    4    0    0  0.28229972237E+02 -0.54532523172E+02  0.22022771585E+02  0.65236041023E+02  0.10566000000E+00 0.  1.
    -200003    1    4    4    0    0  0.14115794773E+03 -0.24396685480E+02  0.40765927299E+02  0.15192967221E+03  0.30000000000E+02 0.  1.
    -200000    1    3    3    0    0 -0.28613353007E+03  0.37171544556E+03  0.22615013582E+03  0.53046173606E+03  0.10100000000E+03 0. -1.
<mgrwt>
<rscale>  0 0.13979966E+04</rscale>
<asrwt>0</asrwt>
<pdfrwt beam="1">  1        2 0.17731193E+00 0.13979966E+04</pdfrwt>
<pdfrwt beam="2">  1       -2 0.56236491E-01 0.13979966E+04</pdfrwt>
<totfact> 0.58571895E+01</totfact>
</mgrwt>
</event>
<event>
 8    2  0.4480234E-052  0.1347256E+04  0.7818608E-02  0.8992908E-01
          2   -1    0    0  501    0  0.00000000000E+00  0.00000000000E+00  0.96380624822E+03  0.96380624823E+03  0.25500000000E-02 0.  1.
         -2   -1    0    0    0  501 -0.00000000000E+00 -0.00000000000E+00 -0.47081516995E+03  0.47081516996E+03  0.25500000000E-02 0. -1.
    -200001    2    1    2    0    0  0.14057211186E+03  0.18608948855E+03  0.82395518551E+02  0.66083363717E+03  0.61279870933E+03 0.  0.
   -5000001    2    3    3    0    0  0.26812980016E+03  0.89083188512E+02  0.26586056278E+03  0.39712620734E+03  0.84840918809E+02 0.  0.
     200001    1    1    2    0    0 -0.14057211186E+03 -0.18608948855E+03  0.41059555972E+03  0.77378778101E+03  0.61300000000E+03 0.  1.
         13    1    4    4    0    0  0.54041566716E+02  0.36102066231E+02  0.10115973137E+03  0.12023789974E+03  0.10566000000E+00 0.  1.
    -200003    1    4    4    0    0  0.21408823345E+03  0.52981122281E+02  0.16470083141E+03  0.27688830760E+03  0.30000000000E+02 0.  1.
    -200000    1    3    3    0    0 -0.12755768830E+03  0.97006300035E+02 -0.18346504423E+03  0.26370742983E+03  0.10100000000E+03 0. -1.
<mgrwt>
<rscale>  0 0.13472559E+04</rscale>
<asrwt>0</asrwt>
<pdfrwt beam="1">  1        2 0.13768661E+00 0.13472559E+04</pdfrwt>
<pdfrwt beam="2">  1       -2 0.67259310E-01 0.13472559E+04</pdfrwt>
<totfact> 0.58695420E+01</totfact>
</mgrwt>
</event>
<event>
 8    2  0.4480234E-052  0.1429467E+04  0.7818608E-02  0.8932761E-01
          2   -1    0    0  501    0  0.00000000000E+00  0.00000000000E+00  0.28379844365E+04  0.28379844365E+04  0.25500000000E-02 0.  1.
         -2   -1    0    0    0  501 -0.00000000000E+00 -0.00000000000E+00 -0.18000241195E+03  0.18000241197E+03  0.25500000000E-02 0. -1.
    -200001    2    1    2    0    0 -0.34684820387E+03  0.15841892773E+02  0.10725263221E+04  0.12830535856E+04  0.61266561017E+03 0.  0.
   -5000001    2    3    3    0    0 -0.20566860543E+03  0.14619999176E+03  0.10278549999E+04  0.10614200141E+04  0.80327658452E+02 0.  0.
     200001    1    1    2    0    0  0.34684820387E+03 -0.15841892773E+02  0.15854557024E+04  0.17349332628E+04  0.61300000000E+03 0.  1.
         13    1    4    4    0    0 -0.76626859864E+02  0.37765248777E+02  0.22874110140E+03  0.24417287380E+03  0.10566000000E+00 0.  1.
    -200003    1    4    4    0    0 -0.12904174556E+03  0.10843474299E+03  0.79911389852E+03  0.81724714034E+03  0.30000000000E+02 0.  1.
    -200000    1    3    3    0    0 -0.14117959844E+03 -0.13035809899E+03  0.44671322205E+02  0.22163357150E+03  0.10100000000E+03 0. -1.
<mgrwt>
<rscale>  0 0.14294671E+04</rscale>
<asrwt>0</asrwt>
<pdfrwt beam="1">  1        2 0.40542635E+00 0.14294671E+04</pdfrwt>
<pdfrwt beam="2">  1       -2 0.25714630E-01 0.14294671E+04</pdfrwt>
<totfact> 0.38614783E+01</totfact>
</mgrwt>
</event>
<event>
 8    2  0.4480234E-052  0.1801876E+04  0.7818608E-02  0.8705302E-01
         -2   -1    0    0    0  501 -0.00000000000E+00  0.00000000000E+00  0.80632957439E+03  0.80632957440E+03  0.25500000000E-02 0. -1.
          2   -1    0    0  501    0  0.00000000000E+00 -0.00000000000E+00 -0.10066471466E+04  0.10066471466E+04  0.25500000000E-02 0.  1.
    -200001    2    1    2    0    0  0.34830638533E+03  0.14362829554E+03 -0.64605074355E+03  0.96657641070E+03  0.61232505186E+03 0.  0.
   -5000001    2    3    3    0    0  0.38397257709E+03  0.10905835147E+02 -0.68682533799E+03  0.79121707597E+03  0.82106876756E+02 0.  0.
     200001    1    1    2    0    0 -0.34830638533E+03 -0.14362829554E+03  0.44573317130E+03  0.84640031034E+03  0.61300000000E+03 0. -1.
         13    1    4    4    0    0  0.29445215122E+03  0.25873385185E+02 -0.48659371827E+03  0.56933729830E+03  0.10566000000E+00 0.  1.
    -200003    1    4    4    0    0  0.89520425869E+02 -0.14967550039E+02 -0.20023161972E+03  0.22187977767E+03  0.30000000000E+02 0. -1.
    -200000    1    3    3    0    0 -0.35666191757E+02  0.13272246039E+03  0.40774594432E+02  0.17535933473E+03  0.10100000000E+03 0. -1.
<mgrwt>
<rscale>  0 0.18018761E+04</rscale>
<asrwt>0</asrwt>
<pdfrwt beam="1">  1        2 0.14380674E+00 0.18018761E+04</pdfrwt>
<pdfrwt beam="2">  1       -2 0.11518994E+00 0.18018761E+04</pdfrwt>
<totfact> 0.15472394E+01</totfact>
</mgrwt>
</event>
<event>
 8    2  0.4480234E-052  0.1523658E+04  0.7818608E-02  0.8868871E-01
         -2   -1    0    0    0  501 -0.00000000000E+00  0.00000000000E+00  0.27451037354E+04  0.27451037354E+04  0.25500000000E-02 0.  1.
          2   -1    0    0  501    0  0.00000000000E+00 -0.00000000000E+00 -0.21142488475E+03  0.21142488477E+03  0.25500000000E-02 0. -1.
    -200001    2    1    2    0    0  0.10736004754E+03  0.43953476650E+03  0.12427338601E+04  0.14575206284E+04  0.61258627507E+03 0.  0.
   -5000001    2    3    3    0    0  0.20858072989E+03  0.52358609579E+03  0.10970661457E+04  0.12367711425E+04  0.91653752742E+02 0.  0.
     200001    1    1    2    0    0 -0.10736004754E+03 -0.43953476650E+03  0.12909449906E+04  0.14990079918E+04  0.61300000000E+03 0.  1.
         13    1    4    4    0    0  0.14694598950E+03  0.28021768585E+03  0.56121297829E+03  0.64426321753E+03  0.10566000000E+00 0.  1.
    -200003    1    4    4    0    0  0.61634740392E+02  0.24336840994E+03  0.53585316741E+03  0.59250792501E+03  0.30000000000E+02 0.  1.
    -200000    1    3    3    0    0 -0.10122068235E+03 -0.84051329287E+02  0.14566771441E+03  0.22074948587E+03  0.10100000000E+03 0. -1.
<mgrwt>
<rscale>  0 0.15236578E+04</rscale>
<asrwt>0</asrwt>
<pdfrwt beam="1">  1        2 0.30203558E-01 0.15236578E+04</pdfrwt>
<pdfrwt beam="2">  1       -2 0.39215763E+00 0.15236578E+04</pdfrwt>
<totfact> 0.14387471E+00</totfact>
</mgrwt>
</event>
<event>
 8    2  0.4480234E-052  0.1597570E+04  0.7818608E-02  0.8822042E-01
         -2   -1    0    0    0  501 -0.00000000000E+00  0.00000000000E+00  0.21765591763E+03  0.21765591765E+03  0.25500000000E-02 0. -1.
          2   -1    0    0  501    0  0.00000000000E+00 -0.00000000000E+00 -0.29314958199E+04  0.29314958199E+04  0.25500000000E-02 0.  1.
    -200001    2    1    2    0    0  0.29146545480E+03  0.41111881240E+03 -0.11737928272E+04  0.14166723631E+04  0.61253587167E+03 0.  0.
   -5000001    2    3    3    0    0  0.16971505876E+03  0.49330244527E+03 -0.11084156614E+04  0.12267974510E+04  0.65545432395E+02 0.  0.
     200001    1    1    2    0    0 -0.29146545480E+03 -0.41111881240E+03 -0.15400470750E+04  0.17324793744E+04  0.61300000000E+03 0.  1.
         13    1    4    4    0    0 -0.29671636283E+01  0.19252493776E+02 -0.29255136520E+02  0.35147357702E+02  0.10566000000E+00 0.  1.
    -200003    1    4    4    0    0  0.17268222239E+03  0.47404995150E+03 -0.10791605249E+04  0.11916500933E+04  0.30000000000E+02 0.  1.
    -200000    1    3    3    0    0  0.12175039604E+03 -0.82183632870E+02 -0.65377165793E+02  0.18987491213E+03  0.10100000000E+03 0. -1.
<mgrwt>
<rscale>  0 0.15975699E+04</rscale>
<asrwt>0</asrwt>
<pdfrwt beam="1">  1        2 0.41878509E+00 0.15975699E+04</pdfrwt>
<pdfrwt beam="2">  1       -2 0.31093704E-01 0.15975699E+04</pdfrwt>
<totfact> 0.23813594E+01</totfact>
</mgrwt>
</event>
<event>
 8    2  0.4480234E-052  0.1593276E+04  0.7818608E-02  0.8824690E-01
         -2   -1    0    0    0  501 -0.00000000000E+00  0.00000000000E+00  0.94208912416E+03  0.94208912416E+03  0.25500000000E-02 0. -1.
          2   -1    0    0  501    0  0.00000000000E+00 -0.00000000000E+00 -0.67364310715E+03  0.67364310716E+03  0.25500000000E-02 0.  1.
    -200001    2    1    2    0    0 -0.11110118491E+03  0.34070116671E+03  0.50118810698E+03  0.86849823937E+03  0.61211021468E+03 0.  0.
   -5000001    2    3    3    0    0 -0.22549740849E+03  0.53998278452E+02  0.48545048626E+03  0.54333102882E+03  0.76036418636E+02 0.  0.
     200001    1    1    2    0    0  0.11110118491E+03 -0.34070116671E+03 -0.23274208997E+03  0.74723399195E+03  0.61300000000E+03 0.  1.
         13    1    4    4    0    0 -0.17364810112E+03  0.25486009289E+02  0.31801078392E+03  0.36322729735E+03  0.10566000000E+00 0.  1.
    -200003    1    4    4    0    0 -0.51849307369E+02  0.28512269163E+02  0.16743970235E+03  0.18010373147E+03  0.30000000000E+02 0.  1.
    -200000    1    3    3    0    0  0.11439622358E+03  0.28670288826E+03  0.15737620718E+02  0.32516721054E+03  0.10100000000E+03 0. -1.
<mgrwt>
<rscale>  0 0.15932757E+04</rscale>
<asrwt>0</asrwt>
<pdfrwt beam="1">  1        2 0.96234729E-01 0.15932757E+04</pdfrwt>
<pdfrwt beam="2">  1       -2 0.13458416E+00 0.15932757E+04</pdfrwt>
<totfact> 0.18038198E+01</totfact>
</mgrwt>
</event>
<event>
 8    2  0.4480234E-052  0.1747806E+04  0.7818608E-02  0.8734559E-01
          2   -1    0    0  501    0  0.00000000000E+00  0.00000000000E+00  0.80854693927E+03  0.80854693927E+03  0.25500000000E-02 0.  1.
         -2   -1    0    0    0  501 -0.00000000000E+00 -0.00000000000E+00 -0.94454173879E+03  0.94454173879E+03  0.25500000000E-02 0. -1.
    -200001    2    1    2    0    0 -0.25279486906E+03  0.72483624613E+02  0.49819255010E+03  0.83269652464E+03  0.61321167921E+03 0.  0.
   -5000001    2    3    3    0    0 -0.20726422396E+02  0.25908296737E+03  0.61020033606E+02  0.29418386200E+03  0.12356023467E+03 0.  0.
     200001    1    1    2    0    0  0.25279486906E+03 -0.72483624613E+02 -0.63418734962E+03  0.92039215342E+03  0.61300000000E+03 0. -1.
         13    1    4    4    0    0 -0.67292832966E+02  0.12886729974E+03  0.42532332929E+02  0.15147315544E+03  0.10566000000E+00 0.  1.
    -200003    1    4    4    0    0  0.46566410569E+02  0.13021566763E+03  0.18487700677E+02  0.14271070656E+03  0.30000000000E+02 0.  1.
    -200000    1    3    3    0    0 -0.23206844666E+03 -0.18659934276E+03  0.43717251649E+03  0.53851266265E+03  0.10100000000E+03 0.  1.
<mgrwt>
<rscale>  0 0.17478059E+04</rscale>
<asrwt>0</asrwt>
<pdfrwt beam="1">  1        2 0.11550671E+00 0.17478059E+04</pdfrwt>
<pdfrwt beam="2">  1       -2 0.13493453E+00 0.17478059E+04</pdfrwt>
<totfact> 0.14076541E+01</totfact>
</mgrwt>
</event>
<event>
 8    2  0.4480234E-052  0.1563227E+04  0.7818608E-02  0.8843463E-01
         -2   -1    0    0    0  501 -0.00000000000E+00  0.00000000000E+00  0.91033301882E+03  0.91033301883E+03  0.25500000000E-02 0. -1.
          2   -1    0    0  501    0  0.00000000000E+00 -0.00000000000E+00 -0.67109467290E+03  0.67109467291E+03  0.25500000000E-02 0.  1.
    -200001    2    1    2    0    0  0.61703642024E+02  0.35442614973E+03  0.44846908724E+03  0.84050142133E+03  0.61310103735E+03 0.  0.
   -5000001    2    3    3    0    0  0.25665098304E+03  0.71205874290E+02  0.16856501350E+02  0.27951246022E+03  0.83084716733E+02 0.  0.
     200001    1    1    2    0    0 -0.61703642024E+02 -0.35442614973E+03 -0.20923074132E+03  0.74092627040E+03  0.61300000000E+03 0.  1.
         13    1    4    4    0    0  0.21275472034E+03  0.56921524674E+02  0.31663510934E+02  0.22250217996E+03  0.10566000000E+00 0.  1.
    -200003    1    4    4    0    0  0.43896262694E+02  0.14284349616E+02 -0.14807009584E+02  0.57010280259E+02  0.30000000000E+02 0. -1.
    -200000    1    3    3    0    0 -0.19494734101E+03  0.28322027544E+03  0.43161258589E+03  0.56098896111E+03  0.10100000000E+03 0. -1.
<mgrwt>
<rscale>  0 0.15632270E+04</rscale>
<asrwt>0</asrwt>
<pdfrwt beam="1">  1        2 0.95870667E-01 0.15632270E+04</pdfrwt>
<pdfrwt beam="2">  1       -2 0.13004757E+00 0.15632270E+04</pdfrwt>
<totfact> 0.19819159E+01</totfact>
</mgrwt>
</event>
<event>
 8    2  0.4480234E-052  0.1251578E+04  0.7818608E-02  0.9068871E-01
          2   -1    0    0  501    0  0.00000000000E+00  0.00000000000E+00  0.15340850526E+03  0.15340850528E+03  0.25500000000E-02 0.  1.
         -2   -1    0    0    0  501 -0.00000000000E+00 -0.00000000000E+00 -0.25527374962E+04  0.25527374962E+04  0.25500000000E-02 0. -1.
    -200001    2    1    2    0    0 -0.24317058658E+02 -0.10974789353E+03 -0.10820540154E+04  0.12488820307E+04  0.61337550878E+03 0.  0.
   -5000001    2    3    3    0    0 -0.45204031511E+02  0.20091079712E+03 -0.74382054371E+03  0.77819320661E+03  0.99534479963E+02 0.  0.
     200001    1    1    2    0    0  0.24317058658E+02  0.10974789353E+03 -0.13172749755E+04  0.14572639708E+04  0.61300000000E+03 0. -1.
         13    1    4    4    0    0  0.16564251980E+02  0.95731573724E+02 -0.23927503839E+03  0.25824690475E+03  0.10566000000E+00 0.  1.
    -200003    1    4    4    0    0 -0.61768283491E+02  0.10517922340E+03 -0.50454550531E+03  0.51994630185E+03  0.30000000000E+02 0.  1.
    -200000    1    3    3    0    0  0.20886972853E+02 -0.31065869065E+03 -0.33823347171E+03  0.47068882407E+03  0.10100000000E+03 0.  1.
<mgrwt>
<rscale>  0 0.12515776E+04</rscale>
<asrwt>0</asrwt>
<pdfrwt beam="1">  1        2 0.21915502E-01 0.12515776E+04</pdfrwt>
<pdfrwt beam="2">  1       -2 0.36467676E+00 0.12515776E+04</pdfrwt>
<totfact> 0.32066150E+00</totfact>
</mgrwt>
</event>
<event>
 8    2  0.4480234E-052  0.1644462E+04  0.7818608E-02  0.8793690E-01
          2   -1    0    0  501    0  0.00000000000E+00  0.00000000000E+00  0.16735959348E+04  0.16735959348E+04  0.25500000000E-02 0.  1.
         -2   -1    0    0    0  501 -0.00000000000E+00 -0.00000000000E+00 -0.40395864036E+03  0.40395864037E+03  0.25500000000E-02 0. -1.
    -200001    2    1    2    0    0  0.22387822871E+03 -0.49292883433E+03  0.74299581211E+03  0.11048158909E+04  0.61276021322E+03 0.  0.
   -5000001    2    3    3    0    0  0.11229275534E+03  0.80251462871E+02  0.38052459734E+03  0.41014089312E+03  0.66080426990E+02 0.  0.
     200001    1    1    2    0    0 -0.22387822871E+03  0.49292883433E+03  0.52664148233E+03  0.97273868429E+03  0.61300000000E+03 0. -1.
         13    1    4    4    0    0  0.11887035650E+02  0.19565347182E+01  0.98759598405E+02  0.99491703603E+02  0.10566000000E+00 0.  1.
    -200003    1    4    4    0    0  0.10040571969E+03  0.78294928152E+02  0.28176499894E+03  0.31064918951E+03  0.30000000000E+02 0.  1.
    -200000    1    3    3    0    0  0.11158547338E+03 -0.57318029720E+03  0.36247121477E+03  0.69467499776E+03  0.10100000000E+03 0. -1.
<mgrwt>
<rscale>  0 0.16444617E+04</rscale>
<asrwt>0</asrwt>
<pdfrwt beam="1">  1        2 0.23908514E+00 0.16444617E+04</pdfrwt>
<pdfrwt beam="2">  1       -2 0.57708377E-01 0.16444617E+04</pdfrwt>
<totfact> 0.31880350E+01</totfact>
</mgrwt>
</event>
<event>
 8    2  0.4480234E-052  0.1430348E+04  0.7818608E-02  0.8932139E-01
         -2   -1    0    0    0  501 -0.00000000000E+00  0.00000000000E+00  0.23676274923E+03  0.23676274924E+03  0.25500000000E-02 0. -1.
          2   -1    0    0  501    0  0.00000000000E+00 -0.00000000000E+00 -0.21602813546E+04  0.21602813546E+04  0.25500000000E-02 0.  1.
    -200001    2    1    2    0    0 -0.12465211413E+03  0.33022023044E+02 -0.15398000031E+04  0.16624438252E+04  0.61327548382E+03 0.  0.
   -5000001    2    3    3    0    0 -0.32769520891E+03 -0.90888046904E+02 -0.10660584249E+04  0.11228029385E+04  0.92526138685E+02 0.  0.
     200001    1    1    2    0    0  0.12465211413E+03 -0.33022023044E+02 -0.38371860230E+03  0.73460027859E+03  0.61300000000E+03 0. -1.
         13    1    4    4    0    0 -0.17750685777E+03 -0.12937728982E+02 -0.47417415256E+03  0.50647527828E+03  0.10566000000E+00 0.  1.
    -200003    1    4    4    0    0 -0.15018835114E+03 -0.77950317922E+02 -0.59188427238E+03  0.61632766024E+03  0.30000000000E+02 0.  1.
    -200000    1    3    3    0    0  0.20304309478E+03  0.12391006995E+03 -0.47374157811E+03  0.53964088670E+03  0.10100000000E+03 0.  1.
<mgrwt>
<rscale>  0 0.14303484E+04</rscale>
<asrwt>0</asrwt>
<pdfrwt beam="1">  1        2 0.30861161E+00 0.14303484E+04</pdfrwt>
<pdfrwt beam="2">  1       -2 0.33823251E-01 0.14303484E+04</pdfrwt>
<totfact> 0.52748354E+01</totfact>
</mgrwt>
</event>
<event>
 8    2  0.4480234E-052  0.1598611E+04  0.7818608E-02  0.8821402E-01
          2   -1    0    0  501    0  0.00000000000E+00  0.00000000000E+00  0.87789944505E+03  0.87789944506E+03  0.25500000000E-02 0.  1.
         -2   -1    0    0    0  501 -0.00000000000E+00 -0.00000000000E+00 -0.72774723794E+03  0.72774723794E+03  0.25500000000E-02 0. -1.
    -200001    2    1    2    0    0  0.13013181287E+03 -0.49224069765E+03  0.13761876242E+03  0.80867662059E+03  0.61301203885E+03 0.  0.
   -5000001    2    3    3    0    0  0.27550209387E+03 -0.26267410829E+02  0.66423273819E+02  0.30515559796E+03  0.11007500654E+03 0.  0.
     200001    1    1    2    0    0 -0.13013181287E+03  0.49224069765E+03  0.12533444697E+02  0.79697006241E+03  0.61300000000E+03 0. -1.
         13    1    4    4    0    0  0.11099300283E+03  0.36629836368E+02  0.44880672162E+02  0.12520174714E+03  0.10566000000E+00 0.  1.
    -200003    1    4    4    0    0  0.16450909104E+03 -0.62897247196E+02  0.21542601657E+02  0.17995385082E+03  0.30000000000E+02 0.  1.
    -200000    1    3    3    0    0 -0.14537028100E+03 -0.46597328682E+03  0.71195488597E+02  0.50352102263E+03  0.10100000000E+03 0. -1.
<mgrwt>
<rscale>  0 0.15986105E+04</rscale>
<asrwt>0</asrwt>
<pdfrwt beam="1">  1        2 0.12541421E+00 0.15986105E+04</pdfrwt>
<pdfrwt beam="2">  1       -2 0.10396389E+00 0.15986105E+04</pdfrwt>
<totfact> 0.24338859E+01</totfact>
</mgrwt>
</event>
<event>
 8    2  0.4480234E-052  0.1434256E+04  0.7818608E-02  0.8929389E-01
          2   -1    0    0  501    0  0.00000000000E+00  0.00000000000E+00  0.41624590509E+03  0.41624590509E+03  0.25500000000E-02 0.  1.
         -2   -1    0    0    0  501 -0.00000000000E+00 -0.00000000000E+00 -0.12355022242E+04  0.12355022242E+04  0.25500000000E-02 0. -1.
    -200001    2    1    2    0    0  0.39281116464E+02 -0.56662544292E+02  0.11445777857E+02  0.61705560300E+03  0.61308479131E+03 0.  0.
   -5000001    2    3    3    0    0 -0.24447041625E+03 -0.72724746219E+02 -0.54289202780E+02  0.30835669739E+03  0.16456567731E+03 0.  0.
     200001    1    1    2    0    0 -0.39281116464E+02  0.56662544292E+02 -0.83070209693E+03  0.10346925263E+04  0.61300000000E+03 0. -1.
         13    1    4    4    0    0 -0.54936192030E+01 -0.56047922584E+02 -0.34667185534E+02  0.66131493215E+02  0.10566000000E+00 0.  1.
    -200003    1    4    4    0    0 -0.23897679705E+03 -0.16676823634E+02 -0.19622017247E+02  0.24222520417E+03  0.30000000000E+02 0.  1.
    -200000    1    3    3    0    0  0.28375153272E+03  0.16062201927E+02  0.65734980637E+02  0.30869890562E+03  0.10100000000E+03 0.  1.
<mgrwt>
<rscale>  0 0.14342562E+04</rscale>
<asrwt>0</asrwt>
<pdfrwt beam="1">  1        2 0.59463701E-01 0.14342562E+04</pdfrwt>
<pdfrwt beam="2">  1       -2 0.17650032E+00 0.14342562E+04</pdfrwt>
<totfact> 0.15408130E+01</totfact>
</mgrwt>
</event>
<event>
 8    2  0.4480234E-052  0.1290337E+04  0.7818608E-02  0.9037263E-01
         -2   -1    0    0    0  501 -0.00000000000E+00  0.00000000000E+00  0.60145681708E+03  0.60145681709E+03  0.25500000000E-02 0. -1.
          2   -1    0    0  501    0  0.00000000000E+00 -0.00000000000E+00 -0.69205689600E+03  0.69205689600E+03  0.25500000000E-02 0.  1.
    -200001    2    1    2    0    0 -0.17751848667E+03  0.94276941209E+02 -0.60042193389E+02  0.64767802259E+03  0.61276488249E+03 0.  0.
   -5000001    2    3    3    0    0 -0.17411097931E+03 -0.19123801668E+03  0.11862364413E+03  0.29603490268E+03  0.81721983085E+02 0.  0.
     200001    1    1    2    0    0  0.17751848667E+03 -0.94276941209E+02 -0.30557885526E+02  0.64583569050E+03  0.61300000000E+03 0. -1.
         13    1    4    4    0    0 -0.12732810770E+02 -0.95453807142E+01  0.33002961342E+02  0.36639396617E+02  0.10566000000E+00 0.  1.
    -200003    1    4    4    0    0 -0.16137816854E+03 -0.18169263596E+03  0.85620682788E+02  0.25939550607E+03  0.30000000000E+02 0.  1.
    -200000    1    3    3    0    0 -0.34075073545E+01  0.28551495789E+03 -0.17866583752E+03  0.35164311991E+03  0.10100000000E+03 0.  1.
<mgrwt>
<rscale>  0 0.12903369E+04</rscale>
<asrwt>0</asrwt>
<pdfrwt beam="1">  1        2 0.98865271E-01 0.12903369E+04</pdfrwt>
<pdfrwt beam="2">  1       -2 0.85922403E-01 0.12903369E+04</pdfrwt>
<totfact> 0.52719084E+01</totfact>
</mgrwt>
</event>
<event>
 8    2  0.4480234E-052  0.1889203E+04  0.7818608E-02  0.8660249E-01
          2   -1    0    0  501    0  0.00000000000E+00  0.00000000000E+00  0.59290887091E+03  0.59290887092E+03  0.25500000000E-02 0.  1.
         -2   -1    0    0    0  501 -0.00000000000E+00 -0.00000000000E+00 -0.15049058030E+04  0.15049058030E+04  0.25500000000E-02 0. -1.
    -200001    2    1    2    0    0  0.79028424232E+02 -0.10842034973E+03  0.32777482264E+03  0.70828113064E+03  0.61337212326E+03 0.  0.
   -5000001    2    3    3    0    0 -0.15011690525E+03 -0.25692288343E+03  0.27331963360E+03  0.41209377076E+03  0.81075276825E+02 0.  0.
     200001    1    1    2    0    0 -0.79028424232E+02  0.10842034973E+03 -0.12397717547E+04  0.13895335433E+04  0.61300000000E+03 0. -1.
         13    1    4    4    0    0 -0.12957397681E+03 -0.20689179090E+03  0.23767623288E+03  0.34071048039E+03  0.10566000000E+00 0.  1.
    -200003    1    4    4    0    0 -0.20542928442E+02 -0.50031092526E+02  0.35643400728E+02  0.71383290368E+02  0.30000000000E+02 0. -1.
    -200000    1    3    3    0    0  0.22914532949E+03  0.14850253370E+03  0.54455189035E+02  0.29618735988E+03  0.10100000000E+03 0. -1.
<mgrwt>
<rscale>  0 0.18892030E+04</rscale>
<asrwt>0</asrwt>
<pdfrwt beam="1">  1        2 0.84701268E-01 0.18892030E+04</pdfrwt>
<pdfrwt beam="2">  1       -2 0.21498654E+00 0.18892030E+04</pdfrwt>
<totfact> 0.55011537E+00</totfact>
</mgrwt>
</event>
<event>
 8    2  0.4480234E-052  0.1889691E+04  0.7818608E-02  0.8660005E-01
          2   -1    0    0  501    0  0.00000000000E+00  0.00000000000E+00  0.12156611719E+04  0.12156611719E+04  0.25500000000E-02 0.  1.
         -2   -1    0    0    0  501 -0.00000000000E+00 -0.00000000000E+00 -0.73436017342E+03  0.73436017342E+03  0.25500000000E-02 0. -1.
    -200001    2    1    2    0    0  0.51188531390E+03  0.48251690536E+03  0.87282587541E+02  0.93716960560E+03  0.61304117400E+03 0.  0.
   -5000001    2    3    3    0    0  0.59111328589E+03  0.28449927110E+03 -0.55450510989E+02  0.66137658095E+03  0.63162256547E+02 0.  0.
     200001    1    1    2    0    0 -0.51188531390E+03 -0.48251690536E+03  0.39401841097E+03  0.10128517398E+04  0.61300000000E+03 0.  1.
         13    1    4    4    0    0  0.10504622332E+03  0.51573059181E+02  0.10688545473E+02  0.11751061925E+03  0.10566000000E+00 0.  1.
    -200003    1    4    4    0    0  0.48606706257E+03  0.23292621192E+03 -0.66139056462E+02  0.54386596171E+03  0.30000000000E+02 0.  1.
    -200000    1    3    3    0    0 -0.79227971992E+02  0.19801763426E+03  0.14273309853E+03  0.27579302464E+03  0.10100000000E+03 0. -1.
<mgrwt>
<rscale>  0 0.18896911E+04</rscale>
<asrwt>0</asrwt>
<pdfrwt beam="1">  1        2 0.17366588E+00 0.18896911E+04</pdfrwt>
<pdfrwt beam="2">  1       -2 0.10490860E+00 0.18896911E+04</pdfrwt>
<totfact> 0.14509344E+01</totfact>
</mgrwt>
</event>
<event>
 8    2  0.4480234E-052  0.1476512E+04  0.7818608E-02  0.8900224E-01
          2   -1    0    0  501    0  0.00000000000E+00  0.00000000000E+00  0.26170927477E+04  0.26170927477E+04  0.25500000000E-02 0.  1.
         -2   -1    0    0    0  501 -0.00000000000E+00 -0.00000000000E+00 -0.20825482413E+03  0.20825482414E+03  0.25500000000E-02 0. -1.
    -200001    2    1    2    0    0  0.67793103901E+02 -0.39507778135E+02  0.19772340778E+04  0.20715520763E+04  0.61295728804E+03 0.  0.
   -5000001    2    3    3    0    0 -0.73120260116E+02  0.44618105695E+02  0.18169442747E+04  0.18208978095E+04  0.83934423479E+02 0.  0.
     200001    1    1    2    0    0 -0.67793103901E+02  0.39507778135E+02  0.43160384587E+03  0.75379549563E+03  0.61300000000E+03 0. -1.
         13    1    4    4    0    0 -0.53786861144E+02  0.38328190797E+02  0.64065271830E+03  0.64404812962E+03  0.10566000000E+00 0.  1.
    -200003    1    4    4    0    0 -0.19333398972E+02  0.62899148983E+01  0.11762915564E+04  0.11768496799E+04  0.30000000000E+02 0.  1.
    -200000    1    3    3    0    0  0.14091336402E+03 -0.84125883830E+02  0.16028980306E+03  0.25065426678E+03  0.10100000000E+03 0.  1.
<mgrwt>
<rscale>  0 0.14765124E+04</rscale>
<asrwt>0</asrwt>
<pdfrwt beam="1">  1        2 0.37387038E+00 0.14765124E+04</pdfrwt>
<pdfrwt beam="2">  1       -2 0.29750690E-01 0.14765124E+04</pdfrwt>
<totfact> 0.38650525E+01</totfact>
</mgrwt>
</event>
<event>
 8    2  0.4480234E-052  0.1294048E+04  0.7818608E-02  0.9034299E-01
          2   -1    0    0  501    0  0.00000000000E+00  0.00000000000E+00  0.12651815751E+04  0.12651815751E+04  0.25500000000E-02 0.  1.
         -2   -1    0    0    0  501 -0.00000000000E+00 -0.00000000000E+00 -0.33089304862E+03  0.33089304863E+03  0.25500000000E-02 0. -1.
    -200001    2    1    2    0    0 -0.15581056650E+03  0.13793794228E+03  0.44755737517E+03  0.78614868749E+03  0.61189733308E+03 0.  0.
   -5000001    2    3    3    0    0  0.98357266807E+02 -0.35716027796E+02  0.44476814961E+03  0.46216447709E+03  0.69480287875E+02 0.  0.
     200001    1    1    2    0    0  0.15581056650E+03 -0.13793794228E+03  0.48673115133E+03  0.80992593626E+03  0.61300000000E+03 0.  1.
         13    1    4    4    0    0  0.47006257465E+02 -0.42064876536E+02  0.18025218537E+03  0.19097094955E+03  0.10566000000E+00 0.  1.
    -200003    1    4    4    0    0  0.51351009342E+02  0.63488487406E+01  0.26451596424E+03  0.27119352754E+03  0.30000000000E+02 0.  1.
    -200000    1    3    3    0    0 -0.25416783331E+03  0.17365397008E+03  0.27892255578E+01  0.32398421040E+03  0.10100000000E+03 0. -1.
<mgrwt>
<rscale>  0 0.12940476E+04</rscale>
<asrwt>0</asrwt>
<pdfrwt beam="1">  1        2 0.18074022E+00 0.12940476E+04</pdfrwt>
<pdfrwt beam="2">  1       -2 0.47270436E-01 0.12940476E+04</pdfrwt>
<totfact> 0.81667420E+01</totfact>
</mgrwt>
</event>
<event>
 8    2  0.4480234E-052  0.1914943E+04  0.7818608E-02  0.8647454E-01
         -2   -1    0    0    0  501 -0.00000000000E+00  0.00000000000E+00  0.61625240141E+03  0.61625240141E+03  0.25500000000E-02 0. -1.
          2   -1    0    0  501    0  0.00000000000E+00 -0.00000000000E+00 -0.14876232654E+04  0.14876232654E+04  0.25500000000E-02 0.  1.
    -200001    2    1    2    0    0 -0.18807842842E+03 -0.15090146852E+03 -0.11979586290E+04  0.13686387549E+04  0.61637846825E+03 0.  0.
   -5000001    2    3    3    0    0  0.19008304309E+03  0.72786998418E+01 -0.62691266382E+03  0.65848274487E+03  0.66298525593E+02 0.  0.
     200001    1    1    2    0    0  0.18807842842E+03  0.15090146852E+03  0.32658776499E+03  0.73523691194E+03  0.61300000000E+03 0. -1.
         13    1    4    4    0    0  0.15301897892E+01 -0.95774024115E+01 -0.26480892890E+02  0.28201364684E+02  0.10566000000E+00 0.  1.
    -200003    1    4    4    0    0  0.18855285330E+03  0.16856102253E+02 -0.60043177093E+03  0.63028138018E+03  0.30000000000E+02 0.  1.
    -200000    1    3    3    0    0 -0.37816147151E+03 -0.15818016836E+03 -0.57104596515E+03  0.71015600998E+03  0.10100000000E+03 0.  1.
<mgrwt>
<rscale>  0 0.19149427E+04</rscale>
<asrwt>0</asrwt>
<pdfrwt beam="1">  1        2 0.21251761E+00 0.19149427E+04</pdfrwt>
<pdfrwt beam="2">  1       -2 0.88036058E-01 0.19149427E+04</pdfrwt>
<totfact> 0.15495372E+01</totfact>
</mgrwt>
</event>
<event>
 8    2  0.4480234E-052  0.1640845E+04  0.7818608E-02  0.8795841E-01
         -2   -1    0    0    0  501 -0.00000000000E+00  0.00000000000E+00  0.33740767190E+03  0.33740767191E+03  0.25500000000E-02 0. -1.
          2   -1    0    0  501    0  0.00000000000E+00 -0.00000000000E+00 -0.19948955401E+04  0.19948955401E+04  0.25500000000E-02 0.  1.
    -200001    2    1    2    0    0 -0.34034145331E+02  0.17504962421E+03 -0.15611527807E+04  0.16866638830E+04  0.61305493699E+03 0.  0.
   -5000001    2    3    3    0    0 -0.10000516103E+03  0.14269379356E+03 -0.15495623494E+04  0.15612269954E+04  0.76965611498E+02 0.  0.
     200001    1    1    2    0    0  0.34034145331E+02 -0.17504962421E+03 -0.96335087496E+02  0.64563932894E+03  0.61300000000E+03 0. -1.
         13    1    4    4    0    0 -0.12304234457E+02  0.19321919069E+02 -0.70305344247E+02  0.73943108778E+02  0.10566000000E+00 0.  1.
    -200003    1    4    4    0    0 -0.87700926574E+02  0.12337187449E+03 -0.14792570052E+04  0.14872838866E+04  0.30000000000E+02 0.  1.
    -200000    1    3    3    0    0  0.65971015701E+02  0.32355830652E+02 -0.11590431234E+02  0.12543688766E+03  0.10100000000E+03 0. -1.
<mgrwt>
<rscale>  0 0.16408450E+04</rscale>
<asrwt>0</asrwt>
<pdfrwt beam="1">  1        2 0.28498507E+00 0.16408450E+04</pdfrwt>
<pdfrwt beam="2">  1       -2 0.48201097E-01 0.16408450E+04</pdfrwt>
<totfact> 0.31525303E+01</totfact>
</mgrwt>
</event>
<event>
 8    2  0.4480234E-052  0.1453581E+04  0.7818608E-02  0.8915922E-01
         -2   -1    0    0    0  501 -0.00000000000E+00  0.00000000000E+00  0.29794762016E+03  0.29794762017E+03  0.25500000000E-02 0. -1.
          2   -1    0    0  501    0  0.00000000000E+00 -0.00000000000E+00 -0.17728764598E+04  0.17728764598E+04  0.25500000000E-02 0.  1.
    -200001    2    1    2    0    0  0.96609284214E+01  0.38979254818E+03 -0.70380103763E+03  0.10113720276E+04  0.61278537317E+03 0.  0.
   -5000001    2    3    3    0    0 -0.26678712740E+03  0.28194884109E+03 -0.30394602798E+03  0.50329838980E+03  0.10126974334E+03 0.  0.
     200001    1    1    2    0    0 -0.96609284214E+01 -0.38979254818E+03 -0.77112780202E+03  0.10594520523E+04  0.61300000000E+03 0. -1.
         13    1    4    4    0    0 -0.23366977223E+03  0.25511112571E+03 -0.28361537333E+03  0.44734879017E+03  0.10566000000E+00 0.  1.
    -200003    1    4    4    0    0 -0.33117355167E+02  0.26837715378E+02 -0.20330654644E+02  0.55949599626E+02  0.30000000000E+02 0. -1.
    -200000    1    3    3    0    0  0.27644805582E+03  0.10784370709E+03 -0.39985500966E+03  0.50807363785E+03  0.10100000000E+03 0. -1.
<mgrwt>
<rscale>  0 0.14535809E+04</rscale>
<asrwt>0</asrwt>
<pdfrwt beam="1">  1        2 0.25326806E+00 0.14535809E+04</pdfrwt>
<pdfrwt beam="2">  1       -2 0.42563947E-01 0.14535809E+04</pdfrwt>
<totfact> 0.53378930E+01</totfact>
</mgrwt>
</event>
<event>
 8    2  0.4480234E-052  0.1945078E+04  0.7818608E-02  0.8632738E-01
          2   -1    0    0  501    0  0.00000000000E+00  0.00000000000E+00  0.25704857512E+04  0.25704857512E+04  0.25500000000E-02 0.  1.
         -2   -1    0    0    0  501 -0.00000000000E+00 -0.00000000000E+00 -0.36795852553E+03  0.36795852554E+03  0.25500000000E-02 0. -1.
    -200001    2    1    2    0    0 -0.20955311678E+03  0.51416507669E+03  0.18721597102E+04  0.20478321669E+04  0.61673038559E+03 0.  0.
   -5000001    2    3    3    0    0  0.16265987562E+03  0.52067226228E+02  0.73618282994E+03  0.76225003901E+03  0.99452157754E+02 0.  0.
     200001    1    1    2    0    0  0.20955311678E+03 -0.51416507669E+03  0.33036751542E+03  0.89061210978E+03  0.61300000000E+03 0. -1.
         13    1    4    4    0    0  0.64627591370E+02 -0.83554219268E+01  0.14159594527E+03  0.15587161873E+03  0.10566000000E+00 0.  1.
    -200003    1    4    4    0    0  0.98032284250E+02  0.60422648155E+02  0.59458688467E+03  0.60637842028E+03  0.30000000000E+02 0.  1.
    -200000    1    3    3    0    0 -0.37221299240E+03  0.46209785046E+03  0.11359768803E+04  0.12855821279E+04  0.10100000000E+03 0. -1.
<mgrwt>
<rscale>  0 0.19450780E+04</rscale>
<asrwt>0</asrwt>
<pdfrwt beam="1">  1        2 0.36721225E+00 0.19450780E+04</pdfrwt>
<pdfrwt beam="2">  1       -2 0.52565504E-01 0.19450780E+04</pdfrwt>
<totfact> 0.12936326E+01</totfact>
</mgrwt>
</event>
<event>
 8    2  0.4480234E-052  0.1287883E+04  0.7818608E-02  0.9039230E-01
         -2   -1    0    0    0  501 -0.00000000000E+00  0.00000000000E+00  0.10594136577E+03  0.10594136580E+03  0.25500000000E-02 0. -1.
          2   -1    0    0  501    0  0.00000000000E+00 -0.00000000000E+00 -0.39140579438E+04  0.39140579438E+04  0.25500000000E-02 0.  1.
    -200001    2    1    2    0    0 -0.99711280766E+02  0.14043065330E+03 -0.16112119392E+04  0.17326816447E+04  0.61361116441E+03 0.  0.
   -5000001    2    3    3    0    0 -0.20543243214E+03  0.13570734769E+03 -0.23771492614E+03  0.35141616831E+03  0.79787021827E+02 0.  0.
     200001    1    1    2    0    0  0.99711280766E+02 -0.14043065330E+03 -0.21969046388E+04  0.22873176648E+04  0.61300000000E+03 0.  1.
         13    1    4    4    0    0 -0.13904750010E+03  0.11143429799E+03 -0.19247168596E+03  0.26229214840E+03  0.10566000000E+00 0.  1.
    -200003    1    4    4    0    0 -0.66384932040E+02  0.24273049707E+02 -0.45243240174E+02  0.89124019913E+02  0.30000000000E+02 0.  1.
    -200000    1    3    3    0    0  0.10572115137E+03  0.47233056067E+01 -0.13734970131E+04  0.13812654764E+04  0.10100000000E+03 0.  1.
<mgrwt>
<rscale>  0 0.12878830E+04</rscale>
<asrwt>0</asrwt>
<pdfrwt beam="1">  1        2 0.55915104E+00 0.12878830E+04</pdfrwt>
<pdfrwt beam="2">  1       -2 0.15134483E-01 0.12878830E+04</pdfrwt>
<totfact> 0.22705374E+01</totfact>
</mgrwt>
</event>
<event>
 8    2  0.4480234E-052  0.2806374E+04  0.7818608E-02  0.8301292E-01
          2   -1    0    0  501    0  0.00000000000E+00  0.00000000000E+00  0.17219751550E+04  0.17219751550E+04  0.25500000000E-02 0.  1.
         -2   -1    0    0    0  501 -0.00000000000E+00 -0.00000000000E+00 -0.11434158899E+04  0.11434158899E+04  0.25500000000E-02 0. -1.
    -200001    2    1    2    0    0  0.16755957374E+03 -0.23053495108E+03  0.15452857924E+04  0.16857505264E+04  0.61042942482E+03 0.  0.
   -5000001    2    3    3    0    0  0.33692217018E+03 -0.38334108269E+02  0.11633433354E+04  0.12148939734E+04  0.87255933736E+02 0.  0.
     200001    1    1    2    0    0 -0.16755957374E+03  0.23053495108E+03 -0.96672652731E+03  0.11796405186E+04  0.61300000000E+03 0. -1.
         13    1    4    4    0    0  0.12733545371E+03 -0.28532336935E+02  0.32611579537E+03  0.35125480093E+03  0.10566000000E+00 0.  1.
    -200003    1    4    4    0    0  0.20958671647E+03 -0.98017713341E+01  0.83722754008E+03  0.86363917252E+03  0.30000000000E+02 0.  1.
    -200000    1    3    3    0    0 -0.16936259644E+03 -0.19220084281E+03  0.38194245694E+03  0.47085655296E+03  0.10100000000E+03 0.  1.
<mgrwt>
<rscale>  0 0.28063740E+04</rscale>
<asrwt>0</asrwt>
<pdfrwt beam="1">  1        2 0.24599645E+00 0.28063740E+04</pdfrwt>
<pdfrwt beam="2">  1       -2 0.16334513E+00 0.28063740E+04</pdfrwt>
<totfact> 0.23299129E+00</totfact>
</mgrwt>
</event>
<event>
 8    2  0.4480234E-052  0.1540155E+04  0.7818608E-02  0.8858181E-01
         -2   -1    0    0    0  501 -0.00000000000E+00  0.00000000000E+00  0.24916841926E+03  0.24916841927E+03  0.25500000000E-02 0. -1.
          2   -1    0    0  501    0  0.00000000000E+00 -0.00000000000E+00 -0.23799927384E+04  0.23799927384E+04  0.25500000000E-02 0.  1.
    -200001    2    1    2    0    0 -0.25062572980E+03 -0.24980899913E+03 -0.15832564780E+04  0.17342771802E+04  0.61302403724E+03 0.  0.
   -5000001    2    3    3    0    0 -0.22379295225E+02  0.13355605929E+03 -0.63873566035E+03  0.68480789630E+03  0.20649590119E+03 0.  0.
     200001    1    1    2    0    0  0.25062572980E+03  0.24980899913E+03 -0.54756784121E+03  0.89488397751E+03  0.61300000000E+03 0. -1.
         13    1    4    4    0    0 -0.86523916320E+02  0.11135707405E+03 -0.55627026320E+03  0.57386706032E+03  0.10566000000E+00 0.  1.
    -200003    1    4    4    0    0  0.64144621095E+02  0.22198985244E+02 -0.82465397144E+02  0.11094083598E+03  0.30000000000E+02 0.  1.
    -200000    1    3    3    0    0 -0.22824643458E+03 -0.38336505842E+03 -0.94452081762E+03  0.10494692839E+04  0.10100000000E+03 0.  1.
<mgrwt>
<rscale>  0 0.15401546E+04</rscale>
<asrwt>0</asrwt>
<pdfrwt beam="1">  1        2 0.33999895E+00 0.15401546E+04</pdfrwt>
<pdfrwt beam="2">  1       -2 0.35595490E-01 0.15401546E+04</pdfrwt>
<totfact> 0.36508881E+01</totfact>
</mgrwt>
</event>
<event>
 8    2  0.4480234E-052  0.1737836E+04  0.7818608E-02  0.8740075E-01
          2   -1    0    0  501    0  0.00000000000E+00  0.00000000000E+00  0.12438932738E+04  0.12438932738E+04  0.25500000000E-02 0.  1.
         -2   -1    0    0    0  501 -0.00000000000E+00 -0.00000000000E+00 -0.60697984151E+03  0.60697984152E+03  0.25500000000E-02 0. -1.
    -200001    2    1    2    0    0 -0.48195846944E+03  0.38296463364E+03  0.33217799879E+03  0.93023281568E+03  0.61322507418E+03 0.  0.
   -5000001    2    3    3    0    0 -0.48077701000E+03  0.14124317856E+03  0.52030971972E+02  0.54667836801E+03  0.21225891542E+03 0.  0.
     200001    1    1    2    0    0  0.48195846944E+03 -0.38296463364E+03  0.30473543350E+03  0.92064029964E+03  0.61300000000E+03 0. -1.
         13    1    4    4    0    0 -0.20271888755E+03  0.15091650004E+03 -0.31393227675E+02  0.25466896800E+03  0.10566000000E+00 0.  1.
    -200003    1    4    4    0    0 -0.27805812245E+03 -0.96733214821E+01  0.83424199646E+02  0.29200940001E+03  0.30000000000E+02 0. -1.
    -200000    1    3    3    0    0 -0.11814594406E+01  0.24172145509E+03  0.28014702681E+03  0.38355444767E+03  0.10100000000E+03 0.  1.
<mgrwt>
<rscale>  0 0.17378356E+04</rscale>
<asrwt>0</asrwt>
<pdfrwt beam="1">  1        2 0.17769904E+00 0.17378356E+04</pdfrwt>
<pdfrwt beam="2">  1       -2 0.86711407E-01 0.17378356E+04</pdfrwt>
<totfact> 0.22107161E+01</totfact>
</mgrwt>
</event>
<event>
 8    2  0.4480234E-052  0.1227629E+04  0.7818608E-02  0.9089011E-01
         -2   -1    0    0    0  501 -0.00000000000E+00  0.00000000000E+00  0.31935690569E+03  0.31935690570E+03  0.25500000000E-02 0. -1.
          2   -1    0    0  501    0  0.00000000000E+00 -0.00000000000E+00 -0.11797723618E+04  0.11797723618E+04  0.25500000000E-02 0.  1.
    -200001    2    1    2    0    0 -0.13473173286E+02  0.60588805281E+02 -0.46789587837E+03  0.76858621698E+03  0.60658527036E+03 0.  0.
   -5000001    2    3    3    0    0 -0.13265644667E+03  0.28895207665E+03 -0.21871544019E+03  0.39623379368E+03  0.89853992846E+02 0.  0.
     200001    1    1    2    0    0  0.13473173286E+02 -0.60588805281E+02 -0.39251957771E+03  0.73054305048E+03  0.61300000000E+03 0. -1.
         13    1    4    4    0    0 -0.48034043953E+02  0.39280953597E+02 -0.63786048147E+02  0.88988391357E+02  0.10566000000E+00 0.  1.
    -200003    1    4    4    0    0 -0.84622402721E+02  0.24967112305E+03 -0.15492939205E+03  0.30724540232E+03  0.30000000000E+02 0.  1.
    -200000    1    3    3    0    0  0.11918327339E+03 -0.22836327137E+03 -0.24918043818E+03  0.37235242330E+03  0.10100000000E+03 0. -1.
<mgrwt>
<rscale>  0 0.12276293E+04</rscale>
<asrwt>0</asrwt>
<pdfrwt beam="1">  1        2 0.16853891E+00 0.12276293E+04</pdfrwt>
<pdfrwt beam="2">  1       -2 0.45622416E-01 0.12276293E+04</pdfrwt>
<totfact> 0.98476401E+01</totfact>
</mgrwt>
</event>
<event>
 8    2  0.4480234E-052  0.2196851E+04  0.7818608E-02  0.8519740E-01
         -2   -1    0    0    0  501 -0.00000000000E+00  0.00000000000E+00  0.47064164281E+03  0.47064164282E+03  0.25500000000E-02 0. -1.
          2   -1    0    0  501    0  0.00000000000E+00 -0.00000000000E+00 -0.25636026596E+04  0.25636026596E+04  0.25500000000E-02 0.  1.
    -200001    2    1    2    0    0  0.17340268778E+03  0.68958314148E+03 -0.18334226131E+04  0.20602203889E+04  0.61439089465E+03 0.  0.
   -5000001    2    3    3    0    0 -0.16656652195E+03  0.13357766354E+03 -0.21029791425E+03  0.30823410382E+03  0.72080868384E+02 0.  0.
     200001    1    1    2    0    0 -0.17340268778E+03 -0.68958314148E+03 -0.25953840369E+03  0.97402391353E+03  0.61300000000E+03 0. -1.
         13    1    4    4    0    0 -0.11532255066E+03  0.95693766257E+02 -0.11098103299E+03  0.18647624095E+03  0.10566000000E+00 0.  1.
    -200003    1    4    4    0    0 -0.51243971287E+02  0.37883897282E+02 -0.99316881255E+02  0.12175786286E+03  0.30000000000E+02 0. -1.
    -200000    1    3    3    0    0  0.33996920973E+03  0.55600547794E+03 -0.16231246988E+04  0.17519862850E+04  0.10100000000E+03 0.  1.
<mgrwt>
<rscale>  0 0.21968506E+04</rscale>
<asrwt>0</asrwt>
<pdfrwt beam="1">  1        2 0.36622894E+00 0.21968506E+04</pdfrwt>
<pdfrwt beam="2">  1       -2 0.67234522E-01 0.21968506E+04</pdfrwt>
<totfact> 0.76009421E+00</totfact>
</mgrwt>
</event>
<event>
 8    2  0.4480234E-052  0.2882717E+04  0.7818608E-02  0.8278038E-01
          2   -1    0    0  501    0  0.00000000000E+00  0.00000000000E+00  0.31116216005E+04  0.31116216005E+04  0.25500000000E-02 0.  1.
         -2   -1    0    0    0  501 -0.00000000000E+00 -0.00000000000E+00 -0.66766288274E+03  0.66766288275E+03  0.25500000000E-02 0. -1.
    -200001    2    1    2    0    0  0.53747265147E+03 -0.16248585543E+02 -0.33636713510E+03  0.88185084023E+03  0.61268033037E+03 0.  0.
   -5000001    2    3    3    0    0  0.61878839927E+03  0.10592869503E+03 -0.29828962553E+03  0.69966841664E+03  0.80244757141E+02 0.  0.
     200001    1    1    2    0    0 -0.53747265147E+03  0.16248585543E+02  0.27803258528E+04  0.28974336430E+04  0.61300000000E+03 0.  1.
         13    1    4    4    0    0  0.17314726408E+03  0.43625781497E+02 -0.11780733445E+03  0.21391999225E+03  0.10566000000E+00 0.  1.
    -200003    1    4    4    0    0  0.44564113519E+03  0.62302913537E+02 -0.18048229107E+03  0.48574842439E+03  0.30000000000E+02 0.  1.
    -200000    1    3    3    0    0 -0.81315747794E+02 -0.12217728058E+03 -0.38077509577E+02  0.18218242359E+03  0.10100000000E+03 0.  1.
<mgrwt>
<rscale>  0 0.28827169E+04</rscale>
<asrwt>0</asrwt>
<pdfrwt beam="1">  1        2 0.44451737E+00 0.28827169E+04</pdfrwt>
<pdfrwt beam="2">  1       -2 0.95380412E-01 0.28827169E+04</pdfrwt>
<totfact> 0.16374038E+00</totfact>
</mgrwt>
</event>
<event>
 8    2  0.4480234E-052  0.1759267E+04  0.7818608E-02  0.8728266E-01
          2   -1    0    0  501    0  0.00000000000E+00  0.00000000000E+00  0.15394217538E+04  0.15394217538E+04  0.25500000000E-02 0. -1.
         -2   -1    0    0    0  501 -0.00000000000E+00 -0.00000000000E+00 -0.50262728944E+03  0.50262728945E+03  0.25500000000E-02 0.  1.
    -200001    2    1    2    0    0  0.33359670438E+02  0.62354794127E+03  0.41433434825E+03  0.96820059080E+03  0.61303713527E+03 0.  0.
   -5000001    2    3    3    0    0 -0.62142250125E+02  0.43246006515E+03  0.13742428987E+02  0.50310911699E+03  0.24909147324E+03 0.  0.
     200001    1    1    2    0    0 -0.33359670438E+02 -0.62354794127E+03  0.62246011609E+03  0.10738484524E+04  0.61300000000E+03 0.  1.
         13    1    4    4    0    0 -0.75054497631E+02  0.12899857892E+03 -0.97483028386E+02  0.17826037969E+03  0.10566000000E+00 0.  1.
    -200003    1    4    4    0    0  0.12912247505E+02  0.30346148623E+03  0.11122545737E+03  0.32484873731E+03  0.30000000000E+02 0.  1.
    -200000    1    3    3    0    0  0.95501920564E+02  0.19108787611E+03  0.40059191927E+03  0.46509147381E+03  0.10100000000E+03 0.  1.
<mgrwt>
<rscale>  0 0.17592673E+04</rscale>
<asrwt>0</asrwt>
<pdfrwt beam="1">  1        2 0.21991739E+00 0.17592673E+04</pdfrwt>
<pdfrwt beam="2">  1       -2 0.71803899E-01 0.17592673E+04</pdfrwt>
<totfact> 0.23259767E+01</totfact>
</mgrwt>
</event>
<event>
 8    2  0.4480234E-052  0.2111842E+04  0.7818608E-02  0.8556045E-01
          2   -1    0    0  501    0  0.00000000000E+00  0.00000000000E+00  0.31769975723E+04  0.31769975723E+04  0.25500000000E-02 0.  1.
         -2   -1    0    0    0  501 -0.00000000000E+00 -0.00000000000E+00 -0.35095070964E+03  0.35095070965E+03  0.25500000000E-02 0. -1.
    -200001    2    1    2    0    0  0.16821570714E+01 -0.44252936842E+03  0.26446282713E+04  0.27504415123E+04  0.61240080654E+03 0.  0.
   -5000001    2    3    3    0    0 -0.12380257541E+03 -0.44044165655E+03  0.11319052220E+04  0.12291648115E+04  0.14255094438E+03 0.  0.
     200001    1    1    2    0    0 -0.16821570714E+01  0.44252936842E+03  0.18141859140E+03  0.77750676967E+03  0.61300000000E+03 0. -1.
         13    1    4    4    0    0 -0.37113625109E+01 -0.18379466048E+03  0.32446333229E+03  0.37292186393E+03  0.10566000000E+00 0.  1.
    -200003    1    4    4    0    0 -0.12009121290E+03 -0.25664699607E+03  0.80744188976E+03  0.85624294762E+03  0.30000000000E+02 0.  1.
    -200000    1    3    3    0    0  0.12548473248E+03 -0.20877118747E+01  0.15127230492E+04  0.15212767008E+04  0.10100000000E+03 0. -1.
<mgrwt>
<rscale>  0 0.21118424E+04</rscale>
<asrwt>0</asrwt>
<pdfrwt beam="1">  1        2 0.45385681E+00 0.21118424E+04</pdfrwt>
<pdfrwt beam="2">  1       -2 0.50135814E-01 0.21118424E+04</pdfrwt>
<totfact> 0.65138118E+00</totfact>
</mgrwt>
</event>
<event>
 8    2  0.4480234E-052  0.2245657E+04  0.7818608E-02  0.8499661E-01
         -2   -1    0    0    0  501 -0.00000000000E+00  0.00000000000E+00  0.61996409539E+03  0.61996409539E+03  0.25500000000E-02 0. -1.
          2   -1    0    0  501    0  0.00000000000E+00 -0.00000000000E+00 -0.20335764699E+04  0.20335764699E+04  0.25500000000E-02 0.  1.
    -200001    2    1    2    0    0 -0.64413182895E+03  0.29660146545E+03  0.23932241797E+02  0.93738737683E+03  0.61257170983E+03 0.  0.
   -5000001    2    3    3    0    0 -0.12173180441E+03  0.12806664561E+03 -0.24523911582E+03  0.31774232449E+03  0.97970724826E+02 0.  0.
     200001    1    1    2    0    0  0.64413182895E+03 -0.29660146545E+03 -0.14375446163E+04  0.17161531885E+04  0.61300000000E+03 0.  1.
         13    1    4    4    0    0  0.64184367241E+01 -0.55130581142E+01 -0.35059138415E+02  0.36065835498E+02  0.10566000000E+00 0.  1.
    -200003    1    4    4    0    0 -0.12815024114E+03  0.13357970373E+03 -0.21017997740E+03  0.28167648899E+03  0.30000000000E+02 0.  1.
    -200000    1    3    3    0    0 -0.52240002453E+03  0.16853481984E+03  0.26917135761E+03  0.61964505234E+03  0.10100000000E+03 0. -1.
<mgrwt>
<rscale>  0 0.22456575E+04</rscale>
<asrwt>0</asrwt>
<pdfrwt beam="1">  1        2 0.29051092E+00 0.22456575E+04</pdfrwt>
<pdfrwt beam="2">  1       -2 0.88566301E-01 0.22456575E+04</pdfrwt>
<totfact> 0.77362747E+00</totfact>
</mgrwt>
</event>
<event>
 8    2  0.4480234E-052  0.1436733E+04  0.7818608E-02  0.8927650E-01
         -2   -1    0    0    0  501 -0.00000000000E+00  0.00000000000E+00  0.21884609274E+04  0.21884609274E+04  0.25500000000E-02 0. -1.
          2   -1    0    0  501    0  0.00000000000E+00 -0.00000000000E+00 -0.23580532274E+03  0.23580532276E+03  0.25500000000E-02 0.  1.
    -200001    2    1    2    0    0  0.34747643559E+03  0.82586095614E+01  0.74410075558E+03  0.10252730761E+04  0.61375147097E+03 0.  0.
   -5000001    2    3    3    0    0  0.22651853859E+03 -0.28326629663E+03  0.41998941551E+03  0.56173586662E+03  0.87210272204E+02 0.  0.
     200001    1    1    2    0    0 -0.34747643559E+03 -0.82586095614E+01  0.12085548490E+04  0.13989931741E+04  0.61300000000E+03 0. -1.
         13    1    4    4    0    0  0.15022444731E+03 -0.16858064780E+03  0.20705021557E+03  0.30636028188E+03  0.10566000000E+00 0.  1.
    -200003    1    4    4    0    0  0.76294091283E+02 -0.11468564883E+03  0.21293919993E+03  0.25537558474E+03  0.30000000000E+02 0.  1.
    -200000    1    3    3    0    0  0.12095789700E+03  0.29152490619E+03  0.32411134007E+03  0.46353720944E+03  0.10100000000E+03 0.  1.
<mgrwt>
<rscale>  0 0.14367334E+04</rscale>
<asrwt>0</asrwt>
<pdfrwt beam="1">  1        2 0.33686473E-01 0.14367334E+04</pdfrwt>
<pdfrwt beam="2">  1       -2 0.31263729E+00 0.14367334E+04</pdfrwt>
<totfact> 0.40600216E+00</totfact>
</mgrwt>
</event>
<event>
 8    2  0.4480234E-052  0.1560583E+04  0.7818608E-02  0.8845136E-01
          2   -1    0    0  501    0  0.00000000000E+00  0.00000000000E+00  0.22093722305E+04  0.22093722305E+04  0.25500000000E-02 0.  1.
         -2   -1    0    0    0  501 -0.00000000000E+00 -0.00000000000E+00 -0.27557825877E+03  0.27557825878E+03  0.25500000000E-02 0. -1.
    -200001    2    1    2    0    0  0.31573438265E+03 -0.36061141410E+03  0.90515896447E+03  0.11951490431E+04  0.61590558685E+03 0.  0.
   -5000001    2    3    3    0    0  0.14671750317E+03 -0.17170099348E+03  0.87888623824E+03  0.92102296132E+03  0.15759130252E+03 0.  0.
     200001    1    1    2    0    0 -0.31573438265E+03  0.36061141410E+03  0.10286350072E+04  0.12898014461E+04  0.61300000000E+03 0.  1.
         13    1    4    4    0    0 -0.31263274982E+02 -0.38269907812E+02  0.19899158146E+03  0.20503570143E+03  0.10566000000E+00 0.  1.
    -200003    1    4    4    0    0  0.17798077815E+03 -0.13343108566E+03  0.67989465678E+03  0.71598725989E+03  0.30000000000E+02 0.  1.
    -200000    1    3    3    0    0  0.16901687948E+03 -0.18891042063E+03  0.26272726237E+02  0.27412608178E+03  0.10100000000E+03 0. -1.
<mgrwt>
<rscale>  0 0.15605832E+04</rscale>
<asrwt>0</asrwt>
<pdfrwt beam="1">  1        2 0.31562460E+00 0.15605832E+04</pdfrwt>
<pdfrwt beam="2">  1       -2 0.39368323E-01 0.15605832E+04</pdfrwt>
<totfact> 0.36776565E+01</totfact>
</mgrwt>
</event>
<event>
 8    2  0.4480234E-052  0.2028770E+04  0.7818608E-02  0.8593287E-01
         -2   -1    0    0    0  501 -0.00000000000E+00  0.00000000000E+00  0.46506383210E+03  0.46506383211E+03  0.25500000000E-02 0. -1.
          2   -1    0    0  501    0  0.00000000000E+00 -0.00000000000E+00 -0.22125487966E+04  0.22125487966E+04  0.25500000000E-02 0.  1.
    -200001    2    1    2    0    0  0.50601805009E+03  0.11992059722E+02 -0.17042395582E+04  0.18814736699E+04  0.61588361117E+03 0.  0.
   -5000001    2    3    3    0    0  0.48711525686E+03 -0.80571174536E+02 -0.16632004075E+04  0.17372152913E+04  0.88929101153E+02 0.  0.
     200001    1    1    2    0    0 -0.50601805009E+03 -0.11992059722E+02 -0.43245406331E+02  0.79613895878E+03  0.61300000000E+03 0. -1.
         13    1    4    4    0    0  0.25663643917E+03 -0.46795033648E+01 -0.81301474828E+03  0.85257090716E+03  0.10566000000E+00 0.  1.
    -200003    1    4    4    0    0  0.23047881769E+03 -0.75891671171E+02 -0.85018565925E+03  0.88464438411E+03  0.30000000000E+02 0.  1.
    -200000    1    3    3    0    0  0.18902793229E+02  0.92563234258E+02 -0.41039150656E+02  0.14425837866E+03  0.10100000000E+03 0. -1.
<mgrwt>
<rscale>  0 0.20287695E+04</rscale>
<asrwt>0</asrwt>
<pdfrwt beam="1">  1        2 0.31607839E+00 0.20287695E+04</pdfrwt>
<pdfrwt beam="2">  1       -2 0.66437691E-01 0.20287695E+04</pdfrwt>
<totfact> 0.12071518E+01</totfact>
</mgrwt>
</event>
<event>
 8    2  0.4480234E-052  0.1841170E+04  0.7818608E-02  0.8684707E-01
          2   -1    0    0  501    0  0.00000000000E+00  0.00000000000E+00  0.12000176822E+04  0.12000176823E+04  0.25500000000E-02 0.  1.
         -2   -1    0    0    0  501 -0.00000000000E+00 -0.00000000000E+00 -0.70622032402E+03  0.70622032403E+03  0.25500000000E-02 0. -1.
    -200001    2    1    2    0    0  0.40875224437E+03 -0.31577152742E+03 -0.22162816026E+03  0.83181130924E+03  0.61318916979E+03 0.  0.
   -5000001    2    3    3    0    0  0.34497571979E+03 -0.40547898863E+03 -0.33749163756E+03  0.64276047201E+03  0.12577345306E+03 0.  0.
     200001    1    1    2    0    0 -0.40875224437E+03  0.31577152742E+03  0.71542551849E+03  0.10744266970E+04  0.61300000000E+03 0.  1.
         13    1    4    4    0    0  0.22516221892E+03 -0.18772900000E+03 -0.21822135305E+03  0.36545967269E+03  0.10566000000E+00 0.  1.
    -200003    1    4    4    0    0  0.11981350087E+03 -0.21774998863E+03 -0.11927028451E+03  0.27730079933E+03  0.30000000000E+02 0.  1.
    -200000    1    3    3    0    0  0.63776524584E+02  0.89707461209E+02  0.11586347730E+03  0.18905083723E+03  0.10100000000E+03 0.  1.
<mgrwt>
<rscale>  0 0.18411701E+04</rscale>
<asrwt>0</asrwt>
<pdfrwt beam="1">  1        2 0.17143110E+00 0.18411701E+04</pdfrwt>
<pdfrwt beam="2">  1       -2 0.10088862E+00 0.18411701E+04</pdfrwt>
<totfact> 0.16321194E+01</totfact>
</mgrwt>
</event>
<event>
 8    2  0.4480234E-052  0.1279300E+04  0.7818608E-02  0.9046143E-01
         -2   -1    0    0    0  501 -0.00000000000E+00  0.00000000000E+00  0.38495517412E+03  0.38495517413E+03  0.25500000000E-02 0. -1.
          2   -1    0    0  501    0  0.00000000000E+00 -0.00000000000E+00 -0.10628566883E+04  0.10628566883E+04  0.25500000000E-02 0.  1.
    -200001    2    1    2    0    0 -0.87094680042E+02  0.15232049933E+03 -0.39738016897E+03  0.75121424334E+03  0.61288238912E+03 0.  0.
   -5000001    2    3    3    0    0  0.76569267880E+02  0.84788681361E+02 -0.37602830130E+03  0.54626708785E+03  0.37941860078E+03 0.  0.
     200001    1    1    2    0    0  0.87094680042E+02 -0.15232049933E+03 -0.28052134519E+03  0.69659761908E+03  0.61300000000E+03 0. -1.
         13    1    4    4    0    0  0.22001921884E+03  0.28862307591E+02 -0.29665462276E+03  0.37046655157E+03  0.10566000000E+00 0.  1.
    -200003    1    4    4    0    0 -0.14344995096E+03  0.55926373770E+02 -0.79373678542E+02  0.17580053629E+03  0.30000000000E+02 0.  1.
    -200000    1    3    3    0    0 -0.16366394792E+03  0.67531817966E+02 -0.21351867670E+02  0.20494715548E+03  0.10100000000E+03 0. -1.
<mgrwt>
<rscale>  0 0.12793001E+04</rscale>
<asrwt>0</asrwt>
<pdfrwt beam="1">  1        2 0.15183667E+00 0.12793001E+04</pdfrwt>
<pdfrwt beam="2">  1       -2 0.54993597E-01 0.12793001E+04</pdfrwt>
<totfact> 0.78528758E+01</totfact>
</mgrwt>
</event>
<event>
 8    2  0.4480234E-052  0.1617793E+04  0.7818608E-02  0.8809691E-01
          2   -1    0    0  501    0  0.00000000000E+00  0.00000000000E+00  0.26583531208E+03  0.26583531210E+03  0.25500000000E-02 0.  1.
         -2   -1    0    0    0  501 -0.00000000000E+00 -0.00000000000E+00 -0.24613497090E+04  0.24613497090E+04  0.25500000000E-02 0. -1.
    -200001    2    1    2    0    0 -0.45207206019E+03  0.12017906011E+03 -0.15104376444E+04  0.16957242555E+04  0.61257384780E+03 0.  0.
   -5000001    2    3    3    0    0 -0.46138356954E+03 -0.71825295448E+02 -0.13286373191E+04  0.14125198505E+04  0.10909413798E+03 0.  0.
     200001    1    1    2    0    0  0.45207206019E+03 -0.12017906011E+03 -0.68507675250E+03  0.10314607656E+04  0.61300000000E+03 0.  1.
         13    1    4    4    0    0 -0.28265559617E+03 -0.40649508918E+01 -0.86890893958E+03  0.91373599377E+03  0.10566000000E+00 0.  1.
    -200003    1    4    4    0    0 -0.17872797337E+03 -0.67760344556E+02 -0.45972837956E+03  0.49878385672E+03  0.30000000000E+02 0.  1.
    -200000    1    3    3    0    0  0.93115093469E+01  0.19200435556E+03 -0.18180032531E+03  0.28320440505E+03  0.10100000000E+03 0.  1.
<mgrwt>
<rscale>  0 0.16177931E+04</rscale>
<asrwt>0</asrwt>
<pdfrwt beam="1">  1        2 0.37976475E-01 0.16177931E+04</pdfrwt>
<pdfrwt beam="2">  1       -2 0.35162137E+00 0.16177931E+04</pdfrwt>
<totfact> 0.20023685E+00</totfact>
</mgrwt>
</event>
<event>
 8    2  0.4480234E-052  0.2201389E+04  0.7818608E-02  0.8517850E-01
          2   -1    0    0  501    0  0.00000000000E+00  0.00000000000E+00  0.12398300695E+04  0.12398300695E+04  0.25500000000E-02 0.  1.
         -2   -1    0    0    0  501 -0.00000000000E+00 -0.00000000000E+00 -0.97717268598E+03  0.97717268598E+03  0.25500000000E-02 0. -1.
    -200001    2    1    2    0    0 -0.17431028733E+03 -0.27857768026E+03 -0.72802266079E+03  0.10065460027E+04  0.61247715115E+03 0.  0.
   -5000001    2    3    3    0    0 -0.20312719072E+03  0.77246798732E+02 -0.54774146986E+03  0.59406111620E+03  0.75234091025E+02 0.  0.
     200001    1    1    2    0    0  0.17431028733E+03  0.27857768026E+03  0.99068004435E+03  0.12104567528E+04  0.61300000000E+03 0.  1.
         13    1    4    4    0    0 -0.14956741311E+03  0.67329179285E+02 -0.34516830647E+03  0.38215808300E+03  0.10566000000E+00 0.  1.
    -200003    1    4    4    0    0 -0.53559777611E+02  0.99176194465E+01 -0.20257316339E+03  0.21190303320E+03  0.30000000000E+02 0.  1.
    -200000    1    3    3    0    0  0.28816903394E+02 -0.35582447899E+03 -0.18028119094E+03  0.41248488649E+03  0.10100000000E+03 0. -1.
<mgrwt>
<rscale>  0 0.22013887E+04</rscale>
<asrwt>0</asrwt>
<pdfrwt beam="1">  1        2 0.17711858E+00 0.22013887E+04</pdfrwt>
<pdfrwt beam="2">  1       -2 0.13959610E+00 0.22013887E+04</pdfrwt>
<totfact> 0.67421130E+00</totfact>
</mgrwt>
</event>
<event>
 8    2  0.4480234E-052  0.2116353E+04  0.7818608E-02  0.8554074E-01
         -2   -1    0    0    0  501 -0.00000000000E+00  0.00000000000E+00  0.52453192462E+03  0.52453192462E+03  0.25500000000E-02 0. -1.
          2   -1    0    0  501    0  0.00000000000E+00 -0.00000000000E+00 -0.21347368536E+04  0.21347368536E+04  0.25500000000E-02 0.  1.
    -200001    2    1    2    0    0 -0.34886458954E+03 -0.18209211648E+02  0.18569269210E+03  0.72974672791E+03  0.61319689642E+03 0.  0.
   -5000001    2    3    3    0    0  0.12311428208E+02 -0.18290068530E+03  0.23861995465E+03  0.31674104707E+03  0.98899829091E+02 0.  0.
     200001    1    1    2    0    0  0.34886458954E+03  0.18209211648E+02 -0.17958976210E+04  0.19295220503E+04  0.61300000000E+03 0.  1.
         13    1    4    4    0    0  0.42658876177E+02 -0.14426749927E+03  0.17986894332E+03  0.23449038146E+03  0.10566000000E+00 0.  1.
    -200003    1    4    4    0    0 -0.30347447969E+02 -0.38633186039E+02  0.58751011323E+02  0.82250665609E+02  0.30000000000E+02 0.  1.
    -200000    1    3    3    0    0 -0.36117601774E+03  0.16469147366E+03 -0.52927262546E+02  0.41300568084E+03  0.10100000000E+03 0.  1.
<mgrwt>
<rscale>  0 0.21163531E+04</rscale>
<asrwt>0</asrwt>
<pdfrwt beam="1">  1        2 0.30496240E+00 0.21163531E+04</pdfrwt>
<pdfrwt beam="2">  1       -2 0.74933133E-01 0.21163531E+04</pdfrwt>
<totfact> 0.10107464E+01</totfact>
</mgrwt>
</event>
<event>
 8    2  0.4480234E-052  0.1633352E+04  0.7818608E-02  0.8800317E-01
         -2   -1    0    0    0  501 -0.00000000000E+00  0.00000000000E+00  0.27039553905E+03  0.27039553906E+03  0.25500000000E-02 0. -1.
          2   -1    0    0  501    0  0.00000000000E+00 -0.00000000000E+00 -0.24666075574E+04  0.24666075574E+04  0.25500000000E-02 0.  1.
    -200001    2    1    2    0    0  0.13578964187E+03 -0.21372892442E+03 -0.18965063531E+04  0.20091903694E+04  0.61318081573E+03 0.  0.
   -5000001    2    3    3    0    0 -0.28175842923E+01 -0.36766347084E+03 -0.15441201598E+04  0.15881383096E+04  0.51883100060E+02 0.  0.
     200001    1    1    2    0    0 -0.13578964187E+03  0.21372892442E+03 -0.29970566517E+03  0.72781272709E+03  0.61300000000E+03 0. -1.
         13    1    4    4    0    0 -0.72308668392E+01 -0.19696013447E+03 -0.76772283667E+03  0.79261841079E+03  0.10566000000E+00 0.  1.
    -200003    1    4    4    0    0  0.44132825469E+01 -0.17070333637E+03 -0.77639732312E+03  0.79551989884E+03  0.30000000000E+02 0. -1.
    -200000    1    3    3    0    0  0.13860722616E+03  0.15393454642E+03 -0.35238619336E+03  0.42105205972E+03  0.10100000000E+03 0.  1.
<mgrwt>
<rscale>  0 0.16333520E+04</rscale>
<asrwt>0</asrwt>
<pdfrwt beam="1">  1        2 0.35237250E+00 0.16333520E+04</pdfrwt>
<pdfrwt beam="2">  1       -2 0.38627936E-01 0.16333520E+04</pdfrwt>
<totfact> 0.27882489E+01</totfact>
</mgrwt>
</event>
<event>
 8    2  0.4480234E-052  0.1427488E+04  0.7818608E-02  0.8934158E-01
          2   -1    0    0  501    0  0.00000000000E+00  0.00000000000E+00  0.30323159989E+04  0.30323159989E+04  0.25500000000E-02 0.  1.
         -2   -1    0    0    0  501 -0.00000000000E+00 -0.00000000000E+00 -0.16800057668E+03  0.16800057669E+03  0.25500000000E-02 0. -1.
    -200001    2    1    2    0    0 -0.22060863957E+02 -0.35017488429E+03  0.16674787478E+04  0.18106057580E+04  0.61212638010E+03 0.  0.
   -5000001    2    3    3    0    0  0.32053700392E+02 -0.13860950267E+03  0.48005996197E+02  0.17335767357E+03  0.86650293559E+02 0.  0.
     200001    1    1    2    0    0  0.22060863957E+02  0.35017488429E+03  0.11968366744E+04  0.13897108176E+04  0.61300000000E+03 0. -1.
         13    1    4    4    0    0  0.50647610940E+02 -0.74573078379E+02  0.43518796022E+02  0.10010105536E+03  0.10566000000E+00 0.  1.
    -200003    1    4    4    0    0 -0.18593910548E+02 -0.64036424294E+02  0.44872001744E+01  0.73256618208E+02  0.30000000000E+02 0.  1.
    -200000    1    3    3    0    0 -0.54114564349E+02 -0.21156538161E+03  0.16194727516E+04  0.16372480844E+04  0.10100000000E+03 0.  1.
<mgrwt>
<rscale>  0 0.14274885E+04</rscale>
<asrwt>0</asrwt>
<pdfrwt beam="1">  1        2 0.43318796E+00 0.14274885E+04</pdfrwt>
<pdfrwt beam="2">  1       -2 0.24000085E-01 0.14274885E+04</pdfrwt>
<totfact> 0.34195991E+01</totfact>
</mgrwt>
</event>
<event>
 8    2  0.4480234E-052  0.1406902E+04  0.7818608E-02  0.8948837E-01
         -2   -1    0    0    0  501 -0.00000000000E+00  0.00000000000E+00  0.92795040610E+03  0.92795040611E+03  0.25500000000E-02 0. -1.
          2   -1    0    0  501    0  0.00000000000E+00 -0.00000000000E+00 -0.53326507279E+03  0.53326507280E+03  0.25500000000E-02 0.  1.
    -200001    2    1    2    0    0 -0.15654140518E+03  0.93517887372E+02 -0.10666757354E+03  0.64858115524E+03  0.61321182058E+03 0.  0.
   -5000001    2    3    3    0    0 -0.23496790056E+03 -0.13069055804E+03 -0.22810594713E+03  0.36332965086E+03  0.87670837929E+02 0.  0.
     200001    1    1    2    0    0  0.15654140518E+03 -0.93517887372E+02  0.50135290685E+03  0.81263432366E+03  0.61300000000E+03 0. -1.
         13    1    4    4    0    0 -0.44942625634E+02 -0.45863488235E+01 -0.73162551930E+02  0.85986303347E+02  0.10566000000E+00 0.  1.
    -200003    1    4    4    0    0 -0.19002527493E+03 -0.12610420922E+03 -0.15494339520E+03  0.27734334751E+03  0.30000000000E+02 0.  1.
    -200000    1    3    3    0    0  0.78426495384E+02  0.22420844541E+03  0.12143837359E+03  0.28525150438E+03  0.10100000000E+03 0.  1.
<mgrwt>
<rscale>  0 0.14069023E+04</rscale>
<asrwt>0</asrwt>
<pdfrwt beam="1">  1        2 0.76180725E-01 0.14069023E+04</pdfrwt>
<pdfrwt beam="2">  1       -2 0.13256434E+00 0.14069023E+04</pdfrwt>
<totfact> 0.25089067E+01</totfact>
</mgrwt>
</event>
<event>
 8    2  0.4480234E-052  0.2618300E+04  0.7818608E-02  0.8362012E-01
          2   -1    0    0  501    0  0.00000000000E+00  0.00000000000E+00  0.18645754352E+04  0.18645754352E+04  0.25500000000E-02 0.  1.
         -2   -1    0    0    0  501 -0.00000000000E+00 -0.00000000000E+00 -0.91917624862E+03  0.91917624862E+03  0.25500000000E-02 0. -1.
    -200001    2    1    2    0    0 -0.45029977734E+03 -0.12771688036E+03  0.15974159396E+04  0.17738129049E+04  0.61285646484E+03 0.  0.
   -5000001    2    3    3    0    0 -0.31538277856E+03 -0.30296206684E+03  0.13726502869E+04  0.14427025448E+04  0.77262614557E+02 0.  0.
     200001    1    1    2    0    0  0.45029977734E+03  0.12771688036E+03 -0.65201675300E+03  0.10099387789E+04  0.61300000000E+03 0. -1.
         13    1    4    4    0    0 -0.10969068671E+02 -0.31704445493E+02  0.14238679205E+03  0.14628568640E+03  0.10566000000E+00 0.  1.
    -200003    1    4    4    0    0 -0.30441370989E+03 -0.27125762135E+03  0.12302634949E+04  0.12964168584E+04  0.30000000000E+02 0.  1.
    -200000    1    3    3    0    0 -0.13491699878E+03  0.17524518648E+03  0.22476565268E+03  0.33111036011E+03  0.10100000000E+03 0.  1.
<mgrwt>
<rscale>  0 0.26182998E+04</rscale>
<asrwt>0</asrwt>
<pdfrwt beam="1">  1        2 0.26636792E+00 0.26182998E+04</pdfrwt>
<pdfrwt beam="2">  1       -2 0.13131089E+00 0.26182998E+04</pdfrwt>
<totfact> 0.35475235E+00</totfact>
</mgrwt>
</event>
<event>
 8    2  0.4480234E-052  0.1394633E+04  0.7818608E-02  0.8957713E-01
         -2   -1    0    0    0  501 -0.00000000000E+00  0.00000000000E+00  0.19840188712E+03  0.19840188714E+03  0.25500000000E-02 0. -1.
          2   -1    0    0  501    0  0.00000000000E+00 -0.00000000000E+00 -0.24508337432E+04  0.24508337432E+04  0.25500000000E-02 0.  1.
    -200001    2    1    2    0    0 -0.13419089859E+03  0.25390347094E+03 -0.81497926884E+03  0.10603639834E+04  0.61457822844E+03 0.  0.
   -5000001    2    3    3    0    0 -0.26854302328E+02  0.41273090891E+03 -0.69920659957E+03  0.81469833483E+03  0.61445513776E+02 0.  0.
     200001    1    1    2    0    0  0.13419089859E+03 -0.25390347094E+03 -0.14374525872E+04  0.15888716469E+04  0.61300000000E+03 0. -1.
         13    1    4    4    0    0  0.12172151898E+02  0.86162107023E+02 -0.12532525203E+03  0.15257293315E+03  0.10566000000E+00 0.  1.
    -200003    1    4    4    0    0 -0.39026454226E+02  0.32656880189E+03 -0.57388134754E+03  0.66212540168E+03  0.30000000000E+02 0.  1.
    -200000    1    3    3    0    0 -0.10733659626E+03 -0.15882743797E+03 -0.11577266926E+03  0.24566564859E+03  0.10100000000E+03 0.  1.
<mgrwt>
<rscale>  0 0.13946326E+04</rscale>
<asrwt>0</asrwt>
<pdfrwt beam="1">  1        2 0.35011909E+00 0.13946326E+04</pdfrwt>
<pdfrwt beam="2">  1       -2 0.28343128E-01 0.13946326E+04</pdfrwt>
<totfact> 0.52080278E+01</totfact>
</mgrwt>
</event>
<event>
 8    2  0.4480234E-052  0.1369652E+04  0.7818608E-02  0.8976084E-01
          2   -1    0    0  501    0  0.00000000000E+00  0.00000000000E+00  0.11249937025E+04  0.11249937025E+04  0.25500000000E-02 0.  1.
         -2   -1    0    0    0  501 -0.00000000000E+00 -0.00000000000E+00 -0.41687939655E+03  0.41687939656E+03  0.25500000000E-02 0. -1.
    -200001    2    1    2    0    0 -0.19647724710E+03  0.97801678646E+02  0.11496960953E+03  0.66110178489E+03  0.61291849531E+03 0.  0.
   -5000001    2    3    3    0    0  0.16058551208E+02  0.17048883663E+03  0.19540110292E+03  0.40201663745E+03  0.30677592031E+03 0.  0.
     200001    1    1    2    0    0  0.19647724710E+03 -0.97801678646E+02  0.59314469640E+03  0.88077131416E+03  0.61300000000E+03 0. -1.
         13    1    4    4    0    0  0.47269610940E+01  0.22934005454E+03  0.40095398513E+02  0.23286660757E+03  0.10566000000E+00 0.  1.
    -200003    1    4    4    0    0  0.11331590114E+02 -0.58851217912E+02  0.15530570441E+03  0.16915002987E+03  0.30000000000E+02 0.  1.
    -200000    1    3    3    0    0 -0.21253579831E+03 -0.72687157980E+02 -0.80431493388E+02  0.25908514744E+03  0.10100000000E+03 0.  1.
<mgrwt>
<rscale>  0 0.13696521E+04</rscale>
<asrwt>0</asrwt>
<pdfrwt beam="1">  1        2 0.16071339E+00 0.13696521E+04</pdfrwt>
<pdfrwt beam="2">  1       -2 0.59554200E-01 0.13696521E+04</pdfrwt>
<totfact> 0.60679316E+01</totfact>
</mgrwt>
</event>
<event>
 8    2  0.4480234E-052  0.1791053E+04  0.7818608E-02  0.8711072E-01
         -2   -1    0    0    0  501 -0.00000000000E+00  0.00000000000E+00  0.72846424180E+03  0.72846424180E+03  0.25500000000E-02 0. -1.
          2   -1    0    0  501    0  0.00000000000E+00 -0.00000000000E+00 -0.11009021924E+04  0.11009021924E+04  0.25500000000E-02 0.  1.
    -200001    2    1    2    0    0  0.30386596807E+03  0.52411508706E+03  0.61189929591E+02  0.86456941437E+03  0.61376291330E+03 0.  0.
   -5000001    2    3    3    0    0  0.38027109674E+03  0.39738589688E+03  0.24574686497E+03  0.60735298073E+03  0.77229939186E+02 0.  0.
     200001    1    1    2    0    0 -0.30386596807E+03 -0.52411508706E+03 -0.43362788021E+03  0.96479701986E+03  0.61300000000E+03 0. -1.
         13    1    4    4    0    0  0.24994630009E+03  0.29592664728E+03  0.16405620614E+03  0.42066635643E+03  0.10566000000E+00 0.  1.
    -200003    1    4    4    0    0  0.13032479666E+03  0.10145924960E+03  0.81690658836E+02  0.18668662431E+03  0.30000000000E+02 0.  1.
    -200000    1    3    3    0    0 -0.76405128677E+02  0.12672919018E+03 -0.18455693538E+03  0.25721643363E+03  0.10100000000E+03 0.  1.
<mgrwt>
<rscale>  0 0.17910532E+04</rscale>
<asrwt>0</asrwt>
<pdfrwt beam="1">  1        2 0.15727174E+00 0.17910532E+04</pdfrwt>
<pdfrwt beam="2">  1       -2 0.10406632E+00 0.17910532E+04</pdfrwt>
<totfact> 0.17370194E+01</totfact>
</mgrwt>
</event>
<event>
 8    2  0.4480234E-052  0.1469667E+04  0.7818608E-02  0.8904878E-01
          2   -1    0    0  501    0  0.00000000000E+00  0.00000000000E+00  0.41634181653E+03  0.41634181654E+03  0.25500000000E-02 0.  1.
         -2   -1    0    0    0  501 -0.00000000000E+00 -0.00000000000E+00 -0.12969645647E+04  0.12969645647E+04  0.25500000000E-02 0. -1.
    -200001    2    1    2    0    0  0.42762858969E+02  0.16804489506E+03 -0.12968478047E+02  0.63689536246E+03  0.61269876158E+03 0.  0.
   -5000001    2    3    3    0    0 -0.18399579662E+03  0.61185251964E+02  0.14938628844E+03  0.32162002025E+03  0.20862666660E+03 0.  0.
     200001    1    1    2    0    0 -0.42762858969E+02 -0.16804489506E+03 -0.86765427007E+03  0.10764110187E+04  0.61300000000E+03 0. -1.
         13    1    4    4    0    0 -0.14453106920E+03  0.12168323702E+03  0.50549082711E+02  0.19557929610E+03  0.10566000000E+00 0.  1.
    -200003    1    4    4    0    0 -0.39464727421E+02 -0.60497985055E+02  0.98837205732E+02  0.12604072415E+03  0.30000000000E+02 0.  1.
    -200000    1    3    3    0    0  0.22675865559E+03  0.10685964310E+03 -0.16235476649E+03  0.31527534222E+03  0.10100000000E+03 0.  1.
<mgrwt>
<rscale>  0 0.14696674E+04</rscale>
<asrwt>0</asrwt>
<pdfrwt beam="1">  1        2 0.59477403E-01 0.14696674E+04</pdfrwt>
<pdfrwt beam="2">  1       -2 0.18528065E+00 0.14696674E+04</pdfrwt>
<totfact> 0.13366000E+01</totfact>
</mgrwt>
</event>
<event>
 8    2  0.4480234E-052  0.1448302E+04  0.7818608E-02  0.8919579E-01
          2   -1    0    0  501    0  0.00000000000E+00  0.00000000000E+00  0.17375128508E+04  0.17375128508E+04  0.25500000000E-02 0.  1.
         -2   -1    0    0    0  501 -0.00000000000E+00 -0.00000000000E+00 -0.30180759122E+03  0.30180759123E+03  0.25500000000E-02 0. -1.
    -200001    2    1    2    0    0  0.17526014418E+03 -0.27779843275E+03  0.42840789414E+03  0.81526771857E+03  0.61093374584E+03 0.  0.
   -5000001    2    3    3    0    0  0.29884372065E+03 -0.24236718402E+02  0.34281433082E+03  0.50366909625E+03  0.21509510735E+03 0.  0.
     200001    1    1    2    0    0 -0.17526014418E+03  0.27779843275E+03  0.10072973654E+04  0.12240527234E+04  0.61300000000E+03 0.  1.
         13    1    4    4    0    0  0.14793823845E+03 -0.10071719479E+03  0.96438375138E+02  0.20329792691E+03  0.10566000000E+00 0.  1.
    -200003    1    4    4    0    0  0.15090548220E+03  0.76480476392E+02  0.24637595568E+03  0.30037116933E+03  0.30000000000E+02 0.  1.
    -200000    1    3    3    0    0 -0.12358357647E+03 -0.25356171435E+03  0.85593563315E+02  0.31159862233E+03  0.10100000000E+03 0.  1.
<mgrwt>
<rscale>  0 0.14483019E+04</rscale>
<asrwt>0</asrwt>
<pdfrwt beam="1">  1        2 0.24821612E+00 0.14483019E+04</pdfrwt>
<pdfrwt beam="2">  1       -2 0.43115371E-01 0.14483019E+04</pdfrwt>
<totfact> 0.54298480E+01</totfact>
</mgrwt>
</event>
<event>
 8    2  0.4480234E-052  0.1609245E+04  0.7818608E-02  0.8814888E-01
         -2   -1    0    0    0  501 -0.00000000000E+00  0.00000000000E+00  0.19344794159E+03  0.19344794160E+03  0.25500000000E-02 0. -1.
          2   -1    0    0  501    0  0.00000000000E+00 -0.00000000000E+00 -0.33467282679E+04  0.33467282679E+04  0.25500000000E-02 0.  1.
    -200001    2    1    2    0    0 -0.90442590950E+02  0.18871688059E+03 -0.26271789160E+04  0.27057029521E+04  0.61234425411E+03 0.  0.
   -5000001    2    3    3    0    0 -0.27159830909E+03 -0.71806204796E+02 -0.15717568373E+04  0.15989932177E+04  0.86243736382E+02 0.  0.
     200001    1    1    2    0    0  0.90442590950E+02 -0.18871688059E+03 -0.52610141038E+03  0.83447325738E+03  0.61300000000E+03 0. -1.
         13    1    4    4    0    0 -0.52763200031E+02 -0.40110785671E+02 -0.48990497994E+03  0.49436801164E+03  0.10566000000E+00 0.  1.
    -200003    1    4    4    0    0 -0.21883510906E+03 -0.31695419125E+02 -0.10818518574E+04  0.11046252061E+04  0.30000000000E+02 0.  1.
    -200000    1    3    3    0    0  0.18115571814E+03  0.26052308538E+03 -0.10554220786E+04  0.11067097344E+04  0.10100000000E+03 0. -1.
<mgrwt>
<rscale>  0 0.16092454E+04</rscale>
<asrwt>0</asrwt>
<pdfrwt beam="1">  1        2 0.47810400E+00 0.16092454E+04</pdfrwt>
<pdfrwt beam="2">  1       -2 0.27635422E-01 0.16092454E+04</pdfrwt>
<totfact> 0.17171473E+01</totfact>
</mgrwt>
</event>
<event>
 8    2  0.4480234E-052  0.1271552E+04  0.7818608E-02  0.9052434E-01
         -2   -1    0    0    0  501 -0.00000000000E+00  0.00000000000E+00  0.32348420065E+03  0.32348420066E+03  0.25500000000E-02 0. -1.
          2   -1    0    0  501    0  0.00000000000E+00 -0.00000000000E+00 -0.12495536241E+04  0.12495536241E+04  0.25500000000E-02 0.  1.
    -200001    2    1    2    0    0 -0.12016355167E+03  0.67274474413E+02 -0.61230000877E+03  0.87076623938E+03  0.60362025218E+03 0.  0.
   -5000001    2    3    3    0    0  0.16001467009E+03 -0.28410221923E+02 -0.19655113929E+01  0.18493492210E+03  0.88233932394E+02 0.  0.
     200001    1    1    2    0    0  0.12016355167E+03 -0.67274474413E+02 -0.31376941470E+03  0.70227158540E+03  0.61300000000E+03 0.  1.
         13    1    4    4    0    0  0.72395866422E+02  0.51823839991E+01  0.33880667176E+02  0.80099496573E+02  0.10566000000E+00 0.  1.
    -200003    1    4    4    0    0  0.87618803666E+02 -0.33592605922E+02 -0.35846178568E+02  0.10483542553E+03  0.30000000000E+02 0.  1.
    -200000    1    3    3    0    0 -0.28017822176E+03  0.95684696335E+02 -0.61033449738E+03  0.68583131727E+03  0.10100000000E+03 0. -1.
<mgrwt>
<rscale>  0 0.12715516E+04</rscale>
<asrwt>0</asrwt>
<pdfrwt beam="1">  1        2 0.17850766E+00 0.12715516E+04</pdfrwt>
<pdfrwt beam="2">  1       -2 0.46212029E-01 0.12715516E+04</pdfrwt>
<totfact> 0.87348461E+01</totfact>
</mgrwt>
</event>
<event>
 8    2  0.4480234E-052  0.1666660E+04  0.7818608E-02  0.8780611E-01
         -2   -1    0    0    0  501 -0.00000000000E+00  0.00000000000E+00  0.10107149848E+04  0.10107149848E+04  0.25500000000E-02 0.  1.
          2   -1    0    0  501    0  0.00000000000E+00 -0.00000000000E+00 -0.68707691171E+03  0.68707691171E+03  0.25500000000E-02 0. -1.
    -200001    2    1    2    0    0 -0.16893449912E+03  0.17458384744E+03 -0.35751021926E+03  0.74976743429E+03  0.61263305809E+03 0.  0.
   -5000001    2    3    3    0    0 -0.31226611810E+03  0.28763547209E+03 -0.15344915117E+03  0.45793436155E+03  0.76895670704E+02 0.  0.
     200001    1    1    2    0    0  0.16893449912E+03 -0.17458384744E+03  0.68114829231E+03  0.94802446218E+03  0.61300000000E+03 0.  1.
         13    1    4    4    0    0 -0.22152791403E+03  0.23086292032E+03 -0.12180896325E+03  0.34235907957E+03  0.10566000000E+00 0.  1.
    -200003    1    4    4    0    0 -0.90738204067E+02  0.56772551774E+02 -0.31640187923E+02  0.11557528198E+03  0.30000000000E+02 0.  1.
    -200000    1    3    3    0    0  0.14333161898E+03 -0.11305162465E+03 -0.20406106809E+03  0.29183307274E+03  0.10100000000E+03 0.  1.
<mgrwt>
<rscale>  0 0.16666600E+04</rscale>
<asrwt>0</asrwt>
<pdfrwt beam="1">  1        2 0.98153844E-01 0.16666600E+04</pdfrwt>
<pdfrwt beam="2">  1       -2 0.14438786E+00 0.16666600E+04</pdfrwt>
<totfact> 0.14589876E+01</totfact>
</mgrwt>
</event>
<event>
 8    2  0.4480234E-052  0.1635039E+04  0.7818608E-02  0.8799307E-01
         -2   -1    0    0    0  501 -0.00000000000E+00  0.00000000000E+00  0.16889270325E+04  0.16889270325E+04  0.25500000000E-02 0. -1.
          2   -1    0    0  501    0  0.00000000000E+00 -0.00000000000E+00 -0.39571737969E+03  0.39571737970E+03  0.25500000000E-02 0.  1.
    -200001    2    1    2    0    0  0.17871568863E+03 -0.85933224429E+02  0.49437600331E+01  0.64425494163E+03  0.61295690928E+03 0.  0.
   -5000001    2    3    3    0    0  0.55535932271E+02  0.25255334386E+03  0.11946267439E+02  0.27009395436E+03  0.77075285301E+02 0.  0.
     200001    1    1    2    0    0 -0.17871568863E+03  0.85933224429E+02  0.12882658928E+04  0.14403894706E+04  0.61300000000E+03 0. -1.
         13    1    4    4    0    0  0.75764931830E+01 -0.16513771147E+01 -0.48214399651E+01  0.91316889292E+01  0.10566000000E+00 0.  1.
    -200003    1    4    4    0    0  0.47959439088E+02  0.25420472098E+03  0.16767707404E+02  0.26096226543E+03  0.30000000000E+02 0.  1.
    -200000    1    3    3    0    0  0.12317975635E+03 -0.33848656829E+03 -0.70025074058E+01  0.37416098728E+03  0.10100000000E+03 0.  1.
<mgrwt>
<rscale>  0 0.16350386E+04</rscale>
<asrwt>0</asrwt>
<pdfrwt beam="1">  1        2 0.56531054E-01 0.16350386E+04</pdfrwt>
<pdfrwt beam="2">  1       -2 0.24127529E+00 0.16350386E+04</pdfrwt>
<totfact> 0.61030457E+00</totfact>
</mgrwt>
</event>
<event>
 8    2  0.4480234E-052  0.1414193E+04  0.7818608E-02  0.8943608E-01
         -2   -1    0    0    0  501 -0.00000000000E+00  0.00000000000E+00  0.16657814648E+04  0.16657814648E+04  0.25500000000E-02 0. -1.
          2   -1    0    0  501    0  0.00000000000E+00 -0.00000000000E+00 -0.30015075405E+03  0.30015075406E+03  0.25500000000E-02 0.  1.
    -200001    2    1    2    0    0  0.17987598203E+03 -0.14378977033E+03  0.31762153551E+03  0.73016399694E+03  0.61581259782E+03 0.  0.
   -5000001    2    3    3    0    0  0.19520102869E+03 -0.34320085610E+03  0.30039349490E+03  0.50544763446E+03  0.96699483823E+02 0.  0.
     200001    1    1    2    0    0 -0.17987598203E+03  0.14378977033E+03  0.10480091753E+04  0.12357682220E+04  0.61300000000E+03 0. -1.
         13    1    4    4    0    0  0.63903639648E+01 -0.57218316406E+02  0.17817095415E+02  0.60268005916E+02  0.10566000000E+00 0.  1.
    -200003    1    4    4    0    0  0.18881066472E+03 -0.28598253969E+03  0.28257639948E+03  0.44517962854E+03  0.30000000000E+02 0.  1.
    -200000    1    3    3    0    0 -0.15325046658E+02  0.19941108577E+03  0.17228040613E+02  0.22471636248E+03  0.10100000000E+03 0.  1.
<mgrwt>
<rscale>  0 0.14141931E+04</rscale>
<asrwt>0</asrwt>
<pdfrwt beam="1">  1        2 0.42878681E-01 0.14141931E+04</pdfrwt>
<pdfrwt beam="2">  1       -2 0.23796877E+00 0.14141931E+04</pdfrwt>
<totfact> 0.88571245E+00</totfact>
</mgrwt>
</event>
<event>
 8    2  0.4480234E-052  0.1273405E+04  0.7818608E-02  0.9050925E-01
         -2   -1    0    0    0  501 -0.00000000000E+00  0.00000000000E+00  0.79618361096E+03  0.79618361096E+03  0.25500000000E-02 0. -1.
          2   -1    0    0  501    0  0.00000000000E+00 -0.00000000000E+00 -0.50916653291E+03  0.50916653292E+03  0.25500000000E-02 0.  1.
    -200001    2    1    2    0    0 -0.92673583543E+02  0.13286811491E+03  0.20622969113E+03  0.66618042391E+03  0.61239149459E+03 0.  0.
   -5000001    2    3    3    0    0  0.55848796823E+02  0.27417084914E+03 -0.77332089474E+02  0.30199140212E+03  0.83245493984E+02 0.  0.
     200001    1    1    2    0    0  0.92673583543E+02 -0.13286811491E+03  0.80787386915E+02  0.63916971997E+03  0.61300000000E+03 0. -1.
         13    1    4    4    0    0  0.18865265069E+02  0.10980785637E+03 -0.68183928887E+02  0.13062435787E+03  0.10566000000E+00 0.  1.
    -200003    1    4    4    0    0  0.36983531754E+02  0.16436299277E+03 -0.91481605866E+01  0.17136704425E+03  0.30000000000E+02 0.  1.
    -200000    1    3    3    0    0 -0.14852238037E+03 -0.14130273423E+03  0.28356178061E+03  0.36418902179E+03  0.10100000000E+03 0.  1.
<mgrwt>
<rscale>  0 0.12734050E+04</rscale>
<asrwt>0</asrwt>
<pdfrwt beam="1">  1        2 0.72738078E-01 0.12734050E+04</pdfrwt>
<pdfrwt beam="2">  1       -2 0.11374051E+00 0.12734050E+04</pdfrwt>
<totfact> 0.39155300E+01</totfact>
</mgrwt>
</event>
<event>
 8    2  0.4480234E-052  0.1310939E+04  0.7818608E-02  0.9020935E-01
         -2   -1    0    0    0  501 -0.00000000000E+00  0.00000000000E+00  0.28754734993E+03  0.28754734994E+03  0.25500000000E-02 0.  1.
          2   -1    0    0  501    0  0.00000000000E+00 -0.00000000000E+00 -0.14941541603E+04  0.14941541603E+04  0.25500000000E-02 0. -1.
    -200001    2    1    2    0    0  0.10800711722E+03 -0.51613460641E+02 -0.87463008581E+03  0.10743776577E+04  0.61235616898E+03 0.  0.
   -5000001    2    3    3    0    0 -0.78853491977E+02 -0.13703349307E+02  0.56115530843E+02  0.11894976052E+03  0.67782281944E+02 0.  0.
     200001    1    1    2    0    0 -0.10800711722E+03  0.51613460641E+02 -0.33197672451E+03  0.70732385249E+03  0.61300000000E+03 0.  1.
         13    1    4    4    0    0 -0.32303722511E+01 -0.20795173932E+02  0.22001821690E+02  0.30446114456E+02  0.10566000000E+00 0.  1.
    -200003    1    4    4    0    0 -0.75623119726E+02  0.70918246247E+01  0.34113709153E+02  0.88503646059E+02  0.30000000000E+02 0.  1.
    -200000    1    3    3    0    0  0.18686060920E+03 -0.37910111334E+02 -0.93074561665E+03  0.95542789719E+03  0.10100000000E+03 0. -1.
<mgrwt>
<rscale>  0 0.13109387E+04</rscale>
<asrwt>0</asrwt>
<pdfrwt beam="1">  1        2 0.21345059E+00 0.13109387E+04</pdfrwt>
<pdfrwt beam="2">  1       -2 0.41078194E-01 0.13109387E+04</pdfrwt>
<totfact> 0.80946565E+01</totfact>
</mgrwt>
</event>
<event>
 8    2  0.4480234E-052  0.1526933E+04  0.7818608E-02  0.8866737E-01
          2   -1    0    0  501    0  0.00000000000E+00  0.00000000000E+00  0.11031162093E+04  0.11031162093E+04  0.25500000000E-02 0.  1.
         -2   -1    0    0    0  501 -0.00000000000E+00 -0.00000000000E+00 -0.52839534925E+03  0.52839534926E+03  0.25500000000E-02 0. -1.
    -200001    2    1    2    0    0  0.40438979407E+03 -0.20722983867E+03  0.25878113084E+03  0.80564097302E+03  0.61287387949E+03 0.  0.
   -5000001    2    3    3    0    0  0.35116517412E+03 -0.31249029841E+03  0.34379098352E+03  0.62860905611E+03  0.23662193256E+03 0.  0.
     200001    1    1    2    0    0 -0.40438979407E+03  0.20722983867E+03  0.31593972922E+03  0.82587058555E+03  0.61300000000E+03 0. -1.
         13    1    4    4    0    0  0.37251250036E+03 -0.30592619523E+03  0.34224778026E+03  0.59117675369E+03  0.10566000000E+00 0.  1.
    -200003    1    4    4    0    0 -0.21347326239E+02 -0.65641031776E+01  0.15432032566E+01  0.37432302419E+02  0.30000000000E+02 0.  1.
    -200000    1    3    3    0    0  0.53224619949E+02  0.10526045974E+03 -0.85009852675E+02  0.17703191691E+03  0.10100000000E+03 0. -1.
<mgrwt>
<rscale>  0 0.15269335E+04</rscale>
<asrwt>0</asrwt>
<pdfrwt beam="1">  1        2 0.15758803E+00 0.15269335E+04</pdfrwt>
<pdfrwt beam="2">  1       -2 0.75485050E-01 0.15269335E+04</pdfrwt>
<totfact> 0.37002673E+01</totfact>
</mgrwt>
</event>
<event>
 8    2  0.4480234E-052  0.1969352E+04  0.7818608E-02  0.8621085E-01
         -2   -1    0    0    0  501 -0.00000000000E+00  0.00000000000E+00  0.40752601648E+03  0.40752601649E+03  0.25500000000E-02 0. -1.
          2   -1    0    0  501    0  0.00000000000E+00 -0.00000000000E+00 -0.23792015524E+04  0.23792015524E+04  0.25500000000E-02 0.  1.
    -200001    2    1    2    0    0  0.41270401530E+03 -0.58092356631E+03 -0.57753303645E+03  0.11052998711E+04  0.61672246813E+03 0.  0.
   -5000001    2    3    3    0    0  0.22195433294E+03 -0.66691585925E+03 -0.47821863913E+03  0.85262524774E+03  0.65086535090E+02 0.  0.
     200001    1    1    2    0    0 -0.41270401530E+03  0.58092356631E+03 -0.13941424995E+04  0.16814276978E+04  0.61300000000E+03 0.  1.
         13    1    4    4    0    0  0.14793354365E+03 -0.42792758820E+03 -0.33013152137E+03  0.56035094953E+03  0.10566000000E+00 0.  1.
    -200003    1    4    4    0    0  0.74020789287E+02 -0.23898827106E+03 -0.14808711776E+03  0.29227429821E+03  0.30000000000E+02 0. -1.
    -200000    1    3    3    0    0  0.19074968236E+03  0.85992292945E+02 -0.99314397320E+02  0.25267462334E+03  0.10100000000E+03 0.  1.
<mgrwt>
<rscale>  0 0.19693517E+04</rscale>
<asrwt>0</asrwt>
<pdfrwt beam="1">  1        2 0.33988593E+00 0.19693517E+04</pdfrwt>
<pdfrwt beam="2">  1       -2 0.58218004E-01 0.19693517E+04</pdfrwt>
<totfact> 0.13162709E+01</totfact>
</mgrwt>
</event>
<event>
 8    2  0.4480234E-052  0.1531258E+04  0.7818608E-02  0.8863929E-01
         -2   -1    0    0    0  501 -0.00000000000E+00  0.00000000000E+00  0.49879345911E+03  0.49879345912E+03  0.25500000000E-02 0. -1.
          2   -1    0    0  501    0  0.00000000000E+00 -0.00000000000E+00 -0.11752112413E+04  0.11752112413E+04  0.25500000000E-02 0.  1.
    -200001    2    1    2    0    0  0.34523926023E+03  0.33304541315E+02 -0.66340968766E+03  0.96956339707E+03  0.61615049134E+03 0.  0.
   -5000001    2    3    3    0    0  0.18867403202E+03 -0.20443059743E+03 -0.62866379262E+02  0.29734027032E+03  0.84079100766E+02 0.  0.
     200001    1    1    2    0    0 -0.34523926023E+03 -0.33304541315E+02 -0.13008094480E+02  0.70444130330E+03  0.61300000000E+03 0. -1.
         13    1    4    4    0    0  0.13331923627E+03 -0.12250268595E+03 -0.10140694833E+02  0.18133883114E+03  0.10566000000E+00 0.  1.
    -200003    1    4    4    0    0  0.55354795757E+02 -0.81927911473E+02 -0.52725684430E+02  0.11600143917E+03  0.30000000000E+02 0.  1.
    -200000    1    3    3    0    0  0.15656522821E+03  0.23773513874E+03 -0.60054330840E+03  0.67222312675E+03  0.10100000000E+03 0.  1.
<mgrwt>
<rscale>  0 0.15312579E+04</rscale>
<asrwt>0</asrwt>
<pdfrwt beam="1">  1        2 0.16788732E+00 0.15312579E+04</pdfrwt>
<pdfrwt beam="2">  1       -2 0.71256209E-01 0.15312579E+04</pdfrwt>
<totfact> 0.38132261E+01</totfact>
</mgrwt>
</event>
<event>
 8    2  0.4480234E-052  0.1251986E+04  0.7818608E-02  0.9068532E-01
         -2   -1    0    0    0  501 -0.00000000000E+00  0.00000000000E+00  0.56935068421E+03  0.56935068421E+03  0.25500000000E-02 0. -1.
          2   -1    0    0  501    0  0.00000000000E+00 -0.00000000000E+00 -0.68827091845E+03  0.68827091845E+03  0.25500000000E-02 0.  1.
    -200001    2    1    2    0    0 -0.54255528142E+02 -0.78511939219E+01 -0.17458048847E+03  0.63966337796E+03  0.61293195917E+03 0.  0.
   -5000001    2    3    3    0    0  0.48651895267E+02  0.21109588298E+03  0.10916072645E+03  0.25335024419E+03  0.73087641297E+02 0.  0.
     200001    1    1    2    0    0  0.54255528142E+02  0.78511939219E+01  0.55660254228E+02  0.61795822471E+03  0.61300000000E+03 0. -1.
         13    1    4    4    0    0  0.67025286350E+01  0.28812071804E+02 -0.79548422725E+01  0.30632499920E+02  0.10566000000E+00 0.  1.
    -200003    1    4    4    0    0  0.41949366632E+02  0.18228381117E+03  0.11711556872E+03  0.22271774427E+03  0.30000000000E+02 0.  1.
    -200000    1    3    3    0    0 -0.10290742341E+03 -0.21894707690E+03 -0.28374121492E+03  0.38631313376E+03  0.10100000000E+03 0. -1.
<mgrwt>
<rscale>  0 0.12519865E+04</rscale>
<asrwt>0</asrwt>
<pdfrwt beam="1">  1        2 0.98324416E-01 0.12519865E+04</pdfrwt>
<pdfrwt beam="2">  1       -2 0.81335813E-01 0.12519865E+04</pdfrwt>
<totfact> 0.60271092E+01</totfact>
</mgrwt>
</event>
<event>
 8    2  0.4480234E-052  0.1356437E+04  0.7818608E-02  0.8985970E-01
         -2   -1    0    0    0  501 -0.00000000000E+00  0.00000000000E+00  0.86051572822E+03  0.86051572823E+03  0.25500000000E-02 0. -1.
          2   -1    0    0  501    0  0.00000000000E+00 -0.00000000000E+00 -0.53454019545E+03  0.53454019546E+03  0.25500000000E-02 0.  1.
    -200001    2    1    2    0    0  0.18628342090E+03  0.22141004997E+03  0.11546589659E+03  0.68526212964E+03  0.61035062867E+03 0.  0.
   -5000001    2    3    3    0    0  0.22346301487E+03 -0.60818922737E+02 -0.14551020294E+03  0.28608166949E+03  0.83873965432E+02 0.  0.
     200001    1    1    2    0    0 -0.18628342090E+03 -0.22141004997E+03  0.21050963618E+03  0.70979379404E+03  0.61300000000E+03 0. -1.
         13    1    4    4    0    0  0.19052278204E+03 -0.32883013881E+02 -0.10771020768E+03  0.22131814901E+03  0.10566000000E+00 0.  1.
    -200003    1    4    4    0    0  0.32940232828E+02 -0.27935908856E+02 -0.37799995268E+02  0.64763520478E+02  0.30000000000E+02 0. -1.
    -200000    1    3    3    0    0 -0.37179593970E+02  0.28222897271E+03  0.26097609953E+03  0.39918046016E+03  0.10100000000E+03 0. -1.
<mgrwt>
<rscale>  0 0.13564369E+04</rscale>
<asrwt>0</asrwt>
<pdfrwt beam="1">  1        2 0.76362886E-01 0.13564369E+04</pdfrwt>
<pdfrwt beam="2">  1       -2 0.12293082E+00 0.13564369E+04</pdfrwt>
<totfact> 0.30378137E+01</totfact>
</mgrwt>
</event>
<event>
 8    2  0.4480234E-052  0.1410754E+04  0.7818608E-02  0.8946071E-01
         -2   -1    0    0    0  501 -0.00000000000E+00  0.00000000000E+00  0.23930358310E+03  0.23930358311E+03  0.25500000000E-02 0. -1.
          2   -1    0    0  501    0  0.00000000000E+00 -0.00000000000E+00 -0.20791864125E+04  0.20791864125E+04  0.25500000000E-02 0.  1.
    -200001    2    1    2    0    0 -0.22821341214E+03  0.14604681274E+03 -0.12818047170E+04  0.14463482569E+04  0.61277150270E+03 0.  0.
   -5000001    2    3    3    0    0  0.23250665890E+02  0.72160729236E+02 -0.98604556011E+03  0.10384661479E+04  0.31682539276E+03 0.  0.
     200001    1    1    2    0    0  0.22821341214E+03 -0.14604681274E+03 -0.55807811238E+03  0.87214173877E+03  0.61300000000E+03 0. -1.
         13    1    4    4    0    0 -0.85564141084E+02 -0.84607382151E+02 -0.52447659386E+03  0.53810346591E+03  0.10566000000E+00 0.  1.
    -200003    1    4    4    0    0  0.10881480697E+03  0.15676811139E+03 -0.46156896625E+03  0.50036268203E+03  0.30000000000E+02 0.  1.
    -200000    1    3    3    0    0 -0.25146407803E+03  0.73886083500E+02 -0.29575915694E+03  0.40788210894E+03  0.10100000000E+03 0.  1.
<mgrwt>
<rscale>  0 0.14107541E+04</rscale>
<asrwt>0</asrwt>
<pdfrwt beam="1">  1        2 0.29702662E+00 0.14107541E+04</pdfrwt>
<pdfrwt beam="2">  1       -2 0.34186227E-01 0.14107541E+04</pdfrwt>
<totfact> 0.56984239E+01</totfact>
</mgrwt>
</event>
<event>
 8    2  0.4480234E-052  0.1591403E+04  0.7818608E-02  0.8825847E-01
          2   -1    0    0  501    0  0.00000000000E+00  0.00000000000E+00  0.66017426666E+03  0.66017426667E+03  0.25500000000E-02 0.  1.
         -2   -1    0    0    0  501 -0.00000000000E+00 -0.00000000000E+00 -0.95905078072E+03  0.95905078072E+03  0.25500000000E-02 0. -1.
    -200001    2    1    2    0    0 -0.13119326847E+03  0.30264015952E+03  0.24356757308E+03  0.73671877120E+03  0.61206751697E+03 0.  0.
   -5000001    2    3    3    0    0 -0.24408348029E+03  0.42343301251E+03  0.12537966151E+03  0.50977275185E+03  0.72635649440E+02 0.  0.
     200001    1    1    2    0    0  0.13119326847E+03 -0.30264015952E+03 -0.54244408714E+03  0.88250627619E+03  0.61300000000E+03 0. -1.
         13    1    4    4    0    0 -0.19070191211E+03  0.34924332958E+03  0.10081522909E+03  0.41048976129E+03  0.10566000000E+00 0.  1.
    -200003    1    4    4    0    0 -0.53381568181E+02  0.74189682931E+02  0.24564432417E+02  0.99282990561E+02  0.30000000000E+02 0. -1.
    -200000    1    3    3    0    0  0.11289021182E+03 -0.12079285299E+03  0.11818791158E+03  0.22694601935E+03  0.10100000000E+03 0. -1.
<mgrwt>
<rscale>  0 0.15914027E+04</rscale>
<asrwt>0</asrwt>
<pdfrwt beam="1">  1        2 0.94310610E-01 0.15914027E+04</pdfrwt>
<pdfrwt beam="2">  1       -2 0.13700725E+00 0.15914027E+04</pdfrwt>
<totfact> 0.17663499E+01</totfact>
</mgrwt>
</event>
<event>
 8    2  0.4480234E-052  0.1607683E+04  0.7818608E-02  0.8815842E-01
         -2   -1    0    0    0  501 -0.00000000000E+00  0.00000000000E+00  0.22416827501E+03  0.22416827502E+03  0.25500000000E-02 0.  1.
          2   -1    0    0  501    0  0.00000000000E+00 -0.00000000000E+00 -0.28824824422E+04  0.28824824422E+04  0.25500000000E-02 0. -1.
    -200001    2    1    2    0    0 -0.44142001362E+03 -0.72467372863E+02 -0.81821313882E+03  0.11162125888E+04  0.61347750918E+03 0.  0.
   -5000001    2    3    3    0    0 -0.57865760300E+03 -0.78196932150E+02 -0.63126414421E+03  0.86319497997E+03  0.75178267946E+02 0.  0.
     200001    1    1    2    0    0  0.44142001362E+03  0.72467372863E+02 -0.18401010284E+04  0.19904381285E+04  0.61300000000E+03 0. -1.
         13    1    4    4    0    0  0.13652825351E+01  0.19944920876E+01 -0.22908015812E+01  0.33318059680E+01  0.10566000000E+00 0.  1.
    -200003    1    4    4    0    0 -0.58002288553E+03 -0.80191424237E+02 -0.62897334263E+03  0.85986317400E+03  0.30000000000E+02 0.  1.
    -200000    1    3    3    0    0  0.13723758937E+03  0.57295592867E+01 -0.18694899461E+03  0.25301760882E+03  0.10100000000E+03 0.  1.
<mgrwt>
<rscale>  0 0.16076829E+04</rscale>
<asrwt>0</asrwt>
<pdfrwt beam="1">  1        2 0.41178319E+00 0.16076829E+04</pdfrwt>
<pdfrwt beam="2">  1       -2 0.32024041E-01 0.16076829E+04</pdfrwt>
<totfact> 0.23952598E+01</totfact>
</mgrwt>
</event>
<event>
 8    2  0.4480234E-052  0.1751837E+04  0.7818608E-02  0.8732340E-01
          2   -1    0    0  501    0  0.00000000000E+00  0.00000000000E+00  0.41257107046E+04  0.41257107046E+04  0.25500000000E-02 0.  1.
         -2   -1    0    0    0  501 -0.00000000000E+00 -0.00000000000E+00 -0.18596394181E+03  0.18596394183E+03  0.25500000000E-02 0. -1.
    -200001    2    1    2    0    0 -0.31479302479E+03  0.49079382507E+03  0.25233325078E+04  0.26618347848E+04  0.61496686871E+03 0.  0.
   -5000001    2    3    3    0    0 -0.78015597803E+02 -0.13265481673E+03  0.42316492713E+03  0.45601144063E+03  0.72070413725E+02 0.  0.
     200001    1    1    2    0    0  0.31479302479E+03 -0.49079382507E+03  0.14164142550E+04  0.16498398616E+04  0.61300000000E+03 0. -1.
         13    1    4    4    0    0 -0.34582846093E+01 -0.35661665210E+02  0.45618228817E+02  0.58006448456E+02  0.10566000000E+00 0.  1.
    -200003    1    4    4    0    0 -0.74557313194E+02 -0.96993151516E+02  0.37754669831E+03  0.39800499218E+03  0.30000000000E+02 0.  1.
    -200000    1    3    3    0    0 -0.23677742698E+03  0.62344864179E+03  0.21001675807E+04  0.22058233442E+04  0.10100000000E+03 0.  1.
<mgrwt>
<rscale>  0 0.17518372E+04</rscale>
<asrwt>0</asrwt>
<pdfrwt beam="1">  1        2 0.58938722E+00 0.17518372E+04</pdfrwt>
<pdfrwt beam="2">  1       -2 0.26566279E-01 0.17518372E+04</pdfrwt>
<totfact> 0.57451634E+00</totfact>
</mgrwt>
</event>
<event>
 8    2  0.4480234E-052  0.1471935E+04  0.7818608E-02  0.8903333E-01
          2   -1    0    0  501    0  0.00000000000E+00  0.00000000000E+00  0.38507822870E+04  0.38507822870E+04  0.25500000000E-02 0.  1.
         -2   -1    0    0    0  501 -0.00000000000E+00 -0.00000000000E+00 -0.14065926634E+03  0.14065926636E+03  0.25500000000E-02 0. -1.
    -200001    2    1    2    0    0 -0.31466467665E+03  0.25804322381E+03  0.17916070360E+04  0.19366732580E+04  0.61257438148E+03 0.  0.
   -5000001    2    3    3    0    0 -0.20541605346E+03  0.27721010483E+03  0.38203504797E+03  0.51914131114E+03  0.67199150482E+02 0.  0.
     200001    1    1    2    0    0  0.31466467665E+03 -0.25804322381E+03  0.19185159847E+04  0.20547682954E+04  0.61300000000E+03 0.  1.
         13    1    4    4    0    0 -0.83644411001E+02  0.90346628887E+02  0.17030748706E+03  0.21015126018E+03  0.10566000000E+00 0.  1.
    -200003    1    4    4    0    0 -0.12177164246E+03  0.18686347594E+03  0.21172756091E+03  0.30899005097E+03  0.30000000000E+02 0.  1.
    -200000    1    3    3    0    0 -0.10924862319E+03 -0.19166881020E+02  0.14095719880E+04  0.14175319469E+04  0.10100000000E+03 0.  1.
<mgrwt>
<rscale>  0 0.14719351E+04</rscale>
<asrwt>0</asrwt>
<pdfrwt beam="1">  1        2 0.55011165E+00 0.14719351E+04</pdfrwt>
<pdfrwt beam="2">  1       -2 0.20094185E-01 0.14719351E+04</pdfrwt>
<totfact> 0.15013304E+01</totfact>
</mgrwt>
</event>
<event>
 8    2  0.4480234E-052  0.2133407E+04  0.7818608E-02  0.8546668E-01
         -2   -1    0    0    0  501 -0.00000000000E+00  0.00000000000E+00  0.38818711396E+03  0.38818711396E+03  0.25500000000E-02 0. -1.
          2   -1    0    0  501    0  0.00000000000E+00 -0.00000000000E+00 -0.29312055713E+04  0.29312055713E+04  0.25500000000E-02 0.  1.
    -200001    2    1    2    0    0  0.82525006244E+03 -0.39933546728E+02 -0.82014165594E+03  0.13127273354E+04  0.60662044760E+03 0.  0.
   -5000001    2    3    3    0    0  0.67616948571E+03 -0.20892089271E+03 -0.74472670092E+03  0.10545216869E+04  0.23779195995E+03 0.  0.
     200001    1    1    2    0    0 -0.82525006244E+03  0.39933546728E+02 -0.17228768014E+04  0.20066653499E+04  0.61300000000E+03 0. -1.
         13    1    4    4    0    0  0.34563725347E+03 -0.19791667986E+03 -0.29577391303E+03  0.49610315656E+03  0.10566000000E+00 0.  1.
    -200003    1    4    4    0    0  0.33053223223E+03 -0.11004212850E+02 -0.44895278790E+03  0.55841853032E+03  0.30000000000E+02 0.  1.
    -200000    1    3    3    0    0  0.14908057674E+03  0.16898734598E+03 -0.75414955019E+02  0.25820564847E+03  0.10100000000E+03 0. -1.
<mgrwt>
<rscale>  0 0.21334069E+04</rscale>
<asrwt>0</asrwt>
<pdfrwt beam="1">  1        2 0.41874364E+00 0.21334069E+04</pdfrwt>
<pdfrwt beam="2">  1       -2 0.55455304E-01 0.21334069E+04</pdfrwt>
<totfact> 0.72696430E+00</totfact>
</mgrwt>
</event>
<event>
 8    2  0.4480234E-052  0.1889714E+04  0.7818608E-02  0.8659993E-01
          2   -1    0    0  501    0  0.00000000000E+00  0.00000000000E+00  0.33506711734E+04  0.33506711734E+04  0.25500000000E-02 0.  1.
         -2   -1    0    0    0  501 -0.00000000000E+00 -0.00000000000E+00 -0.26644063296E+03  0.26644063297E+03  0.25500000000E-02 0. -1.
    -200001    2    1    2    0    0 -0.16377651949E+03  0.31487896737E+03  0.27387593716E+04  0.28290186387E+04  0.61365466688E+03 0.  0.
   -5000001    2    3    3    0    0 -0.30395871025E+03  0.10397488886E+03  0.73730090395E+03  0.80907592301E+03  0.88258434068E+02 0.  0.
     200001    1    1    2    0    0  0.16377651949E+03 -0.31487896737E+03  0.34547116886E+03  0.78809316768E+03  0.61300000000E+03 0. -1.
         13    1    4    4    0    0 -0.10884685603E+03 -0.12211567719E+01  0.26488259359E+03  0.28637724917E+03  0.10566000000E+00 0.  1.
    -200003    1    4    4    0    0 -0.19511185423E+03  0.10519604563E+03  0.47241831036E+03  0.52269867384E+03  0.30000000000E+02 0.  1.
    -200000    1    3    3    0    0  0.14018219077E+03  0.21090407851E+03  0.20014584677E+04  0.20199427157E+04  0.10100000000E+03 0.  1.
<mgrwt>
<rscale>  0 0.18897142E+04</rscale>
<asrwt>0</asrwt>
<pdfrwt beam="1">  1        2 0.47866729E+00 0.18897142E+04</pdfrwt>
<pdfrwt beam="2">  1       -2 0.38062949E-01 0.18897142E+04</pdfrwt>
<totfact> 0.90956890E+00</totfact>
</mgrwt>
</event>
<event>
 8    2  0.4480234E-052  0.1380152E+04  0.7818608E-02  0.8968312E-01
         -2   -1    0    0    0  501 -0.00000000000E+00  0.00000000000E+00  0.10101500171E+04  0.10101500171E+04  0.25500000000E-02 0.  1.
          2   -1    0    0  501    0  0.00000000000E+00 -0.00000000000E+00 -0.47142025819E+03  0.47142025820E+03  0.25500000000E-02 0. -1.
    -200001    2    1    2    0    0  0.23889329156E+03  0.88148487812E+02  0.66050018987E+02  0.66668666572E+03  0.61259149894E+03 0.  0.
   -5000001    2    3    3    0    0 -0.67674462436E+02  0.23195253133E+03 -0.10226959857E+03  0.27528420740E+03  0.83309749670E+02 0.  0.
     200001    1    1    2    0    0 -0.23889329156E+03 -0.88148487812E+02  0.47267973994E+03  0.81488360961E+03  0.61300000000E+03 0.  1.
         13    1    4    4    0    0 -0.50632667110E+02  0.17193556584E+03 -0.43412898209E+02  0.18441853669E+03  0.10566000000E+00 0.  1.
    -200003    1    4    4    0    0 -0.17041795326E+02  0.60016965495E+02 -0.58856700365E+02  0.90865670707E+02  0.30000000000E+02 0.  1.
    -200000    1    3    3    0    0  0.30656775400E+03 -0.14380404352E+03  0.16831961756E+03  0.39140245832E+03  0.10100000000E+03 0. -1.
<mgrwt>
<rscale>  0 0.13801524E+04</rscale>
<asrwt>0</asrwt>
<pdfrwt beam="1">  1        2 0.67345751E-01 0.13801524E+04</pdfrwt>
<pdfrwt beam="2">  1       -2 0.14430715E+00 0.13801524E+04</pdfrwt>
<totfact> 0.23249606E+01</totfact>
</mgrwt>
</event>
<event>
 8    2  0.4480234E-052  0.1381693E+04  0.7818608E-02  0.8967178E-01
         -2   -1    0    0    0  501 -0.00000000000E+00  0.00000000000E+00  0.43359845165E+03  0.43359845166E+03  0.25500000000E-02 0.  1.
          2   -1    0    0  501    0  0.00000000000E+00 -0.00000000000E+00 -0.11007165289E+04  0.11007165289E+04  0.25500000000E-02 0. -1.
    -200001    2    1    2    0    0 -0.86296052920E+02  0.18394830095E+03 -0.61972807130E+02  0.64929871851E+03  0.61356679413E+03 0.  0.
   -5000001    2    3    3    0    0 -0.20688898807E+03 -0.14379311563E+03 -0.10599421518E+03  0.28310754369E+03  0.73726482053E+02 0.  0.
     200001    1    1    2    0    0  0.86296052920E+02 -0.18394830095E+03 -0.60514527015E+03  0.88501626209E+03  0.61300000000E+03 0. -1.
         13    1    4    4    0    0 -0.41643359100E+02 -0.54879115672E+02 -0.49588752267E+02  0.84881930995E+02  0.10566000000E+00 0.  1.
    -200003    1    4    4    0    0 -0.16524562897E+03 -0.88913999957E+02 -0.56405462916E+02  0.19822561270E+03  0.30000000000E+02 0.  1.
    -200000    1    3    3    0    0  0.12059293515E+03  0.32774141658E+03  0.44021408053E+02  0.36619117482E+03  0.10100000000E+03 0.  1.
<mgrwt>
<rscale>  0 0.13816931E+04</rscale>
<asrwt>0</asrwt>
<pdfrwt beam="1">  1        2 0.15724522E+00 0.13816931E+04</pdfrwt>
<pdfrwt beam="2">  1       -2 0.61942636E-01 0.13816931E+04</pdfrwt>
<totfact> 0.57648290E+01</totfact>
</mgrwt>
</event>
<event>
 8    2  0.4480234E-052  0.1625885E+04  0.7818608E-02  0.8804802E-01
         -2   -1    0    0    0  501 -0.00000000000E+00  0.00000000000E+00  0.60348118086E+03  0.60348118086E+03  0.25500000000E-02 0. -1.
          2   -1    0    0  501    0  0.00000000000E+00 -0.00000000000E+00 -0.10951050788E+04  0.10951050788E+04  0.25500000000E-02 0.  1.
    -200001    2    1    2    0    0 -0.53208821923E+03 -0.38245558335E+02 -0.22435220443E+03  0.84314265900E+03  0.61316803245E+03 0.  0.
   -5000001    2    3    3    0    0 -0.16803889002E+03  0.13537223410E+02  0.19715117070E+03  0.27474186218E+03  0.90521719763E+02 0.  0.
     200001    1    1    2    0    0  0.53208821923E+03  0.38245558335E+02 -0.26727169352E+03  0.85544360068E+03  0.61300000000E+03 0. -1.
         13    1    4    4    0    0  0.35785959917E+01 -0.51315877227E+01 -0.44204176284E+01  0.76609919640E+01  0.10566000000E+00 0.  1.
    -200003    1    4    4    0    0 -0.17161748601E+03  0.18668811132E+02  0.20157158833E+03  0.26708087021E+03  0.30000000000E+02 0.  1.
    -200000    1    3    3    0    0 -0.36404932921E+03 -0.51782781745E+02 -0.42150337513E+03  0.56840079682E+03  0.10100000000E+03 0.  1.
<mgrwt>
<rscale>  0 0.16258848E+04</rscale>
<asrwt>0</asrwt>
<pdfrwt beam="1">  1        2 0.15644358E+00 0.16258848E+04</pdfrwt>
<pdfrwt beam="2">  1       -2 0.86211597E-01 0.16258848E+04</pdfrwt>
<totfact> 0.27530652E+01</totfact>
</mgrwt>
</event>
<event>
 8    2  0.4480234E-052  0.1667454E+04  0.7818608E-02  0.8780148E-01
          2   -1    0    0  501    0  0.00000000000E+00  0.00000000000E+00  0.12240566285E+04  0.12240566285E+04  0.25500000000E-02 0.  1.
         -2   -1    0    0    0  501 -0.00000000000E+00 -0.00000000000E+00 -0.56786624417E+03  0.56786624417E+03  0.25500000000E-02 0. -1.
    -200001    2    1    2    0    0 -0.48997218796E+03  0.11424858055E+02  0.63058002519E+03  0.10066661231E+04  0.61281501514E+03 0.  0.
   -5000001    2    3    3    0    0 -0.96830982996E+02 -0.22440869797E+03  0.58322231565E+02  0.26649218704E+03  0.88775560087E+02 0.  0.
     200001    1    1    2    0    0  0.48997218796E+03 -0.11424858055E+02  0.25610359159E+02  0.78525674964E+03  0.61300000000E+03 0.  1.
         13    1    4    4    0    0  0.11726096374E+02 -0.22241649590E+02 -0.68657262537E+01  0.26064183733E+02  0.10566000000E+00 0.  1.
    -200003    1    4    4    0    0 -0.10855707937E+03 -0.20216704838E+03  0.65187957819E+02  0.24042800331E+03  0.30000000000E+02 0.  1.
    -200000    1    3    3    0    0 -0.39314120497E+03  0.23583355602E+03  0.57225779363E+03  0.74017393601E+03  0.10100000000E+03 0.  1.
<mgrwt>
<rscale>  0 0.16674537E+04</rscale>
<asrwt>0</asrwt>
<pdfrwt beam="1">  1        2 0.17486523E+00 0.16674537E+04</pdfrwt>
<pdfrwt beam="2">  1       -2 0.81123749E-01 0.16674537E+04</pdfrwt>
<totfact> 0.26531304E+01</totfact>
</mgrwt>
</event>
<event>
 8    2  0.4480234E-052  0.1672609E+04  0.7818608E-02  0.8777142E-01
          2   -1    0    0  501    0  0.00000000000E+00  0.00000000000E+00  0.25545649986E+04  0.25545649986E+04  0.25500000000E-02 0.  1.
         -2   -1    0    0    0  501 -0.00000000000E+00 -0.00000000000E+00 -0.27378644399E+03  0.27378644400E+03  0.25500000000E-02 0. -1.
    -200001    2    1    2    0    0 -0.11984348615E+03 -0.38987687617E+03  0.18108385518E+04  0.19548647249E+04  0.61318300061E+03 0.  0.
   -5000001    2    3    3    0    0 -0.25300876439E+03 -0.20563990014E+03  0.15798628056E+04  0.16154136238E+04  0.85401921816E+02 0.  0.
     200001    1    1    2    0    0  0.11984348615E+03  0.38987687617E+03  0.46994000281E+03  0.87348671769E+03  0.61300000000E+03 0. -1.
         13    1    4    4    0    0 -0.11088531297E+03 -0.74672015098E+02  0.81774806401E+03  0.82860326443E+03  0.10566000000E+00 0.  1.
    -200003    1    4    4    0    0 -0.14212345142E+03 -0.13096788504E+03  0.76211474156E+03  0.78681035939E+03  0.30000000000E+02 0.  1.
    -200000    1    3    3    0    0  0.13316527824E+03 -0.18423697603E+03  0.23097574620E+03  0.33945110104E+03  0.10100000000E+03 0. -1.
<mgrwt>
<rscale>  0 0.16726091E+04</rscale>
<asrwt>0</asrwt>
<pdfrwt beam="1">  1        2 0.36493786E+00 0.16726091E+04</pdfrwt>
<pdfrwt beam="2">  1       -2 0.39112349E-01 0.16726091E+04</pdfrwt>
<totfact> 0.24382473E+01</totfact>
</mgrwt>
</event>
<event>
 8    2  0.4480234E-052  0.1493513E+04  0.7818608E-02  0.8888778E-01
         -2   -1    0    0    0  501 -0.00000000000E+00  0.00000000000E+00  0.29749033639E+03  0.29749033640E+03  0.25500000000E-02 0. -1.
          2   -1    0    0  501    0  0.00000000000E+00 -0.00000000000E+00 -0.18744984131E+04  0.18744984131E+04  0.25500000000E-02 0.  1.
    -200001    2    1    2    0    0 -0.16303815497E+03  0.35009261312E+03 -0.51093670600E+03  0.88302659133E+03  0.60789256100E+03 0.  0.
   -5000001    2    3    3    0    0  0.19244964922E+03 -0.14178431508E+02 -0.12072451462E+03  0.23377199783E+03  0.53263900842E+02 0.  0.
     200001    1    1    2    0    0  0.16303815497E+03 -0.35009261312E+03 -0.10660713707E+04  0.12889621582E+04  0.61300000000E+03 0. -1.
         13    1    4    4    0    0  0.79307718249E+02  0.87610966553E+01 -0.36424653349E+02  0.87711102628E+02  0.10566000000E+00 0.  1.
    -200003    1    4    4    0    0  0.11314193097E+03 -0.22939528164E+02 -0.84299861273E+02  0.14606089520E+03  0.30000000000E+02 0. -1.
    -200000    1    3    3    0    0 -0.35548780419E+03  0.36427104463E+03 -0.39021219138E+03  0.64925459350E+03  0.10100000000E+03 0.  1.
<mgrwt>
<rscale>  0 0.14935129E+04</rscale>
<asrwt>0</asrwt>
<pdfrwt beam="1">  1        2 0.26778548E+00 0.14935129E+04</pdfrwt>
<pdfrwt beam="2">  1       -2 0.42498620E-01 0.14935129E+04</pdfrwt>
<totfact> 0.47307850E+01</totfact>
</mgrwt>
</event>
<event>
 8    2  0.4480234E-052  0.1887825E+04  0.7818608E-02  0.8660940E-01
         -2   -1    0    0    0  501 -0.00000000000E+00  0.00000000000E+00  0.48263777508E+03  0.48263777509E+03  0.25500000000E-02 0. -1.
          2   -1    0    0  501    0  0.00000000000E+00 -0.00000000000E+00 -0.18460445238E+04  0.18460445238E+04  0.25500000000E-02 0.  1.
    -200001    2    1    2    0    0 -0.20955909296E+03 -0.16608289662E+03 -0.15033594981E+04  0.16454149178E+04  0.61302685867E+03 0.  0.
   -5000001    2    3    3    0    0 -0.30098366189E+03 -0.79627107967E+02 -0.32967662977E+03  0.46069320769E+03  0.81362831491E+02 0.  0.
     200001    1    1    2    0    0  0.20955909296E+03  0.16608289662E+03  0.13995274932E+03  0.68326738107E+03  0.61300000000E+03 0. -1.
         13    1    4    4    0    0 -0.84760523873E+02  0.98264325136E+01 -0.75893151385E+02  0.11419582643E+03  0.10566000000E+00 0.  1.
    -200003    1    4    4    0    0 -0.21622313801E+03 -0.89453540481E+02 -0.25378347839E+03  0.34649738126E+03  0.30000000000E+02 0.  1.
    -200000    1    3    3    0    0  0.91424568921E+02 -0.86455788649E+02 -0.11736828683E+04  0.11847217101E+04  0.10100000000E+03 0.  1.
<mgrwt>
<rscale>  0 0.18878250E+04</rscale>
<asrwt>0</asrwt>
<pdfrwt beam="1">  1        2 0.26372064E+00 0.18878250E+04</pdfrwt>
<pdfrwt beam="2">  1       -2 0.68948255E-01 0.18878250E+04</pdfrwt>
<totfact> 0.17409377E+01</totfact>
</mgrwt>
</event>
<event>
 8    2  0.4480234E-052  0.1434999E+04  0.7818608E-02  0.8928867E-01
         -2   -1    0    0    0  501 -0.00000000000E+00  0.00000000000E+00  0.22590336619E+03  0.22590336620E+03  0.25500000000E-02 0. -1.
          2   -1    0    0  501    0  0.00000000000E+00 -0.00000000000E+00 -0.22788734928E+04  0.22788734928E+04  0.25500000000E-02 0.  1.
    -200001    2    1    2    0    0  0.37151172501E+03 -0.14482891441E+02 -0.10557832614E+04  0.12766150781E+04  0.61387054544E+03 0.  0.
   -5000001    2    3    3    0    0  0.25511190934E+03  0.24475956302E+03 -0.79765952520E+03  0.87964602328E+03  0.11192443053E+03 0.  0.
     200001    1    1    2    0    0 -0.37151172501E+03  0.14482891441E+02 -0.99718686518E+03  0.12281617809E+04  0.61300000000E+03 0.  1.
         13    1    4    4    0    0  0.17411155673E+03  0.14950080542E+03 -0.61365376790E+03  0.65516126490E+03  0.10566000000E+00 0.  1.
    -200003    1    4    4    0    0  0.81000352613E+02  0.95258757603E+02 -0.18400575730E+03  0.22448475838E+03  0.30000000000E+02 0.  1.
    -200000    1    3    3    0    0  0.11639981567E+03 -0.25924245446E+03 -0.25812373623E+03  0.39696905482E+03  0.10100000000E+03 0. -1.
<mgrwt>
<rscale>  0 0.14349985E+04</rscale>
<asrwt>0</asrwt>
<pdfrwt beam="1">  1        2 0.32555334E+00 0.14349985E+04</pdfrwt>
<pdfrwt beam="2">  1       -2 0.32271911E-01 0.14349985E+04</pdfrwt>
<totfact> 0.50055807E+01</totfact>
</mgrwt>
</event>
<event>
 8    2  0.4480234E-052  0.2064476E+04  0.7818608E-02  0.8577056E-01
          2   -1    0    0  501    0  0.00000000000E+00  0.00000000000E+00  0.68085857253E+03  0.68085857254E+03  0.25500000000E-02 0.  1.
         -2   -1    0    0    0  501 -0.00000000000E+00 -0.00000000000E+00 -0.15649577187E+04  0.15649577187E+04  0.25500000000E-02 0. -1.
    -200001    2    1    2    0    0 -0.83406355305E+02 -0.51284288832E+03  0.26278928537E+03  0.84542830122E+03  0.61296521581E+03 0.  0.
   -5000001    2    3    3    0    0 -0.21074596326E+03 -0.58372107069E+03  0.19761783604E+03  0.65651718376E+03  0.82570297650E+02 0.  0.
     200001    1    1    2    0    0  0.83406355305E+02  0.51284288832E+03 -0.11468884316E+04  0.14003879901E+04  0.61300000000E+03 0. -1.
         13    1    4    4    0    0 -0.13713599927E+02 -0.10057787541E+03  0.13523348692E+02  0.10240539033E+03  0.10566000000E+00 0.  1.
    -200003    1    4    4    0    0 -0.19703236334E+03 -0.48314319528E+03  0.18409448734E+03  0.55411179343E+03  0.30000000000E+02 0.  1.
    -200000    1    3    3    0    0  0.12733960796E+03  0.70878182369E+02  0.65171449336E+02  0.18891111746E+03  0.10100000000E+03 0.  1.
<mgrwt>
<rscale>  0 0.20644756E+04</rscale>
<asrwt>0</asrwt>
<pdfrwt beam="1">  1        2 0.97265510E-01 0.20644756E+04</pdfrwt>
<pdfrwt beam="2">  1       -2 0.22356539E+00 0.20644756E+04</pdfrwt>
<totfact> 0.40522663E+00</totfact>
</mgrwt>
</event>
<event>
 8    2  0.4480234E-052  0.1287699E+04  0.7818608E-02  0.9039377E-01
         -2   -1    0    0    0  501 -0.00000000000E+00  0.00000000000E+00  0.36912922014E+03  0.36912922015E+03  0.25500000000E-02 0. -1.
          2   -1    0    0  501    0  0.00000000000E+00 -0.00000000000E+00 -0.11230270676E+04  0.11230270676E+04  0.25500000000E-02 0.  1.
    -200001    2    1    2    0    0  0.48897382627E+02  0.18982056517E+03 -0.34355649006E+03  0.72889235531E+03  0.61223378114E+03 0.  0.
   -5000001    2    3    3    0    0  0.17101037782E+03  0.35642723271E+03 -0.19056480458E+03  0.45270976881E+03  0.11111376373E+03 0.  0.
     200001    1    1    2    0    0 -0.48897382627E+02 -0.18982056517E+03 -0.41034135743E+03  0.76326393247E+03  0.61300000000E+03 0.  1.
         13    1    4    4    0    0 -0.65151772072E+01  0.15567281489E+02 -0.31415608463E+02  0.35661455468E+02  0.10566000000E+00 0.  1.
    -200003    1    4    4    0    0  0.17752555503E+03  0.34085995122E+03 -0.15914919612E+03  0.41704831334E+03  0.30000000000E+02 0.  1.
    -200000    1    3    3    0    0 -0.12211299520E+03 -0.16660666753E+03 -0.15299168547E+03  0.27618258650E+03  0.10100000000E+03 0. -1.
<mgrwt>
<rscale>  0 0.12876989E+04</rscale>
<asrwt>0</asrwt>
<pdfrwt beam="1">  1        2 0.16043244E+00 0.12876989E+04</pdfrwt>
<pdfrwt beam="2">  1       -2 0.52732746E-01 0.12876989E+04</pdfrwt>
<totfact> 0.78846853E+01</totfact>
</mgrwt>
</event>
<event>
 8    2  0.4480234E-052  0.1413576E+04  0.7818608E-02  0.8944050E-01
          2   -1    0    0  501    0  0.00000000000E+00  0.00000000000E+00  0.13910280650E+04  0.13910280650E+04  0.25500000000E-02 0.  1.
         -2   -1    0    0    0  501 -0.00000000000E+00 -0.00000000000E+00 -0.35912217428E+03  0.35912217429E+03  0.25500000000E-02 0. -1.
    -200001    2    1    2    0    0 -0.60776147314E+02  0.33127708153E+03  0.64211932483E+03  0.94943754941E+03  0.61292429228E+03 0.  0.
   -5000001    2    3    3    0    0 -0.22784103916E+03  0.12039461649E+03  0.60093793013E+03  0.65912909376E+03  0.83176700848E+02 0.  0.
     200001    1    1    2    0    0  0.60776147314E+02 -0.33127708153E+03  0.38978656592E+03  0.80071268992E+03  0.61300000000E+03 0. -1.
         13    1    4    4    0    0 -0.23090680702E+02 -0.15274693012E+01  0.11221422684E+03  0.11457554961E+03  0.10566000000E+00 0.  1.
    -200003    1    4    4    0    0 -0.20475035846E+03  0.12192208579E+03  0.48872370329E+03  0.54455354415E+03  0.30000000000E+02 0.  1.
    -200000    1    3    3    0    0  0.16706489185E+03  0.21088246504E+03  0.41181394701E+02  0.29030845564E+03  0.10100000000E+03 0. -1.
<mgrwt>
<rscale>  0 0.14135756E+04</rscale>
<asrwt>0</asrwt>
<pdfrwt beam="1">  1        2 0.19871830E+00 0.14135756E+04</pdfrwt>
<pdfrwt beam="2">  1       -2 0.51303168E-01 0.14135756E+04</pdfrwt>
<totfact> 0.58459954E+01</totfact>
</mgrwt>
</event>
<event>
 8    2  0.4480234E-052  0.1475128E+04  0.7818608E-02  0.8901163E-01
          2   -1    0    0  501    0  0.00000000000E+00  0.00000000000E+00  0.26765065635E+04  0.26765065635E+04  0.25500000000E-02 0.  1.
         -2   -1    0    0    0  501 -0.00000000000E+00 -0.00000000000E+00 -0.20325032687E+03  0.20325032688E+03  0.25500000000E-02 0. -1.
    -200001    2    1    2    0    0  0.60831659595E+02 -0.11122666448E+03  0.47380907638E+03  0.78461254969E+03  0.61241321881E+03 0.  0.
   -5000001    2    3    3    0    0 -0.16531605438E+03  0.14058224431E+03  0.56562733165E+02  0.23794443648E+03  0.79532677670E+02 0.  0.
     200001    1    1    2    0    0 -0.60831659595E+02  0.11122666448E+03  0.19994471602E+04  0.20951443407E+04  0.61300000000E+03 0.  1.
         13    1    4    4    0    0 -0.29540316726E+02  0.15598696690E+02 -0.16440238578E+02  0.37232274430E+02  0.10566000000E+00 0.  1.
    -200003    1    4    4    0    0 -0.13577573765E+03  0.12498354762E+03  0.73002971743E+02  0.20071216205E+03  0.30000000000E+02 0.  1.
    -200000    1    3    3    0    0  0.22614771397E+03 -0.25180890879E+03  0.41724634321E+03  0.54666811321E+03  0.10100000000E+03 0.  1.
<mgrwt>
<rscale>  0 0.14751282E+04</rscale>
<asrwt>0</asrwt>
<pdfrwt beam="1">  1        2 0.38235807E+00 0.14751282E+04</pdfrwt>
<pdfrwt beam="2">  1       -2 0.29035762E-01 0.14751282E+04</pdfrwt>
<totfact> 0.37600243E+01</totfact>
</mgrwt>
</event>
<event>
 8    2  0.4480234E-052  0.1450967E+04  0.7818608E-02  0.8917730E-01
         -2   -1    0    0    0  501 -0.00000000000E+00  0.00000000000E+00  0.87801209495E+03  0.87801209495E+03  0.25500000000E-02 0. -1.
          2   -1    0    0  501    0  0.00000000000E+00 -0.00000000000E+00 -0.59945210620E+03  0.59945210621E+03  0.25500000000E-02 0.  1.
    -200001    2    1    2    0    0  0.12022054779E+03 -0.37128214011E+03  0.11602843382E+03  0.73282407733E+03  0.60931529045E+03 0.  0.
   -5000001    2    3    3    0    0  0.12266605244E+03 -0.44732436257E+03  0.25690780200E+03  0.54351904182E+03  0.11943736571E+03 0.  0.
     200001    1    1    2    0    0 -0.12022054779E+03  0.37128214011E+03  0.16253155492E+03  0.74464012383E+03  0.61300000000E+03 0. -1.
         13    1    4    4    0    0  0.86783376934E+02 -0.40990608833E+03  0.22802111864E+03  0.47701991308E+03  0.10566000000E+00 0.  1.
    -200003    1    4    4    0    0  0.35882675504E+02 -0.37418274236E+02  0.28886683362E+02  0.66499128744E+02  0.30000000000E+02 0. -1.
    -200000    1    3    3    0    0 -0.24455046529E+01  0.76042222456E+02 -0.14087936818E+03  0.18930503550E+03  0.10100000000E+03 0. -1.
<mgrwt>
<rscale>  0 0.14509668E+04</rscale>
<asrwt>0</asrwt>
<pdfrwt beam="1">  1        2 0.85636015E-01 0.14509668E+04</pdfrwt>
<pdfrwt beam="2">  1       -2 0.12543030E+00 0.14509668E+04</pdfrwt>
<totfact> 0.25079456E+01</totfact>
</mgrwt>
</event>
<event>
 8    2  0.4480234E-052  0.1391331E+04  0.7818608E-02  0.8960118E-01
          2   -1    0    0  501    0  0.00000000000E+00  0.00000000000E+00  0.67523191761E+03  0.67523191762E+03  0.25500000000E-02 0.  1.
         -2   -1    0    0    0  501 -0.00000000000E+00 -0.00000000000E+00 -0.71671710292E+03  0.71671710292E+03  0.25500000000E-02 0. -1.
    -200001    2    1    2    0    0  0.19131196504E+03  0.66135188410E+02 -0.28077052293E+03  0.70347200283E+03  0.61242684551E+03 0.  0.
   -5000001    2    3    3    0    0  0.20958680055E+03  0.12230456061E+03 -0.43564251668E+03  0.50937073433E+03  0.10387064140E+03 0.  0.
     200001    1    1    2    0    0 -0.19131196504E+03 -0.66135188410E+02  0.23928533763E+03  0.68847701771E+03  0.61300000000E+03 0.  1.
         13    1    4    4    0    0  0.59518003549E+02  0.16259059252E+02 -0.44179583212E+02  0.75885416854E+02  0.10566000000E+00 0.  1.
    -200003    1    4    4    0    0  0.15006879700E+03  0.10604550136E+03 -0.39146293346E+03  0.43348531748E+03  0.30000000000E+02 0.  1.
    -200000    1    3    3    0    0 -0.18274835511E+02 -0.56169372202E+02  0.15487199375E+03  0.19410126850E+03  0.10100000000E+03 0.  1.
<mgrwt>
<rscale>  0 0.13913307E+04</rscale>
<asrwt>0</asrwt>
<pdfrwt beam="1">  1        2 0.96461703E-01 0.13913307E+04</pdfrwt>
<pdfrwt beam="2">  1       -2 0.10238816E+00 0.13913307E+04</pdfrwt>
<totfact> 0.35845144E+01</totfact>
</mgrwt>
</event>
<event>
 8    2  0.4480234E-052  0.1406851E+04  0.7818608E-02  0.8948874E-01
          2   -1    0    0  501    0  0.00000000000E+00  0.00000000000E+00  0.65398791356E+03  0.65398791356E+03  0.25500000000E-02 0.  1.
         -2   -1    0    0    0  501 -0.00000000000E+00 -0.00000000000E+00 -0.75660073881E+03  0.75660073881E+03  0.25500000000E-02 0. -1.
    -200001    2    1    2    0    0  0.11667615782E+03 -0.18267101763E+03  0.21793544518E+03  0.68567333307E+03  0.61291927276E+03 0.  0.
   -5000001    2    3    3    0    0  0.11072595817E+03 -0.16490406687E+03  0.41290693661E+03  0.46529649244E+03  0.80963562768E+02 0.  0.
     200001    1    1    2    0    0 -0.11667615782E+03  0.18267101763E+03 -0.32054827044E+03  0.72491531931E+03  0.61300000000E+03 0. -1.
         13    1    4    4    0    0  0.13125111171E+02 -0.42737299084E+02  0.16265970309E+03  0.16869183575E+03  0.10566000000E+00 0.  1.
    -200003    1    4    4    0    0  0.97600846997E+02 -0.12216676778E+03  0.25024723352E+03  0.29660465669E+03  0.30000000000E+02 0.  1.
    -200000    1    3    3    0    0  0.59501996553E+01 -0.17766950761E+02 -0.19497149143E+03  0.22037684063E+03  0.10100000000E+03 0. -1.
<mgrwt>
<rscale>  0 0.14068514E+04</rscale>
<asrwt>0</asrwt>
<pdfrwt beam="1">  1        2 0.93426845E-01 0.14068514E+04</pdfrwt>
<pdfrwt beam="2">  1       -2 0.10808582E+00 0.14068514E+04</pdfrwt>
<totfact> 0.32685229E+01</totfact>
</mgrwt>
</event>
<event>
 8    2  0.4480234E-052  0.1539606E+04  0.7818608E-02  0.8858534E-01
         -2   -1    0    0    0  501 -0.00000000000E+00  0.00000000000E+00  0.98034677271E+03  0.98034677271E+03  0.25500000000E-02 0. -1.
          2   -1    0    0  501    0  0.00000000000E+00 -0.00000000000E+00 -0.60447674308E+03  0.60447674308E+03  0.25500000000E-02 0.  1.
    -200001    2    1    2    0    0 -0.46405223803E+03 -0.50449516124E+02  0.18205272674E+03  0.79032758742E+03  0.61121589216E+03 0.  0.
   -5000001    2    3    3    0    0 -0.32483843037E+03  0.24421469571E+03  0.27688807259E+02  0.41584567648E+03  0.83666798418E+02 0.  0.
     200001    1    1    2    0    0  0.46405223803E+03  0.50449516124E+02  0.19381730289E+03  0.79449592837E+03  0.61300000000E+03 0.  1.
         13    1    4    4    0    0 -0.45484577055E+02  0.41667022667E+02 -0.22928532585E+02  0.65808178051E+02  0.10566000000E+00 0.  1.
    -200003    1    4    4    0    0 -0.27935385331E+03  0.20254767305E+03  0.50617339844E+02  0.35003749843E+03  0.30000000000E+02 0.  1.
    -200000    1    3    3    0    0 -0.13921380766E+03 -0.29466421184E+03  0.15436391948E+03  0.37448191094E+03  0.10100000000E+03 0.  1.
<mgrwt>
<rscale>  0 0.15396062E+04</rscale>
<asrwt>0</asrwt>
<pdfrwt beam="1">  1        2 0.86353821E-01 0.15396062E+04</pdfrwt>
<pdfrwt beam="2">  1       -2 0.14004954E+00 0.15396062E+04</pdfrwt>
<totfact> 0.18622096E+01</totfact>
</mgrwt>
</event>
<event>
 8    2  0.4480234E-052  0.1403995E+04  0.7818608E-02  0.8950932E-01
          2   -1    0    0  501    0  0.00000000000E+00  0.00000000000E+00  0.15110775198E+04  0.15110775198E+04  0.25500000000E-02 0.  1.
         -2   -1    0    0    0  501 -0.00000000000E+00 -0.00000000000E+00 -0.32612524477E+03  0.32612524478E+03  0.25500000000E-02 0. -1.
    -200001    2    1    2    0    0 -0.33486410954E+03 -0.11141607866E+02  0.50579098998E+03  0.86288907875E+03  0.61359182638E+03 0.  0.
   -5000001    2    3    3    0    0 -0.12074145417E+03 -0.20573845299E+03  0.45938733440E+03  0.55293627117E+03  0.19440932893E+03 0.  0.
     200001    1    1    2    0    0  0.33486410954E+03  0.11141607866E+02  0.67916128501E+03  0.97431368580E+03  0.61300000000E+03 0. -1.
         13    1    4    4    0    0 -0.11126343983E+03 -0.16914893159E+03  0.46219991289E+03  0.50459853819E+03  0.10566000000E+00 0.  1.
    -200003    1    4    4    0    0 -0.94780143380E+01 -0.36589521407E+02 -0.28125784873E+01  0.48337732987E+02  0.30000000000E+02 0.  1.
    -200000    1    3    3    0    0 -0.21412265537E+03  0.19459684513E+03  0.46403655580E+02  0.30995280758E+03  0.10100000000E+03 0. -1.
<mgrwt>
<rscale>  0 0.14039951E+04</rscale>
<asrwt>0</asrwt>
<pdfrwt beam="1">  1        2 0.21586822E+00 0.14039951E+04</pdfrwt>
<pdfrwt beam="2">  1       -2 0.46589320E-01 0.14039951E+04</pdfrwt>
<totfact> 0.61330651E+01</totfact>
</mgrwt>
</event>
<event>
 8    2  0.4480234E-052  0.1259766E+04  0.7818608E-02  0.9062094E-01
         -2   -1    0    0    0  501 -0.00000000000E+00  0.00000000000E+00  0.42697281791E+03  0.42697281792E+03  0.25500000000E-02 0. -1.
          2   -1    0    0  501    0  0.00000000000E+00 -0.00000000000E+00 -0.92922158061E+03  0.92922158062E+03  0.25500000000E-02 0.  1.
    -200001    2    1    2    0    0 -0.29786049315E+01 -0.11427351279E+03 -0.34609092264E+03  0.71337126670E+03  0.61323105727E+03 0.  0.
   -5000001    2    3    3    0    0  0.90336069869E+02 -0.30304379278E+03 -0.49787310912E+02  0.33609328237E+03  0.10239029379E+03 0.  0.
     200001    1    1    2    0    0  0.29786049315E+01  0.11427351279E+03 -0.15615784006E+03  0.64282313184E+03  0.61300000000E+03 0. -1.
         13    1    4    4    0    0  0.10230750521E+03 -0.20416296081E+03 -0.34077650774E+02  0.23089096482E+03  0.10566000000E+00 0.  1.
    -200003    1    4    4    0    0 -0.11971435343E+02 -0.98880831970E+02 -0.15709660138E+02  0.10520231754E+03  0.30000000000E+02 0.  1.
    -200000    1    3    3    0    0 -0.93314674801E+02  0.18877027999E+03 -0.29630361173E+03  0.37727798433E+03  0.10100000000E+03 0.  1.
<mgrwt>
<rscale>  0 0.12597656E+04</rscale>
<asrwt>0</asrwt>
<pdfrwt beam="1">  1        2 0.13274594E+00 0.12597656E+04</pdfrwt>
<pdfrwt beam="2">  1       -2 0.60996117E-01 0.12597656E+04</pdfrwt>
<totfact> 0.76587606E+01</totfact>
</mgrwt>
</event>
<event>
 8    2  0.4480234E-052  0.1387638E+04  0.7818608E-02  0.8962815E-01
         -2   -1    0    0    0  501 -0.00000000000E+00  0.00000000000E+00  0.15050661805E+03  0.15050661808E+03  0.25500000000E-02 0. -1.
          2   -1    0    0  501    0  0.00000000000E+00 -0.00000000000E+00 -0.31984313352E+04  0.31984313352E+04  0.25500000000E-02 0.  1.
    -200001    2    1    2    0    0  0.65661262873E+02 -0.28663117661E+03 -0.18572005405E+04  0.19777844616E+04  0.61316286265E+03 0.  0.
   -5000001    2    3    3    0    0 -0.15957028975E+03 -0.16206359655E+03 -0.15358059498E+04  0.15538247734E+04  0.62803059736E+02 0.  0.
     200001    1    1    2    0    0 -0.65661262873E+02  0.28663117661E+03 -0.11907241767E+04  0.13711534917E+04  0.61300000000E+03 0. -1.
         13    1    4    4    0    0 -0.11866744274E+03 -0.96230026851E+02 -0.97819648780E+03  0.99005583678E+03  0.10566000000E+00 0.  1.
    -200003    1    4    4    0    0 -0.40902847016E+02 -0.65833569697E+02 -0.55760946197E+03  0.56376893659E+03  0.30000000000E+02 0.  1.
    -200000    1    3    3    0    0  0.22523155263E+03 -0.12456758006E+03 -0.32139459072E+03  0.42395968823E+03  0.10100000000E+03 0. -1.
<mgrwt>
<rscale>  0 0.13876384E+04</rscale>
<asrwt>0</asrwt>
<pdfrwt beam="1">  1        2 0.45691872E+00 0.13876384E+04</pdfrwt>
<pdfrwt beam="2">  1       -2 0.21500947E-01 0.13876384E+04</pdfrwt>
<totfact> 0.33647617E+01</totfact>
</mgrwt>
</event>
<event>
 8    2  0.4480234E-052  0.1357537E+04  0.7818608E-02  0.8985142E-01
          2   -1    0    0  501    0  0.00000000000E+00  0.00000000000E+00  0.18131806861E+04  0.18131806861E+04  0.25500000000E-02 0.  1.
         -2   -1    0    0    0  501 -0.00000000000E+00 -0.00000000000E+00 -0.25409877856E+03  0.25409877857E+03  0.25500000000E-02 0. -1.
    -200001    2    1    2    0    0 -0.17306594717E+01  0.24170044556E+03  0.10273441732E+04  0.12205586614E+04  0.61311116047E+03 0.  0.
   -5000001    2    3    3    0    0 -0.13318805349E+02  0.28959042680E+03  0.16482351425E+03  0.35074797936E+03  0.10870762763E+03 0.  0.
     200001    1    1    2    0    0  0.17306594717E+01 -0.24170044556E+03  0.53173773427E+03  0.84672080323E+03  0.61300000000E+03 0. -1.
         13    1    4    4    0    0  0.56031103466E+01  0.25907661561E+03  0.15788942431E+03  0.30344879152E+03  0.10566000000E+00 0.  1.
    -200003    1    4    4    0    0 -0.18921915696E+02  0.30513811197E+02  0.69340899357E+01  0.47299187843E+02  0.30000000000E+02 0. -1.
    -200000    1    3    3    0    0  0.11588145877E+02 -0.47889981240E+02  0.86252065898E+03  0.86981068204E+03  0.10100000000E+03 0.  1.
<mgrwt>
<rscale>  0 0.13575375E+04</rscale>
<asrwt>0</asrwt>
<pdfrwt beam="1">  1        2 0.25902581E+00 0.13575375E+04</pdfrwt>
<pdfrwt beam="2">  1       -2 0.36299825E-01 0.13575375E+04</pdfrwt>
<totfact> 0.69888647E+01</totfact>
</mgrwt>
</event>
<event>
 8    2  0.4480234E-052  0.1500849E+04  0.7818608E-02  0.8883889E-01
         -2   -1    0    0    0  501 -0.00000000000E+00  0.00000000000E+00  0.30214657753E+03  0.30214657754E+03  0.25500000000E-02 0. -1.
          2   -1    0    0  501    0  0.00000000000E+00 -0.00000000000E+00 -0.18637867409E+04  0.18637867409E+04  0.25500000000E-02 0.  1.
    -200001    2    1    2    0    0  0.12475130470E+02  0.37352484033E+03 -0.46584082633E+03  0.85588689855E+03  0.61307281168E+03 0.  0.
   -5000001    2    3    3    0    0  0.24895728134E+03  0.52730647616E+02 -0.60175493710E+02  0.27830739420E+03  0.95255795065E+02 0.  0.
     200001    1    1    2    0    0 -0.12475130470E+02 -0.37352484033E+03 -0.10957993370E+04  0.13100464199E+04  0.61300000000E+03 0.  1.
         13    1    4    4    0    0  0.19092820150E+03  0.34462896411E+02 -0.10623007267E+02  0.19430421715E+03  0.10566000000E+00 0.  1.
    -200003    1    4    4    0    0  0.58029079843E+02  0.18267751205E+02 -0.49552486442E+02  0.84003177048E+02  0.30000000000E+02 0. -1.
    -200000    1    3    3    0    0 -0.23648215087E+03  0.32079419271E+03 -0.40566533262E+03  0.57757950435E+03  0.10100000000E+03 0.  1.
<mgrwt>
<rscale>  0 0.15008488E+04</rscale>
<asrwt>0</asrwt>
<pdfrwt beam="1">  1        2 0.26625524E+00 0.15008488E+04</pdfrwt>
<pdfrwt beam="2">  1       -2 0.43163798E-01 0.15008488E+04</pdfrwt>
<totfact> 0.46436001E+01</totfact>
</mgrwt>
</event>
<event>
 8    2  0.4480234E-052  0.1703673E+04  0.7818608E-02  0.8759272E-01
         -2   -1    0    0    0  501 -0.00000000000E+00  0.00000000000E+00  0.34597005648E+03  0.34597005649E+03  0.25500000000E-02 0. -1.
          2   -1    0    0  501    0  0.00000000000E+00 -0.00000000000E+00 -0.20973653761E+04  0.20973653762E+04  0.25500000000E-02 0.  1.
    -200001    2    1    2    0    0 -0.91360823020E+02  0.27506056279E+03 -0.13194013135E+03  0.68765629904E+03  0.60947344007E+03 0.  0.
   -5000001    2    3    3    0    0 -0.17344027466E+02  0.15369161758E+03 -0.35946638748E+03  0.40098906318E+03  0.87488379009E+02 0.  0.
     200001    1    1    2    0    0  0.91360823020E+02 -0.27506056279E+03 -0.16194551883E+04  0.17556791336E+04  0.61300000000E+03 0.  1.
         13    1    4    4    0    0 -0.16601135053E+02  0.11303211948E+03 -0.16943269111E+03  0.20435093760E+03  0.10566000000E+00 0.  1.
    -200003    1    4    4    0    0 -0.74289241267E+00  0.40659498099E+02 -0.19003369637E+03  0.19663812558E+03  0.30000000000E+02 0.  1.
    -200000    1    3    3    0    0 -0.74016795554E+02  0.12136894522E+03  0.22752625613E+03  0.28666723586E+03  0.10100000000E+03 0. -1.
<mgrwt>
<rscale>  0 0.17036732E+04</rscale>
<asrwt>0</asrwt>
<pdfrwt beam="1">  1        2 0.29962362E+00 0.17036732E+04</pdfrwt>
<pdfrwt beam="2">  1       -2 0.49424295E-01 0.17036732E+04</pdfrwt>
<totfact> 0.26404865E+01</totfact>
</mgrwt>
</event>
<event>
 8    2  0.4480234E-052  0.1373014E+04  0.7818608E-02  0.8973588E-01
         -2   -1    0    0    0  501 -0.00000000000E+00  0.00000000000E+00  0.30896863267E+03  0.30896863268E+03  0.25500000000E-02 0. -1.
          2   -1    0    0  501    0  0.00000000000E+00 -0.00000000000E+00 -0.15253702223E+04  0.15253702223E+04  0.25500000000E-02 0.  1.
    -200001    2    1    2    0    0 -0.27662993957E+01  0.57142463781E+02 -0.20177384069E+03  0.64753163286E+03  0.61262681886E+03 0.  0.
   -5000001    2    3    3    0    0 -0.76163304513E+02 -0.18758232552E+03  0.10071861971E+03  0.23889973070E+03  0.77076995080E+02 0.  0.
     200001    1    1    2    0    0  0.27662993957E+01 -0.57142463781E+02 -0.10146277490E+04  0.11868072221E+04  0.61300000000E+03 0.  1.
         13    1    4    4    0    0 -0.90694514959E+01 -0.26884872861E+02  0.45761883342E+02  0.53844335545E+02  0.10566000000E+00 0.  1.
    -200003    1    4    4    0    0 -0.67093853017E+02 -0.16069745266E+03  0.54956736367E+02  0.18505539516E+03  0.30000000000E+02 0.  1.
    -200000    1    3    3    0    0  0.73397005117E+02  0.24472478931E+03 -0.30249246040E+03  0.40863190215E+03  0.10100000000E+03 0.  1.
<mgrwt>
<rscale>  0 0.13730135E+04</rscale>
<asrwt>0</asrwt>
<pdfrwt beam="1">  1        2 0.21791003E+00 0.13730135E+04</pdfrwt>
<pdfrwt beam="2">  1       -2 0.44138377E-01 0.13730135E+04</pdfrwt>
<totfact> 0.67299825E+01</totfact>
</mgrwt>
</event>
<event>
 8    2  0.4480234E-052  0.2462596E+04  0.7818608E-02  0.8416433E-01
         -2   -1    0    0    0  501 -0.00000000000E+00  0.00000000000E+00  0.82770113111E+03  0.82770113111E+03  0.25500000000E-02 0. -1.
          2   -1    0    0  501    0  0.00000000000E+00 -0.00000000000E+00 -0.18316932365E+04  0.18316932365E+04  0.25500000000E-02 0.  1.
    -200001    2    1    2    0    0  0.80615219099E+03 -0.54320561278E+03 -0.97910918150E+03  0.15098980203E+04  0.61333803851E+03 0.  0.
   -5000001    2    3    3    0    0  0.24579960235E+03 -0.29222206510E+03 -0.75077652700E+03  0.84708238532E+03  0.89844277416E+02 0.  0.
     200001    1    1    2    0    0 -0.80615219099E+03  0.54320561278E+03 -0.24882923934E+02  0.11494963474E+04  0.61300000000E+03 0. -1.
         13    1    4    4    0    0  0.20741827445E+02 -0.14807202045E+02 -0.17639434403E+02  0.30994151839E+02  0.10566000000E+00 0.  1.
    -200003    1    4    4    0    0  0.22505777491E+03 -0.27741486305E+03 -0.73313709260E+03  0.81608823348E+03  0.30000000000E+02 0.  1.
    -200000    1    3    3    0    0  0.56035258863E+03 -0.25098354769E+03 -0.22833265450E+03  0.66281563493E+03  0.10100000000E+03 0. -1.
<mgrwt>
<rscale>  0 0.24625958E+04</rscale>
<asrwt>0</asrwt>
<pdfrwt beam="1">  1        2 0.26167046E+00 0.24625958E+04</pdfrwt>
<pdfrwt beam="2">  1       -2 0.11824302E+00 0.24625958E+04</pdfrwt>
<totfact> 0.48582106E+00</totfact>
</mgrwt>
</event>
<event>
 8    2  0.4480234E-052  0.1641222E+04  0.7818608E-02  0.8795617E-01
          2   -1    0    0  501    0  0.00000000000E+00  0.00000000000E+00  0.72283066270E+03  0.72283066270E+03  0.25500000000E-02 0.  1.
         -2   -1    0    0    0  501 -0.00000000000E+00 -0.00000000000E+00 -0.93161818854E+03  0.93161818855E+03  0.25500000000E-02 0. -1.
    -200001    2    1    2    0    0 -0.48934102685E+03 -0.84252280799E+02  0.12245692477E+03  0.79885258346E+03  0.61369101696E+03 0.  0.
   -5000001    2    3    3    0    0 -0.10380199076E+03 -0.13103184938E+03  0.29790811819E+03  0.36088820402E+03  0.11639093644E+03 0.  0.
     200001    1    1    2    0    0  0.48934102685E+03  0.84252280799E+02 -0.33124445062E+03  0.85559626778E+03  0.61300000000E+03 0.  1.
         13    1    4    4    0    0 -0.10013672972E+03 -0.13975186122E+03  0.25876120441E+03  0.31066914785E+03  0.10566000000E+00 0.  1.
    -200003    1    4    4    0    0 -0.36652610361E+01  0.87200118357E+01  0.39146913777E+02  0.50219056175E+02  0.30000000000E+02 0. -1.
    -200000    1    3    3    0    0 -0.38553903609E+03  0.46779568584E+02 -0.17545119341E+03  0.43796437944E+03  0.10100000000E+03 0. -1.
<mgrwt>
<rscale>  0 0.16412217E+04</rscale>
<asrwt>0</asrwt>
<pdfrwt beam="1">  1        2 0.10326152E+00 0.16412217E+04</pdfrwt>
<pdfrwt beam="2">  1       -2 0.13308831E+00 0.16412217E+04</pdfrwt>
<totfact> 0.16951573E+01</totfact>
</mgrwt>
</event>
<event>
 8    2  0.4480234E-052  0.1528961E+04  0.7818608E-02  0.8865419E-01
          2   -1    0    0  501    0  0.00000000000E+00  0.00000000000E+00  0.51156503579E+03  0.51156503580E+03  0.25500000000E-02 0.  1.
         -2   -1    0    0    0  501 -0.00000000000E+00 -0.00000000000E+00 -0.11424364275E+04  0.11424364275E+04  0.25500000000E-02 0. -1.
    -200001    2    1    2    0    0  0.34064308247E+03  0.18161078798E+02 -0.64357159054E+03  0.95236207629E+03  0.61354836630E+03 0.  0.
   -5000001    2    3    3    0    0  0.38058712013E+03 -0.17113787909E+03 -0.51957880476E+03  0.70135444189E+03  0.21863483056E+03 0.  0.
     200001    1    1    2    0    0 -0.34064308247E+03 -0.18161078798E+02  0.12700198779E+02  0.70163938705E+03  0.61300000000E+03 0. -1.
         13    1    4    4    0    0  0.17227627084E+03 -0.14647501513E+03 -0.13806983277E+03  0.26494779379E+03  0.10566000000E+00 0.  1.
    -200003    1    4    4    0    0  0.20831084929E+03 -0.24662863961E+02 -0.38150897199E+03  0.43640664810E+03  0.30000000000E+02 0.  1.
    -200000    1    3    3    0    0 -0.39944037660E+02  0.18929895789E+03 -0.12399278578E+03  0.25100763440E+03  0.10100000000E+03 0. -1.
<mgrwt>
<rscale>  0 0.15289611E+04</rscale>
<asrwt>0</asrwt>
<pdfrwt beam="1">  1        2 0.73080720E-01 0.15289611E+04</pdfrwt>
<pdfrwt beam="2">  1       -2 0.16320520E+00 0.15289611E+04</pdfrwt>
<totfact> 0.15060694E+01</totfact>
</mgrwt>
</event>
<event>
 8    2  0.4480234E-052  0.1718808E+04  0.7818608E-02  0.8750710E-01
         -2   -1    0    0    0  501 -0.00000000000E+00  0.00000000000E+00  0.25034691888E+03  0.25034691889E+03  0.25500000000E-02 0. -1.
          2   -1    0    0  501    0  0.00000000000E+00 -0.00000000000E+00 -0.29502067499E+04  0.29502067499E+04  0.25500000000E-02 0.  1.
    -200001    2    1    2    0    0  0.48208827551E+03  0.24804475448E+03 -0.86615127691E+03  0.11925219542E+04  0.61478066904E+03 0.  0.
   -5000001    2    3    3    0    0  0.64366616701E+02 -0.47532516754E+02 -0.58709451669E+03  0.60097230878E+03  0.10042580794E+03 0.  0.
     200001    1    1    2    0    0 -0.48208827551E+03 -0.24804475448E+03 -0.18337085541E+04  0.20080317147E+04  0.61300000000E+03 0. -1.
         13    1    4    4    0    0  0.35556768493E+02 -0.19875253642E+02 -0.49085851569E+03  0.49254583855E+03  0.10566000000E+00 0.  1.
    -200003    1    4    4    0    0  0.28809848208E+02 -0.27657263112E+02 -0.96236001005E+02  0.10842647023E+03  0.30000000000E+02 0. -1.
    -200000    1    3    3    0    0  0.41772165881E+03  0.29557727124E+03 -0.27905676022E+03  0.59154964537E+03  0.10100000000E+03 0. -1.
<mgrwt>
<rscale>  0 0.17188079E+04</rscale>
<asrwt>0</asrwt>
<pdfrwt beam="1">  1        2 0.42145809E+00 0.17188079E+04</pdfrwt>
<pdfrwt beam="2">  1       -2 0.35763847E-01 0.17188079E+04</pdfrwt>
<totfact> 0.17647768E+01</totfact>
</mgrwt>
</event>
<event>
 8    2  0.4480234E-052  0.1837653E+04  0.7818608E-02  0.8686528E-01
          2   -1    0    0  501    0  0.00000000000E+00  0.00000000000E+00  0.11149321404E+04  0.11149321404E+04  0.25500000000E-02 0.  1.
         -2   -1    0    0    0  501 -0.00000000000E+00 -0.00000000000E+00 -0.75721378735E+03  0.75721378735E+03  0.25500000000E-02 0. -1.
    -200001    2    1    2    0    0  0.65557515963E+03 -0.15928156926E+03  0.65505266458E+02  0.91490672246E+03  0.61450302084E+03 0.  0.
   -5000001    2    3    3    0    0  0.21215754952E+03 -0.19262521527E+03 -0.22585718623E+03  0.37377452555E+03  0.81121070053E+02 0.  0.
     200001    1    1    2    0    0 -0.65557515963E+03  0.15928156926E+03  0.29221308663E+03  0.95723920533E+03  0.61300000000E+03 0. -1.
         13    1    4    4    0    0  0.42324610736E+01 -0.32540389497E+02 -0.34537782916E+02  0.47640951797E+02  0.10566000000E+00 0.  1.
    -200003    1    4    4    0    0  0.20792508844E+03 -0.16008482577E+03 -0.19131940331E+03  0.32613357376E+03  0.30000000000E+02 0.  1.
    -200000    1    3    3    0    0  0.44341761012E+03  0.33343646015E+02  0.29136245268E+03  0.54113219690E+03  0.10100000000E+03 0.  1.
<mgrwt>
<rscale>  0 0.18376528E+04</rscale>
<asrwt>0</asrwt>
<pdfrwt beam="1">  1        2 0.15927602E+00 0.18376528E+04</pdfrwt>
<pdfrwt beam="2">  1       -2 0.10817340E+00 0.18376528E+04</pdfrwt>
<totfact> 0.15470989E+01</totfact>
</mgrwt>
</event>
<event>
 8    2  0.4480234E-052  0.1358563E+04  0.7818608E-02  0.8984371E-01
         -2   -1    0    0    0  501 -0.00000000000E+00  0.00000000000E+00  0.16588457771E+03  0.16588457773E+03  0.25500000000E-02 0. -1.
          2   -1    0    0  501    0  0.00000000000E+00 -0.00000000000E+00 -0.27815933895E+04  0.27815933895E+04  0.25500000000E-02 0.  1.
    -200001    2    1    2    0    0 -0.17000220760E+03  0.13457804890E+03 -0.17350097111E+04  0.18527579538E+04  0.61273267905E+03 0.  0.
   -5000001    2    3    3    0    0 -0.15703421946E+03  0.33423488092E+03 -0.75737102188E+03  0.84975774147E+03  0.11002114662E+03 0.  0.
     200001    1    1    2    0    0  0.17000220760E+03 -0.13457804890E+03 -0.88069910069E+03  0.10947200134E+04  0.61300000000E+03 0.  1.
         13    1    4    4    0    0 -0.12585262257E+03  0.23170734142E+03 -0.61432168426E+03  0.66851949679E+03  0.10566000000E+00 0.  1.
    -200003    1    4    4    0    0 -0.31181596892E+02  0.10252753951E+03 -0.14304933761E+03  0.18123824468E+03  0.30000000000E+02 0.  1.
    -200000    1    3    3    0    0 -0.12967988132E+02 -0.19965683203E+03 -0.97763868920E+03  0.10030002123E+04  0.10100000000E+03 0. -1.
<mgrwt>
<rscale>  0 0.13585631E+04</rscale>
<asrwt>0</asrwt>
<pdfrwt beam="1">  1        2 0.39737045E+00 0.13585631E+04</pdfrwt>
<pdfrwt beam="2">  1       -2 0.23697799E-01 0.13585631E+04</pdfrwt>
<totfact> 0.48321602E+01</totfact>
</mgrwt>
</event>
<event>
 8    2  0.4480234E-052  0.1771710E+04  0.7818608E-02  0.8721490E-01
          2   -1    0    0  501    0  0.00000000000E+00  0.00000000000E+00  0.10452442831E+04  0.10452442831E+04  0.25500000000E-02 0.  1.
         -2   -1    0    0    0  501 -0.00000000000E+00 -0.00000000000E+00 -0.75077061387E+03  0.75077061388E+03  0.25500000000E-02 0. -1.
    -200001    2    1    2    0    0  0.44704103102E+03  0.44506573252E+03  0.25472723511E+03  0.91551619241E+03  0.61266201497E+03 0.  0.
   -5000001    2    3    3    0    0  0.29307545665E+03 -0.74388860367E+02  0.15711745704E+02  0.31479339749E+03  0.86145796837E+02 0.  0.
     200001    1    1    2    0    0 -0.44704103102E+03 -0.44506573252E+03  0.39746434094E+02  0.88049870454E+03  0.61300000000E+03 0. -1.
         13    1    4    4    0    0  0.86873399189E+02  0.13641978994E+02  0.10129002919E+02  0.88519483402E+02  0.10566000000E+00 0.  1.
    -200003    1    4    4    0    0  0.20620205746E+03 -0.88030839361E+02  0.55827427852E+01  0.22627391409E+03  0.30000000000E+02 0.  1.
    -200000    1    3    3    0    0  0.15396557437E+03  0.51945459289E+03  0.23901548940E+03  0.60072279492E+03  0.10100000000E+03 0. -1.
<mgrwt>
<rscale>  0 0.17717096E+04</rscale>
<asrwt>0</asrwt>
<pdfrwt beam="1">  1        2 0.14932061E+00 0.17717096E+04</pdfrwt>
<pdfrwt beam="2">  1       -2 0.10725294E+00 0.17717096E+04</pdfrwt>
<totfact> 0.17468468E+01</totfact>
</mgrwt>
</event>
<event>
 8    2  0.4480234E-052  0.1696802E+04  0.7818608E-02  0.8763190E-01
         -2   -1    0    0    0  501 -0.00000000000E+00  0.00000000000E+00  0.44509523356E+03  0.44509523356E+03  0.25500000000E-02 0. -1.
          2   -1    0    0  501    0  0.00000000000E+00 -0.00000000000E+00 -0.16171475137E+04  0.16171475137E+04  0.25500000000E-02 0.  1.
    -200001    2    1    2    0    0  0.19983335427E+03 -0.14938838744E+03  0.59346463750E+02  0.66425772365E+03  0.61275285466E+03 0.  0.
   -5000001    2    3    3    0    0 -0.69711886420E+02 -0.22537471471E+03 -0.15804875839E+03  0.29562478790E+03  0.82225884339E+02 0.  0.
     200001    1    1    2    0    0 -0.19983335427E+03  0.14938838744E+03 -0.12313987439E+04  0.13979850236E+04  0.61300000000E+03 0.  1.
         13    1    4    4    0    0 -0.15816775488E+01 -0.12423088739E+03 -0.77960976004E+02  0.14667562861E+03  0.10566000000E+00 0.  1.
    -200003    1    4    4    0    0 -0.68130208871E+02 -0.10114382732E+03 -0.80087782386E+02  0.14894915929E+03  0.30000000000E+02 0.  1.
    -200000    1    3    3    0    0  0.26954524069E+03  0.75986327267E+02  0.21739522214E+03  0.36863293575E+03  0.10100000000E+03 0. -1.
<mgrwt>
<rscale>  0 0.16968025E+04</rscale>
<asrwt>0</asrwt>
<pdfrwt beam="1">  1        2 0.23102107E+00 0.16968025E+04</pdfrwt>
<pdfrwt beam="2">  1       -2 0.63585034E-01 0.16968025E+04</pdfrwt>
<totfact> 0.27677337E+01</totfact>
</mgrwt>
</event>
<event>
 8    2  0.4480234E-052  0.1839450E+04  0.7818608E-02  0.8685597E-01
         -2   -1    0    0    0  501 -0.00000000000E+00  0.00000000000E+00  0.65588235679E+03  0.65588235680E+03  0.25500000000E-02 0. -1.
          2   -1    0    0  501    0  0.00000000000E+00 -0.00000000000E+00 -0.12897032737E+04  0.12897032737E+04  0.25500000000E-02 0.  1.
    -200001    2    1    2    0    0 -0.42385526028E+03 -0.52552896875E+03 -0.44263486366E+03  0.10138372279E+04  0.61327507986E+03 0.  0.
   -5000001    2    3    3    0    0  0.46056886207E+01 -0.37742826050E+03 -0.31566440267E+03  0.53234465014E+03  0.20315882265E+03 0.  0.
     200001    1    1    2    0    0  0.42385526028E+03  0.52552896875E+03 -0.19118605322E+03  0.93174840253E+03  0.61300000000E+03 0.  1.
         13    1    4    4    0    0  0.12649649633E+02  0.14788894987E+01  0.20978345571E+02  0.24541860095E+02  0.10566000000E+00 0.  1.
    -200003    1    4    4    0    0 -0.80439610123E+01 -0.37890715000E+03 -0.33664274825E+03  0.50780279004E+03  0.30000000000E+02 0.  1.
    -200000    1    3    3    0    0 -0.42846094890E+03 -0.14810070825E+03 -0.12697046098E+03  0.48149257781E+03  0.10100000000E+03 0.  1.
<mgrwt>
<rscale>  0 0.18394495E+04</rscale>
<asrwt>0</asrwt>
<pdfrwt beam="1">  1        2 0.18424332E+00 0.18394495E+04</pdfrwt>
<pdfrwt beam="2">  1       -2 0.93697480E-01 0.18394495E+04</pdfrwt>
<totfact> 0.17291035E+01</totfact>
</mgrwt>
</event>
<event>
 8    2  0.4480234E-052  0.1938803E+04  0.7818608E-02  0.8635779E-01
          2   -1    0    0  501    0  0.00000000000E+00  0.00000000000E+00  0.24470178097E+03  0.24470178098E+03  0.25500000000E-02 0.  1.
         -2   -1    0    0    0  501 -0.00000000000E+00 -0.00000000000E+00 -0.38403447964E+04  0.38403447964E+04  0.25500000000E-02 0. -1.
    -200001    2    1    2    0    0  0.66378563455E+03 -0.34305873589E+03 -0.16402779817E+04  0.19038721048E+04  0.61312027300E+03 0.  0.
   -5000001    2    3    3    0    0 -0.43355932187E+01 -0.49055828306E+02 -0.24793833582E+01  0.10792975230E+03  0.96007356123E+02 0.  0.
     200001    1    1    2    0    0 -0.66378563455E+03  0.34305873589E+03 -0.19553650337E+04  0.21811744726E+04  0.61300000000E+03 0.  1.
         13    1    4    4    0    0  0.13089952127E+02 -0.66263547431E+02 -0.10572091606E+02  0.68366547740E+02  0.10566000000E+00 0.  1.
    -200003    1    4    4    0    0 -0.17425545346E+02  0.17207719125E+02  0.80927082479E+01  0.39563204558E+02  0.30000000000E+02 0.  1.
    -200000    1    3    3    0    0  0.66812122776E+03 -0.29400290758E+03 -0.16377985984E+04  0.17959423525E+04  0.10100000000E+03 0. -1.
<mgrwt>
<rscale>  0 0.19388029E+04</rscale>
<asrwt>0</asrwt>
<pdfrwt beam="1">  1        2 0.34957400E-01 0.19388029E+04</pdfrwt>
<pdfrwt beam="2">  1       -2 0.54862065E+00 0.19388029E+04</pdfrwt>
<totfact> 0.12021534E-01</totfact>
</mgrwt>
</event>
<event>
 8    2  0.4480234E-052  0.1849690E+04  0.7818608E-02  0.8680312E-01
          2   -1    0    0  501    0  0.00000000000E+00  0.00000000000E+00  0.62872358652E+03  0.62872358652E+03  0.25500000000E-02 0.  1.
         -2   -1    0    0    0  501 -0.00000000000E+00 -0.00000000000E+00 -0.13604365776E+04  0.13604365776E+04  0.25500000000E-02 0. -1.
    -200001    2    1    2    0    0 -0.10519452685E+03  0.23067471271E+03  0.32727116422E+03  0.73956296793E+03  0.61283787174E+03 0.  0.
   -5000001    2    3    3    0    0 -0.28005939930E+03  0.17039221535E+03  0.20753983874E+03  0.49718249552E+03  0.31088723839E+03 0.  0.
     200001    1    1    2    0    0  0.10519452685E+03 -0.23067471271E+03 -0.10589841553E+04  0.12495971962E+04  0.61300000000E+03 0. -1.
         13    1    4    4    0    0 -0.24005089493E+03  0.24401257781E+03  0.22061151468E+03  0.40722969177E+03  0.10566000000E+00 0.  1.
    -200003    1    4    4    0    0 -0.40008504369E+02 -0.73620362457E+02 -0.13071675935E+02  0.89952803747E+02  0.30000000000E+02 0.  1.
    -200000    1    3    3    0    0  0.17486487245E+03  0.60282497359E+02  0.11973132548E+03  0.24238047241E+03  0.10100000000E+03 0.  1.
<mgrwt>
<rscale>  0 0.18496903E+04</rscale>
<asrwt>0</asrwt>
<pdfrwt beam="1">  1        2 0.89817656E-01 0.18496903E+04</pdfrwt>
<pdfrwt beam="2">  1       -2 0.19434808E+00 0.18496903E+04</pdfrwt>
<totfact> 0.70104534E+00</totfact>
</mgrwt>
</event>
<event>
 8    2  0.4480234E-052  0.1866520E+04  0.7818608E-02  0.8671703E-01
         -2   -1    0    0    0  501 -0.00000000000E+00  0.00000000000E+00  0.65748662006E+03  0.65748662007E+03  0.25500000000E-02 0. -1.
          2   -1    0    0  501    0  0.00000000000E+00 -0.00000000000E+00 -0.13247027913E+04  0.13247027913E+04  0.25500000000E-02 0.  1.
    -200001    2    1    2    0    0  0.50430535771E+03 -0.48524650890E+03 -0.25756369930E+03  0.96564024093E+03  0.61346063239E+03 0.  0.
   -5000001    2    3    3    0    0  0.39543085657E+03 -0.40059624354E+03  0.92527430367E+02  0.57604542128E+03  0.80150416960E+02 0.  0.
     200001    1    1    2    0    0 -0.50430535771E+03  0.48524650890E+03 -0.40965247197E+03  0.10165491705E+04  0.61300000000E+03 0.  1.
         13    1    4    4    0    0  0.27201292993E+03 -0.31074104009E+03  0.68273427048E+02  0.41858368345E+03  0.10566000000E+00 0.  1.
    -200003    1    4    4    0    0  0.12341792664E+03 -0.89855203455E+02  0.24254003319E+02  0.15746173783E+03  0.30000000000E+02 0. -1.
    -200000    1    3    3    0    0  0.10887450114E+03 -0.84650265356E+02 -0.35009112967E+03  0.38959481965E+03  0.10100000000E+03 0.  1.
<mgrwt>
<rscale>  0 0.18665201E+04</rscale>
<asrwt>0</asrwt>
<pdfrwt beam="1">  1        2 0.18924325E+00 0.18665201E+04</pdfrwt>
<pdfrwt beam="2">  1       -2 0.93926661E-01 0.18665201E+04</pdfrwt>
<totfact> 0.16408319E+01</totfact>
</mgrwt>
</event>
<event>
 8    2  0.4480234E-052  0.1678821E+04  0.7818608E-02  0.8773537E-01
         -2   -1    0    0    0  501 -0.00000000000E+00  0.00000000000E+00  0.70776715621E+03  0.70776715622E+03  0.25500000000E-02 0. -1.
          2   -1    0    0  501    0  0.00000000000E+00 -0.00000000000E+00 -0.99553919268E+03  0.99553919268E+03  0.25500000000E-02 0.  1.
    -200001    2    1    2    0    0 -0.10224746777E+03  0.26890433885E+03  0.35939357586E+03  0.76663329073E+03  0.61302428334E+03 0.  0.
   -5000001    2    3    3    0    0  0.20068660834E+03  0.14966775214E+03  0.33557273018E+03  0.42493920127E+03  0.72723563841E+02 0.  0.
     200001    1    1    2    0    0  0.10224746777E+03 -0.26890433885E+03 -0.64716561233E+03  0.93667305817E+03  0.61300000000E+03 0.  1.
         13    1    4    4    0    0  0.12241815571E+03  0.60879158059E+02  0.20252384174E+03  0.24435301179E+03  0.10566000000E+00 0.  1.
    -200003    1    4    4    0    0  0.78268452638E+02  0.88788594084E+02  0.13304888844E+03  0.18058618949E+03  0.30000000000E+02 0.  1.
    -200000    1    3    3    0    0 -0.30293407611E+03  0.11923658671E+03  0.23820845679E+02  0.34169408946E+03  0.10100000000E+03 0.  1.
<mgrwt>
<rscale>  0 0.16788209E+04</rscale>
<asrwt>0</asrwt>
<pdfrwt beam="1">  1        2 0.14221988E+00 0.16788209E+04</pdfrwt>
<pdfrwt beam="2">  1       -2 0.10110959E+00 0.16788209E+04</pdfrwt>
<totfact> 0.21736813E+01</totfact>
</mgrwt>
</event>
<event>
 8    2  0.4480234E-052  0.1535016E+04  0.7818608E-02  0.8861496E-01
          2   -1    0    0  501    0  0.00000000000E+00  0.00000000000E+00  0.14210335195E+04  0.14210335195E+04  0.25500000000E-02 0.  1.
         -2   -1    0    0    0  501 -0.00000000000E+00 -0.00000000000E+00 -0.41453514592E+03  0.41453514592E+03  0.25500000000E-02 0. -1.
    -200001    2    1    2    0    0 -0.31214317352E+03 -0.23624991811E+02  0.90940159442E+03  0.11404512038E+04  0.61288350218E+03 0.  0.
   -5000001    2    3    3    0    0 -0.21547584123E+03 -0.17926205397E+03  0.87722464053E+03  0.92878206429E+03  0.12061646179E+03 0.  0.
     200001    1    1    2    0    0  0.31214317352E+03  0.23624991811E+02  0.97096779198E+02  0.69511746169E+03  0.61300000000E+03 0.  1.
         13    1    4    4    0    0 -0.14981652103E+02 -0.68357056054E+02  0.27446594736E+03  0.28324672008E+03  0.10566000000E+00 0.  1.
    -200003    1    4    4    0    0 -0.20049418913E+03 -0.11090499791E+03  0.60275869317E+03  0.64553534421E+03  0.30000000000E+02 0.  1.
    -200000    1    3    3    0    0 -0.96667332290E+02  0.15563706216E+03  0.32176953899E+02  0.21166913949E+03  0.10100000000E+03 0. -1.
<mgrwt>
<rscale>  0 0.15350157E+04</rscale>
<asrwt>0</asrwt>
<pdfrwt beam="1">  1        2 0.20300479E+00 0.15350157E+04</pdfrwt>
<pdfrwt beam="2">  1       -2 0.59219307E-01 0.15350157E+04</pdfrwt>
<totfact> 0.41423424E+01</totfact>
</mgrwt>
</event>
<event>
 8    2  0.4480234E-052  0.1582863E+04  0.7818608E-02  0.8831146E-01
         -2   -1    0    0    0  501 -0.00000000000E+00  0.00000000000E+00  0.15747630318E+03  0.15747630320E+03  0.25500000000E-02 0. -1.
          2   -1    0    0  501    0  0.00000000000E+00 -0.00000000000E+00 -0.39775122649E+04  0.39775122649E+04  0.25500000000E-02 0.  1.
    -200001    2    1    2    0    0  0.31446083310E+03  0.38824096986E+03 -0.19828078629E+04  0.21347903896E+04  0.61334029714E+03 0.  0.
   -5000001    2    3    3    0    0  0.21474341123E+03 -0.96539377701E+02 -0.70434981499E+03  0.76015897359E+03  0.16216787332E+03 0.  0.
     200001    1    1    2    0    0 -0.31446083310E+03 -0.38824096986E+03 -0.18372280988E+04  0.20001981785E+04  0.61300000000E+03 0. -1.
         13    1    4    4    0    0  0.41806315044E+02 -0.12057975556E+02 -0.37500154226E+03  0.37751732492E+03  0.10566000000E+00 0.  1.
    -200003    1    4    4    0    0  0.17293709619E+03 -0.84481402145E+02 -0.32934827273E+03  0.38264164867E+03  0.30000000000E+02 0.  1.
    -200000    1    3    3    0    0  0.99717421867E+02  0.48478034756E+03 -0.12784580479E+04  0.13746314160E+04  0.10100000000E+03 0.  1.
<mgrwt>
<rscale>  0 0.15828631E+04</rscale>
<asrwt>0</asrwt>
<pdfrwt beam="1">  1        2 0.56821598E+00 0.15828631E+04</pdfrwt>
<pdfrwt beam="2">  1       -2 0.22496617E-01 0.15828631E+04</pdfrwt>
<totfact> 0.99996357E+00</totfact>
</mgrwt>
</event>
<event>
 8    2  0.4480234E-052  0.1717989E+04  0.7818608E-02  0.8751171E-01
          2   -1    0    0  501    0  0.00000000000E+00  0.00000000000E+00  0.21795563214E+04  0.21795563214E+04  0.25500000000E-02 0. -1.
         -2   -1    0    0    0  501 -0.00000000000E+00 -0.00000000000E+00 -0.33854198747E+03  0.33854198748E+03  0.25500000000E-02 0.  1.
    -200001    2    1    2    0    0 -0.58677679908E+03  0.25946724769E+02  0.72897130962E+03  0.11190311438E+04  0.61306711387E+03 0.  0.
   -5000001    2    3    3    0    0 -0.40159117557E+03  0.11946494733E+03  0.77564075093E+03  0.88361999315E+03  0.60152903909E+02 0.  0.
     200001    1    1    2    0    0  0.58677679908E+03 -0.25946724769E+02  0.11120430243E+04  0.13990671651E+04  0.61300000000E+03 0.  1.
         13    1    4    4    0    0 -0.25631821531E+03  0.86157812527E+02  0.46940670189E+03  0.54172396948E+03  0.10566000000E+00 0.  1.
    -200003    1    4    4    0    0 -0.14527296025E+03  0.33307134798E+02  0.30623404904E+03  0.34189602367E+03  0.30000000000E+02 0. -1.
    -200000    1    3    3    0    0 -0.18518562351E+03 -0.93518222557E+02 -0.46669441314E+02  0.23541115067E+03  0.10100000000E+03 0.  1.
<mgrwt>
<rscale>  0 0.17179887E+04</rscale>
<asrwt>0</asrwt>
<pdfrwt beam="1">  1        2 0.31136519E+00 0.17179887E+04</pdfrwt>
<pdfrwt beam="2">  1       -2 0.48363141E-01 0.17179887E+04</pdfrwt>
<totfact> 0.25000170E+01</totfact>
</mgrwt>
</event>
<event>
 8    2  0.4480234E-052  0.1379802E+04  0.7818608E-02  0.8968570E-01
          2   -1    0    0  501    0  0.00000000000E+00  0.00000000000E+00  0.20854895660E+04  0.20854895660E+04  0.25500000000E-02 0.  1.
         -2   -1    0    0    0  501 -0.00000000000E+00 -0.00000000000E+00 -0.22822632578E+03  0.22822632579E+03  0.25500000000E-02 0. -1.
    -200001    2    1    2    0    0 -0.21597631074E+03 -0.16090170151E+03  0.12145968576E+04  0.13856403541E+04  0.61009715622E+03 0.  0.
   -5000001    2    3    3    0    0  0.12730495058E+03 -0.21807533377E+03  0.36922849838E+03  0.46587978124E+03  0.13019556408E+03 0.  0.
     200001    1    1    2    0    0  0.21597631074E+03  0.16090170151E+03  0.64266638262E+03  0.92807553771E+03  0.61300000000E+03 0.  1.
         13    1    4    4    0    0  0.31704885714E+02 -0.99955709034E+02  0.62017107269E+02  0.12182970206E+03  0.10566000000E+00 0.  1.
    -200003    1    4    4    0    0  0.95600064870E+02 -0.11811962474E+03  0.30721139111E+03  0.34405007918E+03  0.30000000000E+02 0.  1.
    -200000    1    3    3    0    0 -0.34328126132E+03  0.57173632255E+02  0.84536835922E+03  0.91976057285E+03  0.10100000000E+03 0. -1.
<mgrwt>
<rscale>  0 0.13798023E+04</rscale>
<asrwt>0</asrwt>
<pdfrwt beam="1">  1        2 0.29792708E+00 0.13798023E+04</pdfrwt>
<pdfrwt beam="2">  1       -2 0.32603761E-01 0.13798023E+04</pdfrwt>
<totfact> 0.62024219E+01</totfact>
</mgrwt>
</event>
<event>
 8    2  0.4480234E-052  0.1256684E+04  0.7818608E-02  0.9064638E-01
          2   -1    0    0  501    0  0.00000000000E+00  0.00000000000E+00  0.12587956068E+04  0.12587956068E+04  0.25500000000E-02 0.  1.
         -2   -1    0    0    0  501 -0.00000000000E+00 -0.00000000000E+00 -0.31364406022E+03  0.31364406023E+03  0.25500000000E-02 0. -1.
    -200001    2    1    2    0    0 -0.12367014519E+03 -0.61219218803E+02  0.47140465459E+03  0.78551704363E+03  0.61300291998E+03 0.  0.
   -5000001    2    3    3    0    0 -0.22109396973E+03  0.21653662839E+03  0.21412876909E+03  0.38174533400E+03  0.64091461164E+02 0.  0.
     200001    1    1    2    0    0  0.12367014519E+03  0.61219218803E+02  0.47374689202E+03  0.78692262343E+03  0.61300000000E+03 0.  1.
         13    1    4    4    0    0 -0.70415919678E+01  0.29021946492E+02  0.21628491948E+02  0.36873570801E+02  0.10566000000E+00 0.  1.
    -200003    1    4    4    0    0 -0.21405237777E+03  0.18751468190E+03  0.19250027714E+03  0.34487176320E+03  0.30000000000E+02 0.  1.
    -200000    1    3    3    0    0  0.97423824542E+02 -0.27775584719E+03  0.25727588550E+03  0.40377170963E+03  0.10100000000E+03 0. -1.
<mgrwt>
<rscale>  0 0.12566842E+04</rscale>
<asrwt>0</asrwt>
<pdfrwt beam="1">  1        2 0.17982795E+00 0.12566842E+04</pdfrwt>
<pdfrwt beam="2">  1       -2 0.44806294E-01 0.12566842E+04</pdfrwt>
<totfact> 0.91908533E+01</totfact>
</mgrwt>
</event>
<event>
 8    2  0.4480234E-052  0.1309970E+04  0.7818608E-02  0.9021696E-01
          2   -1    0    0  501    0  0.00000000000E+00  0.00000000000E+00  0.33404006320E+04  0.33404006320E+04  0.25500000000E-02 0.  1.
         -2   -1    0    0    0  501 -0.00000000000E+00 -0.00000000000E+00 -0.12842933315E+03  0.12842933317E+03  0.25500000000E-02 0. -1.
    -200001    2    1    2    0    0 -0.19519516266E+03  0.71130761170E+02  0.18794496305E+04  0.19874307167E+04  0.61187351915E+03 0.  0.
   -5000001    2    3    3    0    0 -0.26630234496E+03 -0.17645430360E+03  0.75445669304E+03  0.82891239360E+03  0.12584829910E+03 0.  0.
     200001    1    1    2    0    0  0.19519516266E+03 -0.71130761170E+02  0.13325216683E+04  0.14813992484E+04  0.61300000000E+03 0. -1.
         13    1    4    4    0    0 -0.14637679336E+03 -0.29379677457E+02  0.37395731334E+03  0.40265793727E+03  0.10566000000E+00 0.  1.
    -200003    1    4    4    0    0 -0.11992555161E+03 -0.14707462614E+03  0.38049937970E+03  0.42625445632E+03  0.30000000000E+02 0.  1.
    -200000    1    3    3    0    0  0.71107182305E+02  0.24758506477E+03  0.11249929374E+04  0.11585183231E+04  0.10100000000E+03 0.  1.
<mgrwt>
<rscale>  0 0.13099701E+04</rscale>
<asrwt>0</asrwt>
<pdfrwt beam="1">  1        2 0.47720008E+00 0.13099701E+04</pdfrwt>
<pdfrwt beam="2">  1       -2 0.18347048E-01 0.13099701E+04</pdfrwt>
<totfact> 0.37052982E+01</totfact>
</mgrwt>
</event>
<event>
 8    2  0.4480234E-052  0.2180229E+04  0.7818608E-02  0.8526703E-01
          2   -1    0    0  501    0  0.00000000000E+00  0.00000000000E+00  0.26984755170E+04  0.26984755170E+04  0.25500000000E-02 0.  1.
         -2   -1    0    0    0  501 -0.00000000000E+00 -0.00000000000E+00 -0.44037810542E+03  0.44037810543E+03  0.25500000000E-02 0. -1.
    -200001    2    1    2    0    0  0.61499675280E+03  0.47712610425E+03  0.47447315146E+03  0.10985215841E+04  0.61298823316E+03 0.  0.
   -5000001    2    3    3    0    0  0.37747695370E+03  0.54448318845E+03  0.49542971851E+03  0.83095325740E+03  0.77986645794E+02 0.  0.
     200001    1    1    2    0    0 -0.61499675280E+03 -0.47712610425E+03  0.17836242601E+04  0.20403320383E+04  0.61300000000E+03 0.  1.
         13    1    4    4    0    0  0.29553558157E+03  0.40523984540E+03  0.35100861690E+03  0.61218271176E+03  0.10566000000E+00 0.  1.
    -200003    1    4    4    0    0  0.81941372127E+02  0.13924334306E+03  0.14442110161E+03  0.21877054565E+03  0.30000000000E+02 0. -1.
    -200000    1    3    3    0    0  0.23751979910E+03 -0.67357084201E+02 -0.20956567046E+02  0.26756832671E+03  0.10100000000E+03 0. -1.
<mgrwt>
<rscale>  0 0.21802289E+04</rscale>
<asrwt>0</asrwt>
<pdfrwt beam="1">  1        2 0.38549652E+00 0.21802289E+04</pdfrwt>
<pdfrwt beam="2">  1       -2 0.62911155E-01 0.21802289E+04</pdfrwt>
<totfact> 0.74373119E+00</totfact>
</mgrwt>
</event>
<event>
 8    2  0.4480234E-052  0.1738347E+04  0.7818608E-02  0.8739791E-01
          2   -1    0    0  501    0  0.00000000000E+00  0.00000000000E+00  0.75611850957E+03  0.75611850957E+03  0.25500000000E-02 0.  1.
         -2   -1    0    0    0  501 -0.00000000000E+00 -0.00000000000E+00 -0.99913299454E+03  0.99913299454E+03  0.25500000000E-02 0. -1.
    -200001    2    1    2    0    0  0.11314086210E+03  0.39955044301E+03 -0.58131861015E+03  0.94121213634E+03  0.61278670669E+03 0.  0.
   -5000001    2    3    3    0    0  0.30123801457E+03  0.10247223980E+03 -0.44123836270E+03  0.54947309908E+03  0.77359501904E+02 0.  0.
     200001    1    1    2    0    0 -0.11314086210E+03 -0.39955044301E+03  0.33830412518E+03  0.81403936778E+03  0.61300000000E+03 0.  1.
         13    1    4    4    0    0  0.91215849427E+02  0.32758558120E+01 -0.97733556555E+02  0.13372704161E+03  0.10566000000E+00 0.  1.
    -200003    1    4    4    0    0  0.21002216514E+03  0.99196383987E+02 -0.34350480615E+03  0.41574605746E+03  0.30000000000E+02 0.  1.
    -200000    1    3    3    0    0 -0.18809715247E+03  0.29707820321E+03 -0.14008024744E+03  0.39173903726E+03  0.10100000000E+03 0.  1.
<mgrwt>
<rscale>  0 0.17383474E+04</rscale>
<asrwt>0</asrwt>
<pdfrwt beam="1">  1        2 0.10801693E+00 0.17383474E+04</pdfrwt>
<pdfrwt beam="2">  1       -2 0.14273328E+00 0.17383474E+04</pdfrwt>
<totfact> 0.13271204E+01</totfact>
</mgrwt>
</event>
<event>
 8    2  0.4480234E-052  0.1666141E+04  0.7818608E-02  0.8780914E-01
          2   -1    0    0  501    0  0.00000000000E+00  0.00000000000E+00  0.66887700082E+03  0.66887700082E+03  0.25500000000E-02 0.  1.
         -2   -1    0    0    0  501 -0.00000000000E+00 -0.00000000000E+00 -0.10375697140E+04  0.10375697140E+04  0.25500000000E-02 0. -1.
    -200001    2    1    2    0    0 -0.24474604445E+03 -0.35761495755E+03  0.18561897461E+03  0.77326959800E+03  0.61294566099E+03 0.  0.
   -5000001    2    3    3    0    0 -0.15287979429E+03 -0.26478403125E+03 -0.13076907535E+03  0.41639512854E+03  0.25060234895E+03 0.  0.
     200001    1    1    2    0    0  0.24474604445E+03  0.35761495755E+03 -0.55431168778E+03  0.93317711681E+03  0.61300000000E+03 0.  1.
         13    1    4    4    0    0 -0.86502699373E+02 -0.11850727281E+03 -0.19221666611E+03  0.24181387181E+03  0.10566000000E+00 0.  1.
    -200003    1    4    4    0    0 -0.66377094916E+02 -0.14627675844E+03  0.61447590758E+02  0.17458125672E+03  0.30000000000E+02 0.  1.
    -200000    1    3    3    0    0 -0.91866250160E+02 -0.92830926307E+02  0.31638804996E+03  0.35687446946E+03  0.10100000000E+03 0.  1.
<mgrwt>
<rscale>  0 0.16661411E+04</rscale>
<asrwt>0</asrwt>
<pdfrwt beam="1">  1        2 0.95553857E-01 0.16661411E+04</pdfrwt>
<pdfrwt beam="2">  1       -2 0.14822425E+00 0.16661411E+04</pdfrwt>
<totfact> 0.14071554E+01</totfact>
</mgrwt>
</event>
<event>
 8    2  0.4480234E-052  0.2102470E+04  0.7818608E-02  0.8560156E-01
         -2   -1    0    0    0  501 -0.00000000000E+00  0.00000000000E+00  0.36551890604E+03  0.36551890605E+03  0.25500000000E-02 0. -1.
          2   -1    0    0  501    0  0.00000000000E+00 -0.00000000000E+00 -0.30233600053E+04  0.30233600053E+04  0.25500000000E-02 0.  1.
    -200001    2    1    2    0    0  0.70980028641E+03  0.43695491852E+03 -0.16269167548E+04  0.19282899714E+04  0.61375731313E+03 0.  0.
   -5000001    2    3    3    0    0  0.22583490363E+03  0.23077809263E+03 -0.29347160621E+03  0.49127628339E+03  0.22575843559E+03 0.  0.
     200001    1    1    2    0    0 -0.70980028641E+03 -0.43695491852E+03 -0.10309243444E+04  0.14605889399E+04  0.61300000000E+03 0.  1.
         13    1    4    4    0    0  0.61010640340E+02  0.96237675394E+02 -0.24617064996E+03  0.27126368807E+03  0.10566000000E+00 0.  1.
    -200003    1    4    4    0    0  0.16482426329E+03  0.13454041724E+03 -0.47300956249E+02  0.22001259532E+03  0.30000000000E+02 0.  1.
    -200000    1    3    3    0    0  0.48396538278E+03  0.20617682589E+03 -0.13334451486E+04  0.14370136881E+04  0.10100000000E+03 0.  1.
<mgrwt>
<rscale>  0 0.21024702E+04</rscale>
<asrwt>0</asrwt>
<pdfrwt beam="1">  1        2 0.43190856E+00 0.21024702E+04</pdfrwt>
<pdfrwt beam="2">  1       -2 0.52216988E-01 0.21024702E+04</pdfrwt>
<totfact> 0.73335429E+00</totfact>
</mgrwt>
</event>
<event>
 8    2  0.4480234E-052  0.1900367E+04  0.7818608E-02  0.8654674E-01
          2   -1    0    0  501    0  0.00000000000E+00  0.00000000000E+00  0.38089416721E+04  0.38089416721E+04  0.25500000000E-02 0.  1.
         -2   -1    0    0    0  501 -0.00000000000E+00 -0.00000000000E+00 -0.23703400334E+03  0.23703400335E+03  0.25500000000E-02 0. -1.
    -200001    2    1    2    0    0 -0.61491190593E+03  0.39082533560E+02  0.26036402357E+04  0.27448396647E+04  0.61282804403E+03 0.  0.
   -5000001    2    3    3    0    0 -0.11651974272E+03 -0.94040545011E+02  0.12625962608E+03  0.21230492906E+03  0.81923227316E+02 0.  0.
     200001    1    1    2    0    0  0.61491190593E+03 -0.39082533560E+02  0.96826743303E+03  0.13011360107E+04  0.61300000000E+03 0. -1.
         13    1    4    4    0    0 -0.35336833643E+02 -0.66874708442E+02  0.34024285230E+02  0.82937214750E+02  0.10566000000E+00 0.  1.
    -200003    1    4    4    0    0 -0.81182909078E+02 -0.27165836569E+02  0.92235340850E+02  0.12936771430E+03  0.30000000000E+02 0.  1.
    -200000    1    3    3    0    0 -0.49839216321E+03  0.13312307857E+03  0.24773806096E+04  0.25325347357E+04  0.10100000000E+03 0.  1.
<mgrwt>
<rscale>  0 0.19003670E+04</rscale>
<asrwt>0</asrwt>
<pdfrwt beam="1">  1        2 0.54413450E+00 0.19003670E+04</pdfrwt>
<pdfrwt beam="2">  1       -2 0.33862002E-01 0.19003670E+04</pdfrwt>
<totfact> 0.59082939E+00</totfact>
</mgrwt>
</event>
<event>
 8    2  0.4480234E-052  0.3153270E+04  0.7818608E-02  0.8201269E-01
          2   -1    0    0  501    0  0.00000000000E+00  0.00000000000E+00  0.13383661804E+04  0.13383661804E+04  0.25500000000E-02 0.  1.
         -2   -1    0    0    0  501 -0.00000000000E+00 -0.00000000000E+00 -0.18573228800E+04  0.18573228800E+04  0.25500000000E-02 0. -1.
    -200001    2    1    2    0    0  0.20385896397E+03 -0.12579064294E+04 -0.96588567711E+03  0.17126511063E+04  0.61347502646E+03 0.  0.
   -5000001    2    3    3    0    0 -0.29983215510E+02 -0.43709882860E+03 -0.45185115196E+02  0.45316795543E+03  0.10660732629E+03 0.  0.
     200001    1    1    2    0    0 -0.20385896397E+03  0.12579064294E+04  0.44692897748E+03  0.14830379541E+04  0.61300000000E+03 0.  1.
         13    1    4    4    0    0 -0.41764600723E+02 -0.15195088843E+03  0.20125618673E+02  0.15886600033E+03  0.10566000000E+00 0.  1.
    -200003    1    4    4    0    0  0.11781385214E+02 -0.28514794017E+03 -0.65310733869E+02  0.29430195511E+03  0.30000000000E+02 0.  1.
    -200000    1    3    3    0    0  0.23384217948E+03 -0.82080760084E+03 -0.92070056191E+03  0.12594831508E+04  0.10100000000E+03 0. -1.
<mgrwt>
<rscale>  0 0.31532701E+04</rscale>
<asrwt>0</asrwt>
<pdfrwt beam="1">  1        2 0.19119517E+00 0.31532701E+04</pdfrwt>
<pdfrwt beam="2">  1       -2 0.26533184E+00 0.31532701E+04</pdfrwt>
<totfact> 0.78821159E-01</totfact>
</mgrwt>
</event>
<event>
 8    2  0.4480234E-052  0.1501368E+04  0.7818608E-02  0.8883544E-01
          2   -1    0    0  501    0  0.00000000000E+00  0.00000000000E+00  0.24514581548E+04  0.24514581548E+04  0.25500000000E-02 0.  1.
         -2   -1    0    0    0  501 -0.00000000000E+00 -0.00000000000E+00 -0.22987386643E+03  0.22987386645E+03  0.25500000000E-02 0. -1.
    -200001    2    1    2    0    0 -0.92615231118E+02 -0.68344405218E+02  0.36426087806E+03  0.72208017699E+03  0.61275219784E+03 0.  0.
   -5000001    2    3    3    0    0 -0.66823041367E+02  0.21120429520E+03  0.35166791678E+03  0.42346287068E+03  0.81104290764E+02 0.  0.
     200001    1    1    2    0    0  0.92615231118E+02  0.68344405218E+02  0.18573234103E+04  0.19592518443E+04  0.61300000000E+03 0.  1.
         13    1    4    4    0    0 -0.67988497642E+01  0.11445322240E+03  0.13720899978E+03  0.17880739711E+03  0.10566000000E+00 0.  1.
    -200003    1    4    4    0    0 -0.60024191603E+02  0.96751072798E+02  0.21445891700E+03  0.24465547357E+03  0.30000000000E+02 0.  1.
    -200000    1    3    3    0    0 -0.25792189751E+02 -0.27954870042E+03  0.12592961282E+02  0.29861730632E+03  0.10100000000E+03 0. -1.
<mgrwt>
<rscale>  0 0.15013676E+04</rscale>
<asrwt>0</asrwt>
<pdfrwt beam="1">  1        2 0.35020831E+00 0.15013676E+04</pdfrwt>
<pdfrwt beam="2">  1       -2 0.32839124E-01 0.15013676E+04</pdfrwt>
<totfact> 0.39181615E+01</totfact>
</mgrwt>
</event>
<event>
 8    2  0.4480234E-052  0.1852485E+04  0.7818608E-02  0.8678876E-01
         -2   -1    0    0    0  501 -0.00000000000E+00  0.00000000000E+00  0.32576627931E+03  0.32576627932E+03  0.25500000000E-02 0. -1.
          2   -1    0    0  501    0  0.00000000000E+00 -0.00000000000E+00 -0.26335611100E+04  0.26335611100E+04  0.25500000000E-02 0.  1.
    -200001    2    1    2    0    0 -0.32970148689E+03  0.50235251588E+03 -0.59667630771E+03  0.10449719572E+04  0.61227661606E+03 0.  0.
   -5000001    2    3    3    0    0 -0.46727771107E+03  0.22510098543E+03 -0.29418422734E+03  0.60056438836E+03  0.71514418433E+02 0.  0.
     200001    1    1    2    0    0  0.32970148689E+03 -0.50235251588E+03 -0.17111185230E+04  0.19143554321E+04  0.61300000000E+03 0.  1.
         13    1    4    4    0    0 -0.65738806027E+02  0.10552975503E+02 -0.27069577526E+02  0.71873006764E+02  0.10566000000E+00 0.  1.
    -200003    1    4    4    0    0 -0.40153890504E+03  0.21454800993E+03 -0.26711464981E+03  0.52869138159E+03  0.30000000000E+02 0.  1.
    -200000    1    3    3    0    0  0.13757622418E+03  0.27725153045E+03 -0.30249208037E+03  0.44440756888E+03  0.10100000000E+03 0.  1.
<mgrwt>
<rscale>  0 0.18524853E+04</rscale>
<asrwt>0</asrwt>
<pdfrwt beam="1">  1        2 0.37622301E+00 0.18524853E+04</pdfrwt>
<pdfrwt beam="2">  1       -2 0.46538041E-01 0.18524853E+04</pdfrwt>
<totfact> 0.15459467E+01</totfact>
</mgrwt>
</event>
<event>
 8    2  0.4480234E-052  0.1371507E+04  0.7818608E-02  0.8974706E-01
         -2   -1    0    0    0  501 -0.00000000000E+00  0.00000000000E+00  0.20698060942E+03  0.20698060944E+03  0.25500000000E-02 0. -1.
          2   -1    0    0  501    0  0.00000000000E+00 -0.00000000000E+00 -0.22719887889E+04  0.22719887889E+04  0.25500000000E-02 0.  1.
    -200001    2    1    2    0    0  0.92102982941E+02  0.14643674288E+03 -0.14898562089E+04  0.16207762567E+04  0.61426172921E+03 0.  0.
   -5000001    2    3    3    0    0  0.31022579367E+03  0.26325472036E+02 -0.10938482400E+04  0.11422079864E+04  0.10583968262E+03 0.  0.
     200001    1    1    2    0    0 -0.92102982941E+02 -0.14643674288E+03 -0.57515197065E+03  0.85819314171E+03  0.61300000000E+03 0. -1.
         13    1    4    4    0    0  0.16082346369E+03  0.30586790785E+02 -0.40791061133E+03  0.43953477251E+03  0.10566000000E+00 0.  1.
    -200003    1    4    4    0    0  0.14940232998E+03 -0.42613187493E+01 -0.68593762867E+03  0.70267321385E+03  0.30000000000E+02 0.  1.
    -200000    1    3    3    0    0 -0.21812281073E+03  0.12011127085E+03 -0.39600796887E+03  0.47856827032E+03  0.10100000000E+03 0.  1.
<mgrwt>
<rscale>  0 0.13715067E+04</rscale>
<asrwt>0</asrwt>
<pdfrwt beam="1">  1        2 0.32456981E+00 0.13715067E+04</pdfrwt>
<pdfrwt beam="2">  1       -2 0.29568660E-01 0.13715067E+04</pdfrwt>
<totfact> 0.59746305E+01</totfact>
</mgrwt>
</event>
<event>
 8    2  0.4480234E-052  0.1454589E+04  0.7818608E-02  0.8915225E-01
         -2   -1    0    0    0  501 -0.00000000000E+00  0.00000000000E+00  0.50985347295E+03  0.50985347296E+03  0.25500000000E-02 0. -1.
          2   -1    0    0  501    0  0.00000000000E+00 -0.00000000000E+00 -0.10374695994E+04  0.10374695994E+04  0.25500000000E-02 0.  1.
    -200001    2    1    2    0    0 -0.74037417769E+01 -0.37752493597E+03 -0.37518656500E+03  0.81139939165E+03  0.61239213054E+03 0.  0.
   -5000001    2    3    3    0    0 -0.10136015312E+03 -0.50288725454E+03 -0.20442587237E+03  0.55860751619E+03  0.84160254509E+02 0.  0.
     200001    1    1    2    0    0  0.74037417769E+01  0.37752493597E+03 -0.15242956149E+03  0.73592368075E+03  0.61300000000E+03 0. -1.
         13    1    4    4    0    0 -0.46255411700E+02 -0.37017740584E+03 -0.14810093369E+03  0.40137859015E+03  0.10566000000E+00 0.  1.
    -200003    1    4    4    0    0 -0.55104741424E+02 -0.13270984870E+03 -0.56324938674E+02  0.15722892605E+03  0.30000000000E+02 0. -1.
    -200000    1    3    3    0    0  0.93956411348E+02  0.12536231857E+03 -0.17076069263E+03  0.25279187546E+03  0.10100000000E+03 0.  1.
<mgrwt>
<rscale>  0 0.14545893E+04</rscale>
<asrwt>0</asrwt>
<pdfrwt beam="1">  1        2 0.14820994E+00 0.14545893E+04</pdfrwt>
<pdfrwt beam="2">  1       -2 0.72836210E-01 0.14545893E+04</pdfrwt>
<totfact> 0.44072369E+01</totfact>
</mgrwt>
</event>
<event>
 8    2  0.4480234E-052  0.1295840E+04  0.7818608E-02  0.9032870E-01
          2   -1    0    0  501    0  0.00000000000E+00  0.00000000000E+00  0.23137489515E+04  0.23137489515E+04  0.25500000000E-02 0.  1.
         -2   -1    0    0    0  501 -0.00000000000E+00 -0.00000000000E+00 -0.18143735511E+03  0.18143735513E+03  0.25500000000E-02 0. -1.
    -200001    2    1    2    0    0 -0.16279790387E+03  0.10374004962E+03  0.90504143779E+03  0.11098249106E+04  0.61265501933E+03 0.  0.
   -5000001    2    3    3    0    0  0.30571684520E+02  0.22215542456E+03  0.99899508785E+02  0.26728795322E+03  0.10571318519E+03 0.  0.
     200001    1    1    2    0    0  0.16279790387E+03 -0.10374004962E+03  0.12272701586E+04  0.13853613961E+04  0.61300000000E+03 0.  1.
         13    1    4    4    0    0  0.69908056346E+01 -0.34758022954E+01  0.25489986425E+02  0.26659016054E+02  0.10566000000E+00 0.  1.
    -200003    1    4    4    0    0  0.23580878886E+02  0.22563122686E+03  0.74409522360E+02  0.24062893716E+03  0.30000000000E+02 0.  1.
    -200000    1    3    3    0    0 -0.19336958839E+03 -0.11841537495E+03  0.80514192901E+03  0.84253695740E+03  0.10100000000E+03 0.  1.
<mgrwt>
<rscale>  0 0.12958403E+04</rscale>
<asrwt>0</asrwt>
<pdfrwt beam="1">  1        2 0.33053557E+00 0.12958403E+04</pdfrwt>
<pdfrwt beam="2">  1       -2 0.25919622E-01 0.12958403E+04</pdfrwt>
<totfact> 0.72869066E+01</totfact>
</mgrwt>
</event>
<event>
 8    2  0.4480234E-052  0.1402400E+04  0.7818608E-02  0.8952083E-01
         -2   -1    0    0    0  501 -0.00000000000E+00  0.00000000000E+00  0.17076186385E+03  0.17076186387E+03  0.25500000000E-02 0. -1.
          2   -1    0    0  501    0  0.00000000000E+00 -0.00000000000E+00 -0.28793409122E+04  0.28793409122E+04  0.25500000000E-02 0.  1.
    -200001    2    1    2    0    0  0.32836141490E+01 -0.19763341153E+03 -0.74955115321E+03  0.98791242563E+03  0.61243308367E+03 0.  0.
   -5000001    2    3    3    0    0  0.23437819405E+03 -0.27951971321E+03 -0.49002151975E+03  0.61687778856E+03  0.85747934574E+02 0.  0.
     200001    1    1    2    0    0 -0.32836141490E+01  0.19763341153E+03 -0.19590278952E+04  0.20621903505E+04  0.61300000000E+03 0.  1.
         13    1    4    4    0    0  0.81272259064E+02 -0.10020019832E+03 -0.23620099428E+03  0.26913970480E+03  0.10566000000E+00 0.  1.
    -200003    1    4    4    0    0  0.15310593499E+03 -0.17931951489E+03 -0.25382052547E+03  0.34773808376E+03  0.30000000000E+02 0.  1.
    -200000    1    3    3    0    0 -0.23109457990E+03  0.81886301682E+02 -0.25952963346E+03  0.37103463707E+03  0.10100000000E+03 0. -1.
<mgrwt>
<rscale>  0 0.14024003E+04</rscale>
<asrwt>0</asrwt>
<pdfrwt beam="1">  1        2 0.41133439E+00 0.14024003E+04</pdfrwt>
<pdfrwt beam="2">  1       -2 0.24394554E-01 0.14024003E+04</pdfrwt>
<totfact> 0.40430839E+01</totfact>
</mgrwt>
</event>
<event>
 8    2  0.4480234E-052  0.1335618E+04  0.7818608E-02  0.9001787E-01
          2   -1    0    0  501    0  0.00000000000E+00  0.00000000000E+00  0.10666276078E+04  0.10666276078E+04  0.25500000000E-02 0.  1.
         -2   -1    0    0    0  501 -0.00000000000E+00 -0.00000000000E+00 -0.41811115675E+03  0.41811115676E+03  0.25500000000E-02 0. -1.
    -200001    2    1    2    0    0 -0.50244105531E+02  0.12727474183E+03  0.57646154042E+03  0.85253291186E+03  0.61300989239E+03 0.  0.
   -5000001    2    3    3    0    0 -0.16974926268E+02  0.34643541588E+03  0.46919279848E+03  0.58636412643E+03  0.58097858071E+02 0.  0.
     200001    1    1    2    0    0  0.50244105531E+02 -0.12727474183E+03  0.72054910630E+02  0.63220585271E+03  0.61300000000E+03 0. -1.
         13    1    4    4    0    0  0.33436498257E+01  0.43140024656E+02  0.86481408769E+02  0.96702052451E+02  0.10566000000E+00 0.  1.
    -200003    1    4    4    0    0 -0.20318576094E+02  0.30329539123E+03  0.38271138971E+03  0.48966207398E+03  0.30000000000E+02 0.  1.
    -200000    1    3    3    0    0 -0.33269179263E+02 -0.21916067405E+03  0.10726874194E+03  0.26616878543E+03  0.10100000000E+03 0.  1.
<mgrwt>
<rscale>  0 0.13356181E+04</rscale>
<asrwt>0</asrwt>
<pdfrwt beam="1">  1        2 0.15237538E+00 0.13356181E+04</pdfrwt>
<pdfrwt beam="2">  1       -2 0.59730164E-01 0.13356181E+04</pdfrwt>
<totfact> 0.65458105E+01</totfact>
</mgrwt>
</event>
<event>
 8    2  0.4480234E-052  0.1551298E+04  0.7818608E-02  0.8851039E-01
         -2   -1    0    0    0  501 -0.00000000000E+00  0.00000000000E+00  0.66399293190E+03  0.66399293190E+03  0.25500000000E-02 0. -1.
          2   -1    0    0  501    0  0.00000000000E+00 -0.00000000000E+00 -0.90608115328E+03  0.90608115328E+03  0.25500000000E-02 0.  1.
    -200001    2    1    2    0    0  0.15231339447E+02  0.34844195920E+03  0.20871243239E+03  0.73303524375E+03  0.61002950462E+03 0.  0.
   -5000001    2    3    3    0    0 -0.19799067875E+03  0.31513934484E+03 -0.44777766199E+02  0.38514018206E+03  0.88401334556E+02 0.  0.
     200001    1    1    2    0    0 -0.15231339447E+02 -0.34844195920E+03 -0.45080065376E+03  0.83703884143E+03  0.61300000000E+03 0.  1.
         13    1    4    4    0    0 -0.15138115004E+03  0.17436539331E+03 -0.34800675867E+02  0.23351796756E+03  0.10566000000E+00 0.  1.
    -200003    1    4    4    0    0 -0.46609528718E+02  0.14077395154E+03 -0.99770903321E+01  0.15162221450E+03  0.30000000000E+02 0.  1.
    -200000    1    3    3    0    0  0.21322201820E+03  0.33302614364E+02  0.25349019859E+03  0.34789506169E+03  0.10100000000E+03 0. -1.
<mgrwt>
<rscale>  0 0.15512981E+04</rscale>
<asrwt>0</asrwt>
<pdfrwt beam="1">  1        2 0.12944016E+00 0.15512981E+04</pdfrwt>
<pdfrwt beam="2">  1       -2 0.94856133E-01 0.15512981E+04</pdfrwt>
<totfact> 0.29075252E+01</totfact>
</mgrwt>
</event>
<event>
 8    2  0.4480234E-052  0.1534071E+04  0.7818608E-02  0.8862107E-01
          2   -1    0    0  501    0  0.00000000000E+00  0.00000000000E+00  0.83316604320E+03  0.83316604320E+03  0.25500000000E-02 0.  1.
         -2   -1    0    0    0  501 -0.00000000000E+00 -0.00000000000E+00 -0.70615429421E+03  0.70615429421E+03  0.25500000000E-02 0. -1.
    -200001    2    1    2    0    0 -0.12688852209E+03 -0.31221236250E+03  0.38471457807E+03  0.79382922113E+03  0.60710976718E+03 0.  0.
   -5000001    2    3    3    0    0 -0.16493146880E+02 -0.36676071126E+03  0.60919842969E+00  0.37801603725E+03  0.90057259977E+02 0.  0.
     200001    1    1    2    0    0  0.12688852209E+03  0.31221236250E+03 -0.25770282908E+03  0.74549111628E+03  0.61300000000E+03 0. -1.
         13    1    4    4    0    0 -0.78921739640E+01 -0.32809445427E+03  0.39640043706E+01  0.32821331756E+03  0.10566000000E+00 0.  1.
    -200003    1    4    4    0    0 -0.86009729161E+01 -0.38666256992E+02 -0.33548059409E+01  0.49802719682E+02  0.30000000000E+02 0. -1.
    -200000    1    3    3    0    0 -0.11039537521E+03  0.54548348758E+02  0.38410537964E+03  0.41581318388E+03  0.10100000000E+03 0.  1.
<mgrwt>
<rscale>  0 0.15340714E+04</rscale>
<asrwt>0</asrwt>
<pdfrwt beam="1">  1        2 0.11902372E+00 0.15340714E+04</pdfrwt>
<pdfrwt beam="2">  1       -2 0.10087919E+00 0.15340714E+04</pdfrwt>
<totfact> 0.28169835E+01</totfact>
</mgrwt>
</event>
<event>
 8    2  0.4480234E-052  0.1368329E+04  0.7818608E-02  0.8977068E-01
          2   -1    0    0  501    0  0.00000000000E+00  0.00000000000E+00  0.25207807832E+04  0.25207807832E+04  0.25500000000E-02 0.  1.
         -2   -1    0    0    0  501 -0.00000000000E+00 -0.00000000000E+00 -0.18568883251E+03  0.18568883253E+03  0.25500000000E-02 0. -1.
    -200001    2    1    2    0    0 -0.29261418208E+03  0.80523184634E+02  0.12250409710E+04  0.14025949207E+04  0.61191509878E+03 0.  0.
   -5000001    2    3    3    0    0 -0.20955341051E+03 -0.24143837024E+03  0.48687104179E+03  0.58671859491E+03  0.70641204636E+02 0.  0.
     200001    1    1    2    0    0  0.29261418208E+03 -0.80523184634E+02  0.11100509796E+04  0.13038746950E+04  0.61300000000E+03 0.  1.
         13    1    4    4    0    0 -0.44140104903E+02 -0.18416396880E+02  0.62712998375E+02  0.78869790567E+02  0.10566000000E+00 0.  1.
    -200003    1    4    4    0    0 -0.16541330561E+03 -0.22302197336E+03  0.42415804342E+03  0.50784880434E+03  0.30000000000E+02 0.  1.
    -200000    1    3    3    0    0 -0.83060771567E+02  0.32196155488E+03  0.73816992922E+03  0.81587632580E+03  0.10100000000E+03 0.  1.
<mgrwt>
<rscale>  0 0.13683287E+04</rscale>
<asrwt>0</asrwt>
<pdfrwt beam="1">  1        2 0.36011151E+00 0.13683287E+04</pdfrwt>
<pdfrwt beam="2">  1       -2 0.26526978E-01 0.13683287E+04</pdfrwt>
<totfact> 0.54174136E+01</totfact>
</mgrwt>
</event>
<event>
 8    2  0.4480234E-052  0.1564377E+04  0.7818608E-02  0.8842737E-01
          2   -1    0    0  501    0  0.00000000000E+00  0.00000000000E+00  0.10664030694E+04  0.10664030694E+04  0.25500000000E-02 0.  1.
         -2   -1    0    0    0  501 -0.00000000000E+00 -0.00000000000E+00 -0.57372159024E+03  0.57372159024E+03  0.25500000000E-02 0. -1.
    -200001    2    1    2    0    0  0.44794031208E+03 -0.18681537215E+02  0.44333090715E+03  0.87907012682E+03  0.61255405607E+03 0.  0.
   -5000001    2    3    3    0    0  0.39946348855E+03 -0.14803755440E+02  0.57614942067E+03  0.70526909936E+03  0.75273618986E+02 0.  0.
     200001    1    1    2    0    0 -0.44794031208E+03  0.18681537215E+02  0.49350572047E+02  0.76105453286E+03  0.61300000000E+03 0. -1.
         13    1    4    4    0    0 -0.19463438275E+01  0.27895498294E+01  0.23415377411E+01  0.41308359413E+01  0.10566000000E+00 0.  1.
    -200003    1    4    4    0    0  0.40140983238E+03 -0.17593305269E+02  0.57380788293E+03  0.70113826342E+03  0.30000000000E+02 0.  1.
    -200000    1    3    3    0    0  0.48476823533E+02 -0.38777817751E+01 -0.13281851352E+03  0.17380102746E+03  0.10100000000E+03 0. -1.
<mgrwt>
<rscale>  0 0.15643765E+04</rscale>
<asrwt>0</asrwt>
<pdfrwt beam="1">  1        2 0.15234329E+00 0.15643765E+04</pdfrwt>
<pdfrwt beam="2">  1       -2 0.81960228E-01 0.15643765E+04</pdfrwt>
<totfact> 0.32271988E+01</totfact>
</mgrwt>
</event>
<event>
 8    2  0.4480234E-052  0.1913898E+04  0.7818608E-02  0.8647969E-01
         -2   -1    0    0    0  501 -0.00000000000E+00  0.00000000000E+00  0.67377932549E+03  0.67377932549E+03  0.25500000000E-02 0. -1.
          2   -1    0    0  501    0  0.00000000000E+00 -0.00000000000E+00 -0.13591264613E+04  0.13591264613E+04  0.25500000000E-02 0.  1.
    -200001    2    1    2    0    0  0.65461078073E+02 -0.43863097834E+03 -0.96511209259E+03  0.12262337847E+04  0.61280148143E+03 0.  0.
   -5000001    2    3    3    0    0 -0.15814930347E+03 -0.13903046232E+03 -0.74981504714E+03  0.78315829487E+03  0.82302115800E+02 0.  0.
     200001    1    1    2    0    0 -0.65461078073E+02  0.43863097834E+03  0.27976495676E+03  0.80667200208E+03  0.61300000000E+03 0. -1.
         13    1    4    4    0    0 -0.99138485437E+02 -0.75414757568E+02 -0.31454989495E+03  0.33831564039E+03  0.10566000000E+00 0.  1.
    -200003    1    4    4    0    0 -0.59010818033E+02 -0.63615704748E+02 -0.43526515219E+03  0.44484265448E+03  0.30000000000E+02 0.  1.
    -200000    1    3    3    0    0  0.22361038154E+03 -0.29960051602E+03 -0.21529704546E+03  0.44307548986E+03  0.10100000000E+03 0.  1.
<mgrwt>
<rscale>  0 0.19138979E+04</rscale>
<asrwt>0</asrwt>
<pdfrwt beam="1">  1        2 0.19416092E+00 0.19138979E+04</pdfrwt>
<pdfrwt beam="2">  1       -2 0.96254189E-01 0.19138979E+04</pdfrwt>
<totfact> 0.14781608E+01</totfact>
</mgrwt>
</event>
<event>
 8    2  0.4480234E-052  0.1335966E+04  0.7818608E-02  0.9001520E-01
         -2   -1    0    0    0  501 -0.00000000000E+00  0.00000000000E+00  0.19938402000E+03  0.19938402001E+03  0.25500000000E-02 0. -1.
          2   -1    0    0  501    0  0.00000000000E+00 -0.00000000000E+00 -0.22378992255E+04  0.22378992255E+04  0.25500000000E-02 0.  1.
    -200001    2    1    2    0    0  0.10736984716E+03  0.26943689963E+02 -0.57883136580E+03  0.85024192331E+03  0.61287138260E+03 0.  0.
   -5000001    2    3    3    0    0 -0.68185871069E+02  0.20295876596E+03 -0.54877809488E+02  0.26157440564E+03  0.13988574630E+03 0.  0.
     200001    1    1    2    0    0 -0.10736984716E+03 -0.26943689963E+02 -0.14596838397E+04  0.15870413222E+04  0.61300000000E+03 0.  1.
         13    1    4    4    0    0 -0.60172753478E+02  0.11226199790E+02 -0.76766518109E+01  0.61690598716E+02  0.10566000000E+00 0.  1.
    -200003    1    4    4    0    0 -0.80131175911E+01  0.19173256617E+03 -0.47201157677E+02  0.19988380693E+03  0.30000000000E+02 0.  1.
    -200000    1    3    3    0    0  0.17555571823E+03 -0.17601507600E+03 -0.52395355631E+03  0.58866751767E+03  0.10100000000E+03 0. -1.
<mgrwt>
<rscale>  0 0.13359661E+04</rscale>
<asrwt>0</asrwt>
<pdfrwt beam="1">  1        2 0.31969988E+00 0.13359661E+04</pdfrwt>
<pdfrwt beam="2">  1       -2 0.28483433E-01 0.13359661E+04</pdfrwt>
<totfact> 0.66866760E+01</totfact>
</mgrwt>
</event>
<event>
 8    2  0.4480234E-052  0.1296105E+04  0.7818608E-02  0.9032659E-01
         -2   -1    0    0    0  501 -0.00000000000E+00  0.00000000000E+00  0.42583250833E+03  0.42583250834E+03  0.25500000000E-02 0. -1.
          2   -1    0    0  501    0  0.00000000000E+00 -0.00000000000E+00 -0.98623804442E+03  0.98623804442E+03  0.25500000000E-02 0.  1.
    -200001    2    1    2    0    0  0.21313418938E+03 -0.12434498899E+02 -0.25615157170E+03  0.69518822331E+03  0.60999363824E+03 0.  0.
   -5000001    2    3    3    0    0 -0.44820803237E+02 -0.20366394395E+03 -0.27092381809E+03  0.35824802366E+03  0.10702347773E+03 0.  0.
     200001    1    1    2    0    0 -0.21313418938E+03  0.12434498899E+02 -0.30425396438E+03  0.71688232946E+03  0.61300000000E+03 0.  1.
         13    1    4    4    0    0  0.28396590231E+02 -0.38288646101E+02 -0.82979239139E+02  0.95697189348E+02  0.10566000000E+00 0.  1.
    -200003    1    4    4    0    0 -0.73217393468E+02 -0.16537529785E+03 -0.18794457895E+03  0.26255083432E+03  0.30000000000E+02 0.  1.
    -200000    1    3    3    0    0  0.25795499262E+03  0.19122944505E+03  0.14772246383E+02  0.33694019964E+03  0.10100000000E+03 0. -1.
<mgrwt>
<rscale>  0 0.12961053E+04</rscale>
<asrwt>0</asrwt>
<pdfrwt beam="1">  1        2 0.14089115E+00 0.12961053E+04</pdfrwt>
<pdfrwt beam="2">  1       -2 0.60833216E-01 0.12961053E+04</pdfrwt>
<totfact> 0.70707749E+01</totfact>
</mgrwt>
</event>
<event>
 8    2  0.4480234E-052  0.1375049E+04  0.7818608E-02  0.8972080E-01
         -2   -1    0    0    0  501 -0.00000000000E+00  0.00000000000E+00  0.12094153692E+03  0.12094153695E+03  0.25500000000E-02 0. -1.
          2   -1    0    0  501    0  0.00000000000E+00 -0.00000000000E+00 -0.39084156104E+04  0.39084156104E+04  0.25500000000E-02 0.  1.
    -200001    2    1    2    0    0 -0.12689439346E+03  0.17380750801E+03 -0.12326018838E+04  0.13931757912E+04  0.61263377665E+03 0.  0.
   -5000001    2    3    3    0    0  0.12286819028E+03  0.28918642793E+03 -0.45912522423E+03  0.56603566625E+03  0.10428337192E+03 0.  0.
     200001    1    1    2    0    0  0.12689439346E+03 -0.17380750801E+03 -0.25548721897E+04  0.26361813562E+04  0.61300000000E+03 0. -1.
         13    1    4    4    0    0  0.12197399035E+03  0.26756123732E+03 -0.40949056400E+03  0.50413212872E+03  0.10566000000E+00 0.  1.
    -200003    1    4    4    0    0  0.89419992803E+00  0.21625190613E+02 -0.49634660230E+02  0.61903537530E+02  0.30000000000E+02 0. -1.
    -200000    1    3    3    0    0 -0.24976258373E+03 -0.11537891993E+03 -0.77347665958E+03  0.82714012495E+03  0.10100000000E+03 0.  1.
<mgrwt>
<rscale>  0 0.13750488E+04</rscale>
<asrwt>0</asrwt>
<pdfrwt beam="1">  1        2 0.55834501E+00 0.13750488E+04</pdfrwt>
<pdfrwt beam="2">  1       -2 0.17277365E-01 0.13750488E+04</pdfrwt>
<totfact> 0.18081055E+01</totfact>
</mgrwt>
</event>
<event>
 8    2  0.4480234E-052  0.1512670E+04  0.7818608E-02  0.8876071E-01
          2   -1    0    0  501    0  0.00000000000E+00  0.00000000000E+00  0.73727669937E+03  0.73727669937E+03  0.25500000000E-02 0.  1.
         -2   -1    0    0    0  501 -0.00000000000E+00 -0.00000000000E+00 -0.77588592045E+03  0.77588592045E+03  0.25500000000E-02 0. -1.
    -200001    2    1    2    0    0 -0.20148771617E+03  0.37122014349E+03 -0.15214003851E+03  0.76012879508E+03  0.61339016873E+03 0.  0.
   -5000001    2    3    3    0    0 -0.39454479531E+03  0.32137481897E+03 -0.67752925463E+02  0.52121923681E+03  0.90175740294E+02 0.  0.
     200001    1    1    2    0    0  0.20148771617E+03 -0.37122014349E+03  0.11353081744E+03  0.75303382474E+03  0.61300000000E+03 0. -1.
         13    1    4    4    0    0 -0.27391872309E+02  0.11965113752E+02 -0.23666135878E+02  0.38125788740E+02  0.10566000000E+00 0.  1.
    -200003    1    4    4    0    0 -0.36715292300E+03  0.30940970521E+03 -0.44086789585E+02  0.48309344807E+03  0.30000000000E+02 0.  1.
    -200000    1    3    3    0    0  0.19305707915E+03  0.49845324521E+02 -0.84387113050E+02  0.23890955827E+03  0.10100000000E+03 0.  1.
<mgrwt>
<rscale>  0 0.15126700E+04</rscale>
<asrwt>0</asrwt>
<pdfrwt beam="1">  1        2 0.10532524E+00 0.15126700E+04</pdfrwt>
<pdfrwt beam="2">  1       -2 0.11084085E+00 0.15126700E+04</pdfrwt>
<totfact> 0.26320287E+01</totfact>
</mgrwt>
</event>
<event>
 8    2  0.4480234E-052  0.2059961E+04  0.7818608E-02  0.8579089E-01
          2   -1    0    0  501    0  0.00000000000E+00  0.00000000000E+00  0.15521910349E+04  0.15521910349E+04  0.25500000000E-02 0.  1.
         -2   -1    0    0    0  501 -0.00000000000E+00 -0.00000000000E+00 -0.68345939770E+03  0.68345939770E+03  0.25500000000E-02 0. -1.
    -200001    2    1    2    0    0  0.53918646421E+03 -0.16261809509E+03 -0.22528299060E+03  0.86094912181E+03  0.61099449790E+03 0.  0.
   -5000001    2    3    3    0    0  0.41014923993E+03  0.17505944533E+03 -0.15501969166E+03  0.47909226679E+03  0.81425345432E+02 0.  0.
     200001    1    1    2    0    0 -0.53918646421E+03  0.16261809509E+03  0.10940146278E+04  0.13747013108E+04  0.61300000000E+03 0.  1.
         13    1    4    4    0    0  0.32664148652E+03  0.12406464600E+03 -0.10292039772E+03  0.36425172139E+03  0.10566000000E+00 0.  1.
    -200003    1    4    4    0    0  0.83507753403E+02  0.50994799334E+02 -0.52099293941E+02  0.11484054540E+03  0.30000000000E+02 0. -1.
    -200000    1    3    3    0    0  0.12903722428E+03 -0.33767754042E+03 -0.70263298936E+02  0.38185685503E+03  0.10100000000E+03 0. -1.
<mgrwt>
<rscale>  0 0.20599607E+04</rscale>
<asrwt>0</asrwt>
<pdfrwt beam="1">  1        2 0.22174157E+00 0.20599607E+04</pdfrwt>
<pdfrwt beam="2">  1       -2 0.97637059E-01 0.20599607E+04</pdfrwt>
<totfact> 0.11130682E+01</totfact>
</mgrwt>
</event>
<event>
 8    2  0.4480234E-052  0.1576727E+04  0.7818608E-02  0.8834975E-01
         -2   -1    0    0    0  501 -0.00000000000E+00  0.00000000000E+00  0.37429941162E+03  0.37429941163E+03  0.25500000000E-02 0. -1.
          2   -1    0    0  501    0  0.00000000000E+00 -0.00000000000E+00 -0.16604803938E+04  0.16604803938E+04  0.25500000000E-02 0.  1.
    -200001    2    1    2    0    0  0.31424933079E+03 -0.64189974341E+01 -0.14839184806E+03  0.70469448518E+03  0.61300924255E+03 0.  0.
   -5000001    2    3    3    0    0  0.15714603068E+03 -0.28793129628E+03 -0.37014547507E+02  0.34897475789E+03  0.11319893365E+03 0.  0.
     200001    1    1    2    0    0 -0.31424933079E+03  0.64189974341E+01 -0.11377891341E+04  0.13300853203E+04  0.61300000000E+03 0.  1.
         13    1    4    4    0    0 -0.11163630799E+02 -0.33906620496E+02  0.14397691442E+02  0.38491430851E+02  0.10566000000E+00 0.  1.
    -200003    1    4    4    0    0  0.16830966148E+03 -0.25402467578E+03 -0.51412238949E+02  0.31048332704E+03  0.30000000000E+02 0.  1.
    -200000    1    3    3    0    0  0.15710330011E+03  0.28151229885E+03 -0.11137730056E+03  0.35571972730E+03  0.10100000000E+03 0. -1.
<mgrwt>
<rscale>  0 0.15767268E+04</rscale>
<asrwt>0</asrwt>
<pdfrwt beam="1">  1        2 0.23721148E+00 0.15767268E+04</pdfrwt>
<pdfrwt beam="2">  1       -2 0.53471345E-01 0.15767268E+04</pdfrwt>
<totfact> 0.38153896E+01</totfact>
</mgrwt>
</event>
<event>
 8    2  0.4480234E-052  0.1731997E+04  0.7818608E-02  0.8743323E-01
          2   -1    0    0  501    0  0.00000000000E+00  0.00000000000E+00  0.32739648709E+04  0.32739648709E+04  0.25500000000E-02 0.  1.
         -2   -1    0    0    0  501 -0.00000000000E+00 -0.00000000000E+00 -0.22906590936E+03  0.22906590937E+03  0.25500000000E-02 0. -1.
    -200001    2    1    2    0    0 -0.35332823337E+03 -0.46271235751E+03  0.19050677764E+04  0.20839015765E+04  0.61189785234E+03 0.  0.
   -5000001    2    3    3    0    0 -0.19796978046E+03 -0.35851358975E+03  0.46971090835E+03  0.63288676931E+03  0.11042326451E+03 0.  0.
     200001    1    1    2    0    0  0.35332823337E+03  0.46271235751E+03  0.11398311851E+04  0.14191292037E+04  0.61300000000E+03 0. -1.
         13    1    4    4    0    0 -0.14176069574E+03 -0.15113781783E+03  0.22763022606E+03  0.30782180854E+03  0.10566000000E+00 0.  1.
    -200003    1    4    4    0    0 -0.56209084716E+02 -0.20737577192E+03  0.24208068229E+03  0.32506496077E+03  0.30000000000E+02 0.  1.
    -200000    1    3    3    0    0 -0.15535845290E+03 -0.10419876776E+03  0.14353568680E+04  0.14510148072E+04  0.10100000000E+03 0.  1.
<mgrwt>
<rscale>  0 0.17319974E+04</rscale>
<asrwt>0</asrwt>
<pdfrwt beam="1">  1        2 0.46770923E+00 0.17319974E+04</pdfrwt>
<pdfrwt beam="2">  1       -2 0.32723704E-01 0.17319974E+04</pdfrwt>
<totfact> 0.13669443E+01</totfact>
</mgrwt>
</event>
<event>
 8    2  0.4480234E-052  0.1341305E+04  0.7818608E-02  0.8997437E-01
          2   -1    0    0  501    0  0.00000000000E+00  0.00000000000E+00  0.37949199916E+03  0.37949199917E+03  0.25500000000E-02 0.  1.
         -2   -1    0    0    0  501 -0.00000000000E+00 -0.00000000000E+00 -0.11852015444E+04  0.11852015444E+04  0.25500000000E-02 0. -1.
    -200001    2    1    2    0    0  0.19709543292E+03 -0.10716286201E+03 -0.57309762764E+03  0.87172327519E+03  0.61735734305E+03 0.  0.
   -5000001    2    3    3    0    0  0.31028280099E+03 -0.75219960440E+02 -0.62691061787E+03  0.70762401507E+03  0.76035286960E+02 0.  0.
     200001    1    1    2    0    0 -0.19709543292E+03  0.10716286201E+03 -0.23261191761E+03  0.69297026840E+03  0.61300000000E+03 0.  1.
         13    1    4    4    0    0  0.10638059564E+03 -0.42541856593E+02 -0.16625750606E+03  0.20191139190E+03  0.10566000000E+00 0.  1.
    -200003    1    4    4    0    0  0.20390220536E+03 -0.32678103847E+02 -0.46065311181E+03  0.50571262318E+03  0.30000000000E+02 0.  1.
    -200000    1    3    3    0    0 -0.11318736808E+03 -0.31942901567E+02  0.53812990230E+02  0.16409926011E+03  0.10100000000E+03 0. -1.
<mgrwt>
<rscale>  0 0.13413046E+04</rscale>
<asrwt>0</asrwt>
<pdfrwt beam="1">  1        2 0.54213143E-01 0.13413046E+04</pdfrwt>
<pdfrwt beam="2">  1       -2 0.16931450E+00 0.13413046E+04</pdfrwt>
<totfact> 0.19334137E+01</totfact>
</mgrwt>
</event>
<event>
 8    2  0.4480234E-052  0.2300774E+04  0.7818608E-02  0.8477616E-01
         -2   -1    0    0    0  501 -0.00000000000E+00  0.00000000000E+00  0.61320973182E+03  0.61320973183E+03  0.25500000000E-02 0. -1.
          2   -1    0    0  501    0  0.00000000000E+00 -0.00000000000E+00 -0.21581360813E+04  0.21581360813E+04  0.25500000000E-02 0.  1.
    -200001    2    1    2    0    0 -0.71835040496E+03  0.29917775424E+03 -0.14821571158E+04  0.17787514299E+04  0.60135871208E+03 0.  0.
   -5000001    2    3    3    0    0 -0.56080496018E+03  0.39186854216E+03 -0.13849762413E+04  0.15484097886E+04  0.10653885161E+03 0.  0.
     200001    1    1    2    0    0  0.71835040496E+03 -0.29917775424E+03 -0.62769233714E+02  0.99259438324E+03  0.61300000000E+03 0. -1.
         13    1    4    4    0    0 -0.78892820845E+02  0.31751835391E+02 -0.11708578209E+03  0.14471125652E+03  0.10566000000E+00 0.  1.
    -200003    1    4    4    0    0 -0.48191213933E+03  0.36011670677E+03 -0.12678904592E+04  0.14036985321E+04  0.30000000000E+02 0.  1.
    -200000    1    3    3    0    0 -0.15754544478E+03 -0.92690787917E+02 -0.97180874480E+02  0.23034164126E+03  0.10100000000E+03 0. -1.
<mgrwt>
<rscale>  0 0.23007738E+04</rscale>
<asrwt>0</asrwt>
<pdfrwt beam="1">  1        2 0.30830515E+00 0.23007738E+04</pdfrwt>
<pdfrwt beam="2">  1       -2 0.87601391E-01 0.23007738E+04</pdfrwt>
<totfact> 0.68115620E+00</totfact>
</mgrwt>
</event>
<event>
 8    2  0.4480234E-052  0.1333253E+04  0.7818608E-02  0.9003603E-01
         -2   -1    0    0    0  501 -0.00000000000E+00  0.00000000000E+00  0.64914086668E+03  0.64914086668E+03  0.25500000000E-02 0. -1.
          2   -1    0    0  501    0  0.00000000000E+00 -0.00000000000E+00 -0.68458293948E+03  0.68458293949E+03  0.25500000000E-02 0.  1.
    -200001    2    1    2    0    0 -0.16823650921E+03  0.62426315212E+02  0.17250324288E+03  0.66200152563E+03  0.61342324969E+03 0.  0.
   -5000001    2    3    3    0    0 -0.98040755435E+02  0.69633662914E+02  0.38844151641E+03  0.41338590327E+03  0.74432900082E+02 0.  0.
     200001    1    1    2    0    0  0.16823650921E+03 -0.62426315212E+02 -0.20794531569E+03  0.67172228054E+03  0.61300000000E+03 0.  1.
         13    1    4    4    0    0 -0.69889107128E+02  0.12537346578E+02  0.20037942954E+03  0.21258786254E+03  0.10566000000E+00 0.  1.
    -200003    1    4    4    0    0 -0.28151648307E+02  0.57096316335E+02  0.18806208687E+03  0.20079804072E+03  0.30000000000E+02 0.  1.
    -200000    1    3    3    0    0 -0.70195753779E+02 -0.72073477019E+01 -0.21593827352E+03  0.24861562236E+03  0.10100000000E+03 0.  1.
<mgrwt>
<rscale>  0 0.13332528E+04</rscale>
<asrwt>0</asrwt>
<pdfrwt beam="1">  1        2 0.97797562E-01 0.13332528E+04</pdfrwt>
<pdfrwt beam="2">  1       -2 0.92734410E-01 0.13332528E+04</pdfrwt>
<totfact> 0.44684206E+01</totfact>
</mgrwt>
</event>
<event>
 8    2  0.4480234E-052  0.1362744E+04  0.7818608E-02  0.8981237E-01
         -2   -1    0    0    0  501 -0.00000000000E+00  0.00000000000E+00  0.37307413533E+03  0.37307413534E+03  0.25500000000E-02 0. -1.
          2   -1    0    0  501    0  0.00000000000E+00 -0.00000000000E+00 -0.12444379811E+04  0.12444379811E+04  0.25500000000E-02 0.  1.
    -200001    2    1    2    0    0  0.29402372490E+03 -0.24794336083E+02 -0.43587817742E+03  0.80974886075E+03  0.61533626745E+03 0.  0.
   -5000001    2    3    3    0    0  0.14066975927E+03 -0.94896020878E+02  0.11771480807E+03  0.22229854067E+03  0.82259523430E+02 0.  0.
     200001    1    1    2    0    0 -0.29402372490E+03  0.24794336083E+02 -0.43548566834E+03  0.80776325568E+03  0.61300000000E+03 0.  1.
         13    1    4    4    0    0  0.86915383582E+02 -0.22042306201E+02  0.35720846747E+02  0.96520138946E+02  0.10566000000E+00 0.  1.
    -200003    1    4    4    0    0  0.53754375691E+02 -0.72853714678E+02  0.81993961318E+02  0.12577840173E+03  0.30000000000E+02 0.  1.
    -200000    1    3    3    0    0  0.15335396562E+03  0.70101684796E+02 -0.55359298549E+03  0.58745032008E+03  0.10100000000E+03 0.  1.
<mgrwt>
<rscale>  0 0.13627437E+04</rscale>
<asrwt>0</asrwt>
<pdfrwt beam="1">  1        2 0.17777685E+00 0.13627437E+04</pdfrwt>
<pdfrwt beam="2">  1       -2 0.53296306E-01 0.13627437E+04</pdfrwt>
<totfact> 0.65363525E+01</totfact>
</mgrwt>
</event>
<event>
 8    2  0.4480234E-052  0.1841253E+04  0.7818608E-02  0.8684664E-01
          2   -1    0    0  501    0  0.00000000000E+00  0.00000000000E+00  0.16677321571E+04  0.16677321571E+04  0.25500000000E-02 0.  1.
         -2   -1    0    0    0  501 -0.00000000000E+00 -0.00000000000E+00 -0.50820697924E+03  0.50820697925E+03  0.25500000000E-02 0. -1.
    -200001    2    1    2    0    0  0.29241363153E+03  0.35868399792E+03  0.11795313924E+04  0.14076103064E+04  0.61311705804E+03 0.  0.
   -5000001    2    3    3    0    0  0.27292673476E+03  0.39100392342E+03  0.51103626025E+03  0.73047586009E+03  0.21228248210E+03 0.  0.
     200001    1    1    2    0    0 -0.29241363153E+03 -0.35868399792E+03 -0.20006214533E+02  0.76832882992E+03  0.61300000000E+03 0. -1.
         13    1    4    4    0    0  0.28355672956E+03  0.30838178347E+03  0.47891535755E+03  0.63628898633E+03  0.10566000000E+00 0.  1.
    -200003    1    4    4    0    0 -0.10629994801E+02  0.82622139949E+02  0.32120902696E+02  0.94186873763E+02  0.30000000000E+02 0.  1.
    -200000    1    3    3    0    0  0.19486896768E+02 -0.32319925502E+02  0.66849513211E+03  0.67713444631E+03  0.10100000000E+03 0.  1.
<mgrwt>
<rscale>  0 0.18412530E+04</rscale>
<asrwt>0</asrwt>
<pdfrwt beam="1">  1        2 0.23824745E+00 0.18412530E+04</pdfrwt>
<pdfrwt beam="2">  1       -2 0.72600998E-01 0.18412530E+04</pdfrwt>
<totfact> 0.19312600E+01</totfact>
</mgrwt>
</event>
<event>
 8    2  0.4480234E-052  0.2139119E+04  0.7818608E-02  0.8544204E-01
         -2   -1    0    0    0  501 -0.00000000000E+00  0.00000000000E+00  0.53100239146E+03  0.53100239146E+03  0.25500000000E-02 0. -1.
          2   -1    0    0  501    0  0.00000000000E+00 -0.00000000000E+00 -0.21543364104E+04  0.21543364104E+04  0.25500000000E-02 0.  1.
    -200001    2    1    2    0    0 -0.38934587665E+03  0.50356780530E+03 -0.15684487713E+04  0.17999280855E+04  0.61199576687E+03 0.  0.
   -5000001    2    3    3    0    0 -0.46926998774E+03  0.55260376547E+03 -0.11712477968E+04  0.13794973504E+04  0.74875197228E+02 0.  0.
     200001    1    1    2    0    0  0.38934587665E+03 -0.50356780530E+03 -0.54885247647E+02  0.88541071634E+03  0.61300000000E+03 0. -1.
         13    1    4    4    0    0 -0.20509620919E+03  0.19726852773E+03 -0.43363400414E+03  0.51866924698E+03  0.10566000000E+00 0.  1.
    -200003    1    4    4    0    0 -0.26417377855E+03  0.35533523773E+03 -0.73761379270E+03  0.86082810341E+03  0.30000000000E+02 0.  1.
    -200000    1    3    3    0    0  0.79924111088E+02 -0.49035960163E+02 -0.39720097449E+03  0.42043073514E+03  0.10100000000E+03 0.  1.
<mgrwt>
<rscale>  0 0.21391192E+04</rscale>
<asrwt>0</asrwt>
<pdfrwt beam="1">  1        2 0.30776234E+00 0.21391192E+04</pdfrwt>
<pdfrwt beam="2">  1       -2 0.75857486E-01 0.21391192E+04</pdfrwt>
<totfact> 0.95919744E+00</totfact>
</mgrwt>
</event>
<event>
 8    2  0.4480234E-052  0.1364889E+04  0.7818608E-02  0.8979633E-01
          2   -1    0    0  501    0  0.00000000000E+00  0.00000000000E+00  0.16604511762E+04  0.16604511762E+04  0.25500000000E-02 0.  1.
         -2   -1    0    0    0  501 -0.00000000000E+00 -0.00000000000E+00 -0.28048445961E+03  0.28048445963E+03  0.25500000000E-02 0. -1.
    -200001    2    1    2    0    0 -0.16419540145E+03  0.23027361187E+03  0.83483897526E+03  0.10732263985E+04  0.61226850455E+03 0.  0.
   -5000001    2    3    3    0    0 -0.13929510726E+03  0.33545816357E+03  0.19997549885E+03  0.42135490179E+03  0.74929611687E+02 0.  0.
     200001    1    1    2    0    0  0.16419540145E+03 -0.23027361187E+03  0.54512774135E+03  0.86770923735E+03  0.61300000000E+03 0.  1.
         13    1    4    4    0    0 -0.13918200171E+02  0.10219126506E+03  0.40741427473E+02  0.11089024315E+03  0.10566000000E+00 0.  1.
    -200003    1    4    4    0    0 -0.12537690709E+03  0.23326689851E+03  0.15923407138E+03  0.31046465863E+03  0.30000000000E+02 0.  1.
    -200000    1    3    3    0    0 -0.24900294188E+02 -0.10518455169E+03  0.63486347641E+03  0.65187149673E+03  0.10100000000E+03 0. -1.
<mgrwt>
<rscale>  0 0.13648894E+04</rscale>
<asrwt>0</asrwt>
<pdfrwt beam="1">  1        2 0.23720730E+00 0.13648894E+04</pdfrwt>
<pdfrwt beam="2">  1       -2 0.40069210E-01 0.13648894E+04</pdfrwt>
<totfact> 0.69208668E+01</totfact>
</mgrwt>
</event>
<event>
 8    2  0.4480234E-052  0.2102146E+04  0.7818608E-02  0.8560299E-01
         -2   -1    0    0    0  501 -0.00000000000E+00  0.00000000000E+00  0.67240251657E+03  0.67240251657E+03  0.25500000000E-02 0. -1.
          2   -1    0    0  501    0  0.00000000000E+00 -0.00000000000E+00 -0.16429954857E+04  0.16429954857E+04  0.25500000000E-02 0.  1.
    -200001    2    1    2    0    0  0.74679681797E+03  0.26748085065E+03 -0.83239926395E+03  0.13034108517E+04  0.61379134970E+03 0.  0.
   -5000001    2    3    3    0    0  0.34464691225E+03 -0.55670564459E+02 -0.19794912747E+03  0.47946949493E+03  0.26234792477E+03 0.  0.
     200001    1    1    2    0    0 -0.74679681797E+03 -0.26748085065E+03 -0.13819370521E+03  0.10119871506E+04  0.61300000000E+03 0. -1.
         13    1    4    4    0    0  0.36702791587E+03 -0.89393754953E+02 -0.14045217102E+03  0.40302302411E+03  0.10566000000E+00 0.  1.
    -200003    1    4    4    0    0 -0.22381003619E+02  0.33723190494E+02 -0.57496956457E+02  0.76446470827E+02  0.30000000000E+02 0.  1.
    -200000    1    3    3    0    0  0.40214990572E+03  0.32315141510E+03 -0.63445013648E+03  0.82394135679E+03  0.10100000000E+03 0.  1.
<mgrwt>
<rscale>  0 0.21021459E+04</rscale>
<asrwt>0</asrwt>
<pdfrwt beam="1">  1        2 0.23471364E+00 0.21021459E+04</pdfrwt>
<pdfrwt beam="2">  1       -2 0.96057503E-01 0.21021459E+04</pdfrwt>
<totfact> 0.10325958E+01</totfact>
</mgrwt>
</event>
<event>
 8    2  0.4480234E-052  0.3058843E+04  0.7818608E-02  0.8227125E-01
          2   -1    0    0  501    0  0.00000000000E+00  0.00000000000E+00  0.25026972760E+04  0.25026972760E+04  0.25500000000E-02 0. -1.
         -2   -1    0    0    0  501 -0.00000000000E+00 -0.00000000000E+00 -0.93464375308E+03  0.93464375308E+03  0.25500000000E-02 0.  1.
    -200001    2    1    2    0    0  0.10710952160E+04  0.89534193969E+03  0.91703024445E+03  0.17794862526E+04  0.61379532679E+03 0.  0.
   -5000001    2    3    3    0    0  0.11892469244E+03  0.17714117213E+02  0.31253221890E+03  0.34683899537E+03  0.90355013324E+02 0.  0.
     200001    1    1    2    0    0 -0.10710952160E+04 -0.89534193969E+03  0.65102327845E+03  0.16578547765E+04  0.61300000000E+03 0.  1.
         13    1    4    4    0    0  0.75994567691E+02  0.40309723968E+02  0.23741765334E+03  0.25252168510E+03  0.10566000000E+00 0.  1.
    -200003    1    4    4    0    0  0.42930124750E+02 -0.22595606755E+02  0.75114565562E+02  0.94317310263E+02  0.30000000000E+02 0. -1.
    -200000    1    3    3    0    0  0.95217052358E+03  0.87762782247E+03  0.60449802555E+03  0.14326472572E+04  0.10100000000E+03 0.  1.
<mgrwt>
<rscale>  0 0.30588432E+04</rscale>
<asrwt>0</asrwt>
<pdfrwt beam="1">  1        2 0.35752818E+00 0.30588432E+04</pdfrwt>
<pdfrwt beam="2">  1       -2 0.13352054E+00 0.30588432E+04</pdfrwt>
<totfact> 0.15307041E+00</totfact>
</mgrwt>
</event>
<event>
 8    2  0.4480234E-052  0.1591881E+04  0.7818608E-02  0.8825552E-01
         -2   -1    0    0    0  501 -0.00000000000E+00  0.00000000000E+00  0.45271840508E+03  0.45271840509E+03  0.25500000000E-02 0. -1.
          2   -1    0    0  501    0  0.00000000000E+00 -0.00000000000E+00 -0.13993710379E+04  0.13993710379E+04  0.25500000000E-02 0.  1.
    -200001    2    1    2    0    0 -0.47986273046E+03 -0.15790811036E+03 -0.42040164477E+03  0.89924511479E+03  0.61375974301E+03 0.  0.
   -5000001    2    3    3    0    0 -0.56793792148E+03 -0.11758883741E+03 -0.46844068345E+03  0.75128690352E+03  0.92815516771E+02 0.  0.
     200001    1    1    2    0    0  0.47986273046E+03  0.15790811036E+03 -0.52625098809E+03  0.95284432824E+03  0.61300000000E+03 0. -1.
         13    1    4    4    0    0 -0.25855815314E+03 -0.91870137830E+02 -0.24196759236E+03  0.36584254495E+03  0.10566000000E+00 0.  1.
    -200003    1    4    4    0    0 -0.30937976834E+03 -0.25718699585E+02 -0.22647309109E+03  0.38544435857E+03  0.30000000000E+02 0.  1.
    -200000    1    3    3    0    0  0.88075191017E+02 -0.40319272946E+02  0.48039038677E+02  0.14795821126E+03  0.10100000000E+03 0. -1.
<mgrwt>
<rscale>  0 0.15918807E+04</rscale>
<asrwt>0</asrwt>
<pdfrwt beam="1">  1        2 0.19991015E+00 0.15918807E+04</pdfrwt>
<pdfrwt beam="2">  1       -2 0.64674058E-01 0.15918807E+04</pdfrwt>
<totfact> 0.35134641E+01</totfact>
</mgrwt>
</event>
<event>
 8    2  0.4480234E-052  0.1588612E+04  0.7818608E-02  0.8827575E-01
          2   -1    0    0  501    0  0.00000000000E+00  0.00000000000E+00  0.44990504040E+03  0.44990504041E+03  0.25500000000E-02 0.  1.
         -2   -1    0    0    0  501 -0.00000000000E+00 -0.00000000000E+00 -0.14023448457E+04  0.14023448457E+04  0.25500000000E-02 0. -1.
    -200001    2    1    2    0    0 -0.87759244109E+02 -0.36167718387E+03 -0.87436458809E+03  0.11308784077E+04  0.61307460386E+03 0.  0.
   -5000001    2    3    3    0    0  0.22452282715E+03 -0.26819875539E+03 -0.32677510082E+03  0.48565476031E+03  0.82082320790E+02 0.  0.
     200001    1    1    2    0    0  0.87759244109E+02  0.36167718387E+03 -0.78075217194E+02  0.72137147836E+03  0.61300000000E+03 0.  1.
         13    1    4    4    0    0  0.61436525785E+02 -0.30193393325E+02 -0.50511143830E+02  0.85073347860E+02  0.10566000000E+00 0.  1.
    -200003    1    4    4    0    0  0.16308630137E+03 -0.23800536206E+03 -0.27626395699E+03  0.40058141245E+03  0.30000000000E+02 0.  1.
    -200000    1    3    3    0    0 -0.31228207126E+03 -0.93478428480E+02 -0.54758948727E+03  0.64522364742E+03  0.10100000000E+03 0. -1.
<mgrwt>
<rscale>  0 0.15886120E+04</rscale>
<asrwt>0</asrwt>
<pdfrwt beam="1">  1        2 0.64272150E-01 0.15886120E+04</pdfrwt>
<pdfrwt beam="2">  1       -2 0.20033497E+00 0.15886120E+04</pdfrwt>
<totfact> 0.96317925E+00</totfact>
</mgrwt>
</event>
<event>
 8    2  0.4480234E-052  0.1492503E+04  0.7818608E-02  0.8889454E-01
         -2   -1    0    0    0  501 -0.00000000000E+00  0.00000000000E+00  0.36070650534E+03  0.36070650535E+03  0.25500000000E-02 0. -1.
          2   -1    0    0  501    0  0.00000000000E+00 -0.00000000000E+00 -0.15438904257E+04  0.15438904257E+04  0.25500000000E-02 0.  1.
    -200001    2    1    2    0    0 -0.11472064364E+03  0.31627881589E+03 -0.91897361149E+03  0.11570882670E+04  0.61737156042E+03 0.  0.
   -5000001    2    3    3    0    0  0.11700540958E+03 -0.21018848529E+02 -0.62312922041E+03  0.64212071280E+03  0.99483298192E+02 0.  0.
     200001    1    1    2    0    0  0.11472064364E+03 -0.31627881589E+03 -0.26421030884E+03  0.74750866400E+03  0.61300000000E+03 0.  1.
         13    1    4    4    0    0  0.84574681100E+01 -0.38121045431E+02 -0.20873693153E+03  0.21235785981E+03  0.10566000000E+00 0.  1.
    -200003    1    4    4    0    0  0.10854794147E+03  0.17102196901E+02 -0.41439228887E+03  0.42976285299E+03  0.30000000000E+02 0. -1.
    -200000    1    3    3    0    0 -0.23172605322E+03  0.33729766442E+03 -0.29584439108E+03  0.51496755422E+03  0.10100000000E+03 0. -1.
<mgrwt>
<rscale>  0 0.14925030E+04</rscale>
<asrwt>0</asrwt>
<pdfrwt beam="1">  1        2 0.22055577E+00 0.14925030E+04</pdfrwt>
<pdfrwt beam="2">  1       -2 0.51529502E-01 0.14925030E+04</pdfrwt>
<totfact> 0.47707984E+01</totfact>
</mgrwt>
</event>
<event>
 8    2  0.4480234E-052  0.1532599E+04  0.7818608E-02  0.8863060E-01
          2   -1    0    0  501    0  0.00000000000E+00  0.00000000000E+00  0.96492833270E+03  0.96492833270E+03  0.25500000000E-02 0.  1.
         -2   -1    0    0    0  501 -0.00000000000E+00 -0.00000000000E+00 -0.60855808639E+03  0.60855808639E+03  0.25500000000E-02 0. -1.
    -200001    2    1    2    0    0 -0.19350257165E+03 -0.47145696429E+02  0.60375291186E+03  0.88310019014E+03  0.61292936405E+03 0.  0.
   -5000001    2    3    3    0    0  0.99840259194E+02  0.16939752825E+03  0.60526965053E+02  0.22110591989E+03  0.80998236876E+02 0.  0.
     200001    1    1    2    0    0  0.19350257165E+03  0.47145696429E+02 -0.24738266555E+03  0.69038622896E+03  0.61300000000E+03 0. -1.
         13    1    4    4    0    0  0.46049546153E+02  0.12539278946E+03  0.19470521500E+02  0.13499268396E+03  0.10566000000E+00 0.  1.
    -200003    1    4    4    0    0  0.53790713041E+02  0.44004738787E+02  0.41056443552E+02  0.86113235930E+02  0.30000000000E+02 0.  1.
    -200000    1    3    3    0    0 -0.29334283084E+03 -0.21654322468E+03  0.54322594681E+03  0.66199427025E+03  0.10100000000E+03 0.  1.
<mgrwt>
<rscale>  0 0.15325990E+04</rscale>
<asrwt>0</asrwt>
<pdfrwt beam="1">  1        2 0.13784690E+00 0.15325990E+04</pdfrwt>
<pdfrwt beam="2">  1       -2 0.86936870E-01 0.15325990E+04</pdfrwt>
<totfact> 0.32656968E+01</totfact>
</mgrwt>
</event>
<event>
 8    2  0.4480234E-052  0.1411456E+04  0.7818608E-02  0.8945568E-01
         -2   -1    0    0    0  501 -0.00000000000E+00  0.00000000000E+00  0.26458805808E+03  0.26458805810E+03  0.25500000000E-02 0. -1.
          2   -1    0    0  501    0  0.00000000000E+00 -0.00000000000E+00 -0.18823675844E+04  0.18823675844E+04  0.25500000000E-02 0.  1.
    -200001    2    1    2    0    0 -0.39976925382E+02  0.32068008420E+03 -0.10136490714E+04  0.12276208409E+04  0.61248234095E+03 0.  0.
   -5000001    2    3    3    0    0  0.16707705819E+03  0.80483381930E+02 -0.61417168010E+02  0.21890264149E+03  0.98762238652E+02 0.  0.
     200001    1    1    2    0    0  0.39976925382E+02 -0.32068008420E+03 -0.60413045493E+03  0.91933480166E+03  0.61300000000E+03 0.  1.
         13    1    4    4    0    0 -0.10984020933E+02 -0.18228424038E+01 -0.69260520264E+01  0.13113078624E+02  0.10566000000E+00 0.  1.
    -200003    1    4    4    0    0  0.17806107912E+03  0.82306224334E+02 -0.54491115984E+02  0.20578956286E+03  0.30000000000E+02 0.  1.
    -200000    1    3    3    0    0 -0.20705398357E+03  0.24019670227E+03 -0.95223190339E+03  0.10087181994E+04  0.10100000000E+03 0.  1.
<mgrwt>
<rscale>  0 0.14114560E+04</rscale>
<asrwt>0</asrwt>
<pdfrwt beam="1">  1        2 0.26890965E+00 0.14114560E+04</pdfrwt>
<pdfrwt beam="2">  1       -2 0.37798295E-01 0.14114560E+04</pdfrwt>
<totfact> 0.59312674E+01</totfact>
</mgrwt>
</event>
<event>
 8    2  0.4480234E-052  0.2023045E+04  0.7818608E-02  0.8595921E-01
          2   -1    0    0  501    0  0.00000000000E+00  0.00000000000E+00  0.14629360947E+04  0.14629360947E+04  0.25500000000E-02 0.  1.
         -2   -1    0    0    0  501 -0.00000000000E+00 -0.00000000000E+00 -0.69940048183E+03  0.69940048183E+03  0.25500000000E-02 0. -1.
    -200001    2    1    2    0    0 -0.61924994298E+03 -0.48210724745E+03  0.58100465815E+03  0.11499214248E+04  0.60733432357E+03 0.  0.
   -5000001    2    3    3    0    0 -0.10266829681E+03  0.15656815523E+02  0.36357769939E+03  0.39354774607E+03  0.10911081475E+03 0.  0.
     200001    1    1    2    0    0  0.61924994298E+03  0.48210724745E+03  0.18253095471E+03  0.10124151517E+04  0.61300000000E+03 0.  1.
         13    1    4    4    0    0 -0.87266257779E+02  0.12239990613E+02  0.34245178840E+03  0.35360777093E+03  0.10566000000E+00 0.  1.
    -200003    1    4    4    0    0 -0.15402039035E+02  0.34168249097E+01  0.21125910990E+02  0.39939975138E+02  0.30000000000E+02 0. -1.
    -200000    1    3    3    0    0 -0.51658164617E+03 -0.49776406298E+03  0.21742695876E+03  0.75637367877E+03  0.10100000000E+03 0. -1.
<mgrwt>
<rscale>  0 0.20230454E+04</rscale>
<asrwt>0</asrwt>
<pdfrwt beam="1">  1        2 0.20899087E+00 0.20230454E+04</pdfrwt>
<pdfrwt beam="2">  1       -2 0.99914354E-01 0.20230454E+04</pdfrwt>
<totfact> 0.11794336E+01</totfact>
</mgrwt>
</event>
<event>
 8    2  0.4480234E-052  0.1685671E+04  0.7818608E-02  0.8769579E-01
         -2   -1    0    0    0  501 -0.00000000000E+00  0.00000000000E+00  0.32543035482E+03  0.32543035483E+03  0.25500000000E-02 0. -1.
          2   -1    0    0  501    0  0.00000000000E+00 -0.00000000000E+00 -0.21828683273E+04  0.21828683273E+04  0.25500000000E-02 0.  1.
    -200001    2    1    2    0    0  0.44303528898E+03  0.30505753260E+03 -0.12452449268E+04  0.14885488645E+04  0.61302726586E+03 0.  0.
   -5000001    2    3    3    0    0  0.54700845350E+03  0.98692632289E+02 -0.79754977390E+03  0.97471149627E+03  0.70840491577E+02 0.  0.
     200001    1    1    2    0    0 -0.44303528898E+03 -0.30505753260E+03 -0.61219304569E+03  0.10197498177E+04  0.61300000000E+03 0. -1.
         13    1    4    4    0    0  0.31687069769E+03  0.73815439612E+02 -0.42809239140E+03  0.53769774494E+03  0.10566000000E+00 0.  1.
    -200003    1    4    4    0    0  0.23013775581E+03  0.24877192677E+02 -0.36945738251E+03  0.43701375133E+03  0.30000000000E+02 0. -1.
    -200000    1    3    3    0    0 -0.10397316451E+03  0.20636490031E+03 -0.44769515293E+03  0.51383736822E+03  0.10100000000E+03 0. -1.
<mgrwt>
<rscale>  0 0.16856709E+04</rscale>
<asrwt>0</asrwt>
<pdfrwt beam="1">  1        2 0.31183832E+00 0.16856709E+04</pdfrwt>
<pdfrwt beam="2">  1       -2 0.46490052E-01 0.16856709E+04</pdfrwt>
<totfact> 0.27037993E+01</totfact>
</mgrwt>
</event>
<event>
 8    2  0.4480234E-052  0.1313263E+04  0.7818608E-02  0.9019113E-01
         -2   -1    0    0    0  501 -0.00000000000E+00  0.00000000000E+00  0.20473708563E+04  0.20473708563E+04  0.25500000000E-02 0. -1.
          2   -1    0    0  501    0  0.00000000000E+00 -0.00000000000E+00 -0.21059441224E+03  0.21059441225E+03  0.25500000000E-02 0.  1.
    -200001    2    1    2    0    0  0.66388622647E+02  0.16802901721E+03  0.11769110691E+04  0.13393617017E+04  0.61329348908E+03 0.  0.
   -5000001    2    3    3    0    0  0.31393858747E+03  0.40756643222E+02  0.76634759252E+03  0.83315758229E+03  0.81513089192E+02 0.  0.
     200001    1    1    2    0    0 -0.66388622647E+02 -0.16802901721E+03  0.65986537500E+03  0.91860356681E+03  0.61300000000E+03 0. -1.
         13    1    4    4    0    0  0.91729877091E+02  0.16248410301E+02  0.31653953632E+03  0.32996313492E+03  0.10566000000E+00 0.  1.
    -200003    1    4    4    0    0  0.22220871038E+03  0.24508232921E+02  0.44980805619E+03  0.50319444737E+03  0.30000000000E+02 0.  1.
    -200000    1    3    3    0    0 -0.24754996482E+03  0.12727237399E+03  0.41056347655E+03  0.50620411944E+03  0.10100000000E+03 0. -1.
<mgrwt>
<rscale>  0 0.13132629E+04</rscale>
<asrwt>0</asrwt>
<pdfrwt beam="1">  1        2 0.30084916E-01 0.13132629E+04</pdfrwt>
<pdfrwt beam="2">  1       -2 0.29248155E+00 0.13132629E+04</pdfrwt>
<totfact> 0.61848073E+00</totfact>
</mgrwt>
</event>
<event>
 8    2  0.4480234E-052  0.1801823E+04  0.7818608E-02  0.8705331E-01
         -2   -1    0    0    0  501 -0.00000000000E+00  0.00000000000E+00  0.65471410688E+03  0.65471410689E+03  0.25500000000E-02 0. -1.
          2   -1    0    0  501    0  0.00000000000E+00 -0.00000000000E+00 -0.12396878572E+04  0.12396878572E+04  0.25500000000E-02 0.  1.
    -200001    2    1    2    0    0  0.34450229511E+03  0.25962840476E+03 -0.81726321650E+03  0.11096624302E+04  0.61428234880E+03 0.  0.
   -5000001    2    3    3    0    0  0.28744148834E+03  0.95780295376E+02 -0.48660456454E+02  0.31527377131E+03  0.72341113149E+02 0.  0.
     200001    1    1    2    0    0 -0.34450229511E+03 -0.25962840476E+03  0.23228946621E+03  0.78473953386E+03  0.61300000000E+03 0. -1.
         13    1    4    4    0    0  0.18813352105E+03  0.86596287202E+02 -0.38243473136E+02  0.21060796068E+03  0.10566000000E+00 0.  1.
    -200003    1    4    4    0    0  0.99307967287E+02  0.91840081743E+01 -0.10416983317E+02  0.10466581063E+03  0.30000000000E+02 0.  1.
    -200000    1    3    3    0    0  0.57060806774E+02  0.16384810938E+03 -0.76860276004E+03  0.79438865889E+03  0.10100000000E+03 0.  1.
<mgrwt>
<rscale>  0 0.18018226E+04</rscale>
<asrwt>0</asrwt>
<pdfrwt beam="1">  1        2 0.17709826E+00 0.18018226E+04</pdfrwt>
<pdfrwt beam="2">  1       -2 0.93530587E-01 0.18018226E+04</pdfrwt>
<totfact> 0.18573425E+01</totfact>
</mgrwt>
</event>
